0 	31.8619 	-2.73148e-07 	3.12313e-19
0.000254254 	31.8676 	-2.7331e-07 	1.93068e-15
0.000508509 	31.8734 	-2.7331e-07 	1.93068e-15
0.000762763 	31.8792 	-2.7331e-07 	1.93068e-15
0.00101702 	31.8849 	-2.7331e-07 	1.93067e-15
0.00127127 	31.8907 	-2.7331e-07 	1.93067e-15
0.00152553 	31.8964 	-2.7331e-07 	1.93067e-15
0.00177978 	31.9022 	-2.7331e-07 	1.93067e-15
0.00203403 	31.908 	-2.7331e-07 	1.93067e-15
0.00228829 	31.9137 	-2.7331e-07 	1.93067e-15
0.00254254 	31.9195 	-2.7331e-07 	1.93067e-15
0.0027968 	31.9329 	-2.7876e-07 	1.93088e-15
0.00305105 	31.9471 	-2.7876e-07 	1.93088e-15
0.00330531 	31.9613 	-2.7876e-07 	1.93088e-15
0.00355956 	31.9754 	-2.7876e-07 	1.93088e-15
0.00381381 	31.9896 	-2.7876e-07 	1.93088e-15
0.00406807 	32.0038 	-2.7876e-07 	1.93088e-15
0.00432232 	32.018 	-2.7876e-07 	1.93088e-15
0.00457658 	32.0322 	-2.7876e-07 	1.93087e-15
0.00483083 	32.0463 	-2.7876e-07 	1.93087e-15
0.00508509 	32.0605 	-2.7876e-07 	1.93087e-15
0.00533934 	32.0772 	-3.02113e-07 	1.96954e-15
0.00559359 	32.0945 	-3.02113e-07 	1.96954e-15
0.00584785 	32.1118 	-3.02113e-07 	1.96954e-15
0.0061021 	32.129 	-3.02113e-07 	1.96954e-15
0.00635636 	32.1463 	-3.02113e-07 	1.96954e-15
0.00661061 	32.1636 	-3.02113e-07 	1.96953e-15
0.00686486 	32.1808 	-3.02113e-07 	1.96953e-15
0.00711912 	32.1981 	-3.02113e-07 	1.96953e-15
0.00737337 	32.2154 	-3.02113e-07 	1.96953e-15
0.00762763 	32.2327 	-3.02113e-07 	1.96953e-15
0.00788188 	32.2507 	-3.42449e-07 	1.97181e-15
0.00813614 	32.269 	-3.42449e-07 	1.97181e-15
0.00839039 	32.2873 	-3.42449e-07 	1.97181e-15
0.00864464 	32.3056 	-3.42449e-07 	1.97181e-15
0.0088989 	32.3239 	-3.42449e-07 	1.9718e-15
0.00915315 	32.3422 	-3.42449e-07 	1.9718e-15
0.00940741 	32.3605 	-3.42449e-07 	1.9718e-15
0.00966166 	32.3788 	-3.42449e-07 	1.9718e-15
0.00991592 	32.3971 	-3.42449e-07 	1.9718e-15
0.0101702 	32.4154 	-3.42449e-07 	1.9718e-15
0.0104244 	32.4348 	-3.95905e-07 	2.02459e-15
0.0106787 	32.455 	-3.95905e-07 	2.02459e-15
0.0109329 	32.4751 	-3.95905e-07 	2.02459e-15
0.0111872 	32.4952 	-3.95905e-07 	2.02459e-15
0.0114414 	32.5154 	-3.95905e-07 	2.02459e-15
0.0116957 	32.5355 	-3.95905e-07 	2.02459e-15
0.0119499 	32.5556 	-3.95905e-07 	2.02458e-15
0.0122042 	32.5758 	-3.95905e-07 	2.02458e-15
0.0124585 	32.5959 	-3.95905e-07 	2.02458e-15
0.0127127 	32.6161 	-3.95905e-07 	2.02458e-15
0.012967 	32.6378 	-4.59015e-07 	2.07217e-15
0.0132212 	32.6608 	-4.59015e-07 	2.07217e-15
0.0134755 	32.6839 	-4.59015e-07 	2.07216e-15
0.0137297 	32.7069 	-4.59015e-07 	2.07216e-15
0.013984 	32.73 	-4.59015e-07 	2.07216e-15
0.0142382 	32.753 	-4.59015e-07 	2.07216e-15
0.0144925 	32.7761 	-4.59015e-07 	2.07216e-15
0.0147467 	32.7991 	-4.59015e-07 	2.07216e-15
0.015001 	32.8222 	-4.59015e-07 	2.07215e-15
0.0152553 	32.8453 	-4.59015e-07 	2.07215e-15
0.0155095 	32.8699 	-5.29159e-07 	2.07518e-15
0.0157638 	32.8966 	-5.29159e-07 	2.07518e-15
0.016018 	32.9233 	-5.29159e-07 	2.07518e-15
0.0162723 	32.9499 	-5.29159e-07 	2.07518e-15
0.0165265 	32.9766 	-5.29159e-07 	2.07517e-15
0.0167808 	33.0033 	-5.29159e-07 	2.07517e-15
0.017035 	33.0299 	-5.29159e-07 	2.07517e-15
0.0172893 	33.0566 	-5.29159e-07 	2.07517e-15
0.0175435 	33.0832 	-5.29159e-07 	2.07517e-15
0.0177978 	33.1099 	-5.29159e-07 	2.07517e-15
0.0180521 	33.138 	-6.04508e-07 	2.0871e-15
0.0183063 	33.1687 	-6.04508e-07 	2.08709e-15
0.0185606 	33.1993 	-6.04508e-07 	2.08709e-15
0.0188148 	33.2299 	-6.04508e-07 	2.08709e-15
0.0190691 	33.2606 	-6.04508e-07 	2.08709e-15
0.0193233 	33.2912 	-6.04508e-07 	2.08709e-15
0.0195776 	33.3219 	-6.04508e-07 	2.08708e-15
0.0198318 	33.3525 	-6.04508e-07 	2.08708e-15
0.0200861 	33.3832 	-6.04508e-07 	2.08708e-15
0.0203403 	33.4138 	-6.04508e-07 	2.08708e-15
0.0205946 	33.4456 	-6.83909e-07 	2.10227e-15
0.0208488 	33.4805 	-6.83909e-07 	2.10226e-15
0.0211031 	33.5153 	-6.83909e-07 	2.10226e-15
0.0213574 	33.5502 	-6.83909e-07 	2.10226e-15
0.0216116 	33.585 	-6.83909e-07 	2.10226e-15
0.0218659 	33.6199 	-6.83909e-07 	2.10226e-15
0.0221201 	33.6548 	-6.83909e-07 	2.10225e-15
0.0223744 	33.6896 	-6.83909e-07 	2.10225e-15
0.0226286 	33.7245 	-6.83909e-07 	2.10225e-15
0.0228829 	33.7594 	-6.83909e-07 	2.10225e-15
0.0231371 	33.795 	-7.66697e-07 	2.12115e-15
0.0233914 	33.8343 	-7.66697e-07 	2.12115e-15
0.0236456 	33.8735 	-7.66697e-07 	2.12115e-15
0.0238999 	33.9128 	-7.66697e-07 	2.12115e-15
0.0241542 	33.9521 	-7.66697e-07 	2.12114e-15
0.0244084 	33.9913 	-7.66697e-07 	2.12114e-15
0.0246627 	34.0306 	-7.66697e-07 	2.12114e-15
0.0249169 	34.0699 	-7.66697e-07 	2.12114e-15
0.0251712 	34.1091 	-7.66697e-07 	2.12113e-15
0.0254254 	34.1484 	-7.66697e-07 	2.12113e-15
0.0256797 	34.1881 	-8.5232e-07 	2.14329e-15
0.0259339 	34.232 	-8.5232e-07 	2.14329e-15
0.0261882 	34.2758 	-8.5232e-07 	2.14328e-15
0.0264424 	34.3197 	-8.5232e-07 	2.14328e-15
0.0266967 	34.3635 	-8.5232e-07 	2.14328e-15
0.026951 	34.4074 	-8.5232e-07 	2.14327e-15
0.0272052 	34.4512 	-8.5232e-07 	2.14327e-15
0.0274595 	34.4951 	-8.5232e-07 	2.14327e-15
0.0277137 	34.5389 	-8.5232e-07 	2.14327e-15
0.027968 	34.5828 	-8.5232e-07 	2.14326e-15
0.0282222 	34.6266 	-9.90398e-07 	-1.44174e-18
0.0284765 	34.6752 	-9.39406e-07 	2.1683e-15
0.0287307 	34.7238 	-9.39406e-07 	2.16829e-15
0.028985 	34.7725 	-9.39406e-07 	2.16829e-15
0.0292392 	34.8211 	-9.39406e-07 	2.16829e-15
0.0294935 	34.8697 	-9.39406e-07 	2.16829e-15
0.0297477 	34.9183 	-9.39406e-07 	2.16828e-15
0.030002 	34.9669 	-9.39406e-07 	2.16828e-15
0.0302563 	35.0155 	-9.39406e-07 	2.16828e-15
0.0305105 	35.0641 	-9.39406e-07 	2.16827e-15
0.0307648 	35.1128 	-9.39406e-07 	2.16827e-15
0.031019 	35.1659 	-1.02583e-06 	2.23887e-15
0.0312733 	35.2194 	-1.02583e-06 	2.23887e-15
0.0315275 	35.273 	-1.02583e-06 	2.23887e-15
0.0317818 	35.3265 	-1.02583e-06 	2.23886e-15
0.032036 	35.3801 	-1.02583e-06 	2.23886e-15
0.0322903 	35.4337 	-1.02583e-06 	2.23886e-15
0.0325445 	35.4872 	-1.02583e-06 	2.23885e-15
0.0327988 	35.5408 	-1.02583e-06 	2.23885e-15
0.0330531 	35.5943 	-1.02583e-06 	2.23885e-15
0.0333073 	35.6479 	-1.02583e-06 	2.23884e-15
0.0335616 	35.7057 	-1.11388e-06 	2.22431e-15
0.0338158 	35.7644 	-1.11388e-06 	2.22431e-15
0.0340701 	35.823 	-1.11388e-06 	2.22431e-15
0.0343243 	35.8817 	-1.11388e-06 	2.2243e-15
0.0345786 	35.9404 	-1.11388e-06 	2.2243e-15
0.0348328 	35.9991 	-1.11388e-06 	2.2243e-15
0.0350871 	36.0578 	-1.11388e-06 	2.22429e-15
0.0353413 	36.1165 	-1.11388e-06 	2.22429e-15
0.0355956 	36.1752 	-1.11388e-06 	2.22428e-15
0.0358498 	36.2339 	-1.11388e-06 	2.22428e-15
0.0361041 	36.2965 	-1.2045e-06 	2.30745e-15
0.0363584 	36.3605 	-1.2045e-06 	2.30745e-15
0.0366126 	36.4245 	-1.2045e-06 	2.30745e-15
0.0368669 	36.4885 	-1.2045e-06 	2.30744e-15
0.0371211 	36.5525 	-1.2045e-06 	2.30744e-15
0.0373754 	36.6166 	-1.2045e-06 	2.30743e-15
0.0376296 	36.6806 	-1.2045e-06 	2.30743e-15
0.0378839 	36.7446 	-1.2045e-06 	2.30743e-15
0.0381381 	36.8086 	-1.2045e-06 	2.30742e-15
0.0383924 	36.8726 	-1.2045e-06 	2.30742e-15
0.0386466 	36.9402 	-1.29945e-06 	2.39446e-15
0.0389009 	37.0097 	-1.29945e-06 	2.39445e-15
0.0391552 	37.0793 	-1.29945e-06 	2.39445e-15
0.0394094 	37.1488 	-1.29945e-06 	2.39444e-15
0.0396637 	37.2184 	-1.29945e-06 	2.39444e-15
0.0399179 	37.2879 	-1.29945e-06 	2.39443e-15
0.0401722 	37.3575 	-1.29945e-06 	2.39443e-15
0.0404264 	37.427 	-1.29945e-06 	2.39442e-15
0.0406807 	37.4966 	-1.29945e-06 	2.39442e-15
0.0409349 	37.5661 	-1.29945e-06 	2.39442e-15
0.0411892 	37.6388 	-1.39813e-06 	2.47966e-15
0.0414434 	37.7141 	-1.39813e-06 	2.47966e-15
0.0416977 	37.7894 	-1.39813e-06 	2.47965e-15
0.041952 	37.8647 	-1.39813e-06 	2.47965e-15
0.0422062 	37.94 	-1.39813e-06 	2.47964e-15
0.0424605 	38.0153 	-1.39813e-06 	2.47964e-15
0.0427147 	38.0906 	-1.39813e-06 	2.47963e-15
0.042969 	38.1659 	-1.39813e-06 	2.47963e-15
0.0432232 	38.2412 	-1.39813e-06 	2.47962e-15
0.0434775 	38.3165 	-1.39813e-06 	2.47962e-15
0.0437317 	38.3945 	-1.50027e-06 	2.52819e-15
0.043986 	38.4758 	-1.50027e-06 	2.52819e-15
0.0442402 	38.5571 	-1.50027e-06 	2.52818e-15
0.0444945 	38.6384 	-1.50027e-06 	2.52818e-15
0.0447487 	38.7196 	-1.50027e-06 	2.52817e-15
0.045003 	38.8009 	-1.50027e-06 	2.52817e-15
0.0452573 	38.8822 	-1.50027e-06 	2.52816e-15
0.0455115 	38.9635 	-1.50027e-06 	2.52816e-15
0.0457658 	39.0447 	-1.50027e-06 	2.52815e-15
0.04602 	39.126 	-1.50027e-06 	2.52815e-15
0.0462743 	39.2095 	-1.60579e-06 	2.54414e-15
0.0465285 	39.297 	-1.60579e-06 	2.54413e-15
0.0467828 	39.3845 	-1.60579e-06 	2.54413e-15
0.047037 	39.472 	-1.60579e-06 	2.54412e-15
0.0472913 	39.5595 	-1.60579e-06 	2.54412e-15
0.0475455 	39.6469 	-1.60579e-06 	2.54411e-15
0.0477998 	39.7344 	-1.60579e-06 	2.54411e-15
0.0480541 	39.8219 	-1.60579e-06 	2.5441e-15
0.0483083 	39.9094 	-1.60579e-06 	2.5441e-15
0.0485626 	39.9969 	-1.60579e-06 	2.54409e-15
0.0488168 	40.0861 	-1.7145e-06 	2.54326e-15
0.0490711 	40.1801 	-1.7145e-06 	2.54326e-15
0.0493253 	40.274 	-1.7145e-06 	2.54325e-15
0.0495796 	40.3679 	-1.7145e-06 	2.54324e-15
0.0498338 	40.4619 	-1.7145e-06 	2.54324e-15
0.0500881 	40.5558 	-1.7145e-06 	2.54323e-15
0.0503423 	40.6498 	-1.7145e-06 	2.54323e-15
0.0505966 	40.7437 	-1.7145e-06 	2.54322e-15
0.0508509 	40.8376 	-1.7145e-06 	2.54321e-15
0.0511051 	40.9316 	-1.7145e-06 	2.54321e-15
0.0513594 	41.0267 	-1.82608e-06 	2.60417e-15
0.0516136 	41.1274 	-1.82608e-06 	2.60416e-15
0.0518679 	41.228 	-1.82608e-06 	2.60415e-15
0.0521221 	41.3287 	-1.82608e-06 	2.60415e-15
0.0523764 	41.4293 	-1.82608e-06 	2.60414e-15
0.0526306 	41.53 	-1.82608e-06 	2.60413e-15
0.0528849 	41.6306 	-1.82608e-06 	2.60413e-15
0.0531391 	41.7313 	-1.82608e-06 	2.60412e-15
0.0533934 	41.8319 	-1.82608e-06 	2.60411e-15
0.0536476 	41.9326 	-1.82608e-06 	2.60411e-15
0.0539019 	42.0338 	-1.94004e-06 	2.62279e-15
0.0541562 	42.1415 	-1.94004e-06 	2.62278e-15
0.0544104 	42.2491 	-1.94004e-06 	2.62277e-15
0.0546647 	42.3567 	-1.94004e-06 	2.62277e-15
0.0549189 	42.4643 	-1.94004e-06 	2.62276e-15
0.0551732 	42.5719 	-1.94004e-06 	2.62275e-15
0.0554274 	42.6795 	-1.94004e-06 	2.62275e-15
0.0556817 	42.7871 	-1.94004e-06 	2.62274e-15
0.0559359 	42.8947 	-1.94004e-06 	2.62273e-15
0.0561902 	43.0023 	-1.94004e-06 	2.62273e-15
0.0564444 	43.1099 	-2.31061e-06 	-1.52741e-18
0.0566987 	43.2248 	-2.05564e-06 	2.68412e-15
0.056953 	43.3396 	-2.05564e-06 	2.68411e-15
0.0572072 	43.4544 	-2.05564e-06 	2.6841e-15
0.0574615 	43.5692 	-2.05564e-06 	2.68409e-15
0.0577157 	43.6841 	-2.05564e-06 	2.68409e-15
0.05797 	43.7989 	-2.05564e-06 	2.68408e-15
0.0582242 	43.9137 	-2.05564e-06 	2.68407e-15
0.0584785 	44.0285 	-2.05564e-06 	2.68406e-15
0.0587327 	44.1434 	-2.05564e-06 	2.68406e-15
0.058987 	44.2582 	-2.05564e-06 	2.68405e-15
0.0592412 	44.3798 	-2.17184e-06 	2.75377e-15
0.0594955 	44.5021 	-2.17184e-06 	2.75376e-15
0.0597497 	44.6244 	-2.17184e-06 	2.75375e-15
0.060004 	44.7467 	-2.17184e-06 	2.75374e-15
0.0602583 	44.869 	-2.17184e-06 	2.75373e-15
0.0605125 	44.9913 	-2.17184e-06 	2.75373e-15
0.0607668 	45.1136 	-2.17184e-06 	2.75372e-15
0.061021 	45.2359 	-2.17184e-06 	2.75371e-15
0.0612753 	45.3582 	-2.17184e-06 	2.7537e-15
0.0615295 	45.4804 	-2.17184e-06 	2.7537e-15
0.0617838 	45.609 	-2.28861e-06 	2.87682e-15
0.062038 	45.739 	-2.28861e-06 	2.87681e-15
0.0622923 	45.869 	-2.28861e-06 	2.8768e-15
0.0625465 	45.999 	-2.28861e-06 	2.87679e-15
0.0628008 	46.129 	-2.28861e-06 	2.87678e-15
0.0630551 	46.259 	-2.28861e-06 	2.87677e-15
0.0633093 	46.389 	-2.28861e-06 	2.87677e-15
0.0635636 	46.519 	-2.28861e-06 	2.87676e-15
0.0638178 	46.649 	-2.28861e-06 	2.87675e-15
0.0640721 	46.779 	-2.28861e-06 	2.87674e-15
0.0643263 	46.9148 	-2.40543e-06 	2.91112e-15
0.0645806 	47.0527 	-2.40543e-06 	2.91111e-15
0.0648348 	47.1906 	-2.40543e-06 	2.9111e-15
0.0650891 	47.3286 	-2.40543e-06 	2.91109e-15
0.0653433 	47.4665 	-2.40543e-06 	2.91108e-15
0.0655976 	47.6044 	-2.40543e-06 	2.91107e-15
0.0658519 	47.7423 	-2.40543e-06 	2.91106e-15
0.0661061 	47.8803 	-2.40543e-06 	2.91105e-15
0.0663604 	48.0182 	-2.40543e-06 	2.91104e-15
0.0666146 	48.1561 	-2.40543e-06 	2.91104e-15
0.0668689 	48.2992 	-2.52113e-06 	2.98657e-15
0.0671231 	48.4453 	-2.52113e-06 	2.98656e-15
0.0673774 	48.5914 	-2.52113e-06 	2.98656e-15
0.0676316 	48.7375 	-2.52113e-06 	2.98655e-15
0.0678859 	48.8835 	-2.52113e-06 	2.98654e-15
0.0681401 	49.0296 	-2.52113e-06 	2.98653e-15
0.0683944 	49.1757 	-2.52113e-06 	2.98652e-15
0.0686486 	49.3218 	-2.52113e-06 	2.98651e-15
0.0689029 	49.4679 	-2.52113e-06 	2.9865e-15
0.0691572 	49.6139 	-2.52113e-06 	2.98649e-15
0.0694114 	49.7646 	-2.6361e-06 	3.06683e-15
0.0696657 	49.9191 	-2.6361e-06 	3.06682e-15
0.0699199 	50.0736 	-2.6361e-06 	3.06681e-15
0.0701742 	50.2281 	-2.6361e-06 	3.0668e-15
0.0704284 	50.3826 	-2.6361e-06 	3.06679e-15
0.0706827 	50.5371 	-2.6361e-06 	3.06678e-15
0.0709369 	50.6916 	-2.6361e-06 	3.06677e-15
0.0711912 	50.8461 	-2.6361e-06 	3.06676e-15
0.0714454 	51.0006 	-2.6361e-06 	3.06675e-15
0.0716997 	51.1551 	-2.6361e-06 	3.06674e-15
0.071954 	51.3136 	-2.73386e-06 	3.15126e-15
0.0722082 	51.4767 	-2.73386e-06 	3.15125e-15
0.0724625 	51.6399 	-2.73386e-06 	3.15124e-15
0.0727167 	51.803 	-2.73386e-06 	3.15123e-15
0.072971 	51.9661 	-2.73386e-06 	3.15122e-15
0.0732252 	52.1293 	-2.73386e-06 	3.15121e-15
0.0734795 	52.2924 	-2.73386e-06 	3.1512e-15
0.0737337 	52.4556 	-2.73386e-06 	3.15119e-15
0.073988 	52.6187 	-2.73386e-06 	3.15118e-15
0.0742422 	52.7819 	-2.73386e-06 	3.15117e-15
0.0744965 	52.9482 	-2.8003e-06 	3.23999e-15
0.0747508 	53.12 	-2.8003e-06 	3.23998e-15
0.075005 	53.2919 	-2.8003e-06 	3.23997e-15
0.0752593 	53.4637 	-2.8003e-06 	3.23996e-15
0.0755135 	53.6356 	-2.8003e-06 	3.23995e-15
0.0757678 	53.8074 	-2.8003e-06 	3.23994e-15
0.076022 	53.9793 	-2.8003e-06 	3.23993e-15
0.0762763 	54.1511 	-2.8003e-06 	3.23992e-15
0.0765305 	54.323 	-2.8003e-06 	3.2399e-15
0.0767848 	54.4949 	-2.8003e-06 	3.23989e-15
0.077039 	54.6691 	-2.864e-06 	3.28006e-15
0.0772933 	54.8495 	-2.864e-06 	3.28005e-15
0.0775475 	55.03 	-2.864e-06 	3.28004e-15
0.0778018 	55.2105 	-2.864e-06 	3.28003e-15
0.0780561 	55.3909 	-2.864e-06 	3.28002e-15
0.0783103 	55.5714 	-2.864e-06 	3.28e-15
0.0785646 	55.7519 	-2.864e-06 	3.27999e-15
0.0788188 	55.9324 	-2.864e-06 	3.27998e-15
0.0790731 	56.1128 	-2.864e-06 	3.27997e-15
0.0793273 	56.2933 	-2.864e-06 	3.27996e-15
0.0795816 	56.4753 	-2.91198e-06 	3.37179e-15
0.0798358 	56.6643 	-2.91198e-06 	3.37178e-15
0.0800901 	56.8532 	-2.91198e-06 	3.37177e-15
0.0803443 	57.0422 	-2.91198e-06 	3.37175e-15
0.0805986 	57.2312 	-2.91198e-06 	3.37174e-15
0.0808529 	57.4201 	-2.91198e-06 	3.37173e-15
0.0811071 	57.6091 	-2.91198e-06 	3.37172e-15
0.0813614 	57.7981 	-2.91198e-06 	3.37171e-15
0.0816156 	57.987 	-2.91198e-06 	3.37169e-15
0.0818699 	58.176 	-2.91198e-06 	3.37168e-15
0.0821241 	58.3657 	-2.91341e-06 	3.46763e-15
0.0823784 	58.563 	-2.91341e-06 	3.46761e-15
0.0826326 	58.7603 	-2.91341e-06 	3.4676e-15
0.0828869 	58.9576 	-2.91341e-06 	3.46759e-15
0.0831411 	59.1549 	-2.91341e-06 	3.46758e-15
0.0833954 	59.3522 	-2.91341e-06 	3.46756e-15
0.0836496 	59.5495 	-2.91341e-06 	3.46755e-15
0.0839039 	59.7469 	-2.91341e-06 	3.46754e-15
0.0841582 	59.9442 	-2.91341e-06 	3.46753e-15
0.0844124 	60.1415 	-2.91341e-06 	3.46751e-15
0.0846667 	60.3388 	-3.83836e-06 	7.49013e-18
0.0849209 	60.5441 	-2.92034e-06 	3.56566e-15
0.0851752 	60.7495 	-2.92034e-06 	3.56564e-15
0.0854294 	60.9548 	-2.92034e-06 	3.56563e-15
0.0856837 	61.1602 	-2.92034e-06 	3.56562e-15
0.0859379 	61.3655 	-2.92034e-06 	3.5656e-15
0.0861922 	61.5709 	-2.92034e-06 	3.56559e-15
0.0864464 	61.7762 	-2.92034e-06 	3.56558e-15
0.0867007 	61.9815 	-2.92034e-06 	3.56556e-15
0.086955 	62.1869 	-2.92034e-06 	3.56555e-15
0.0872092 	62.3922 	-2.92034e-06 	3.56554e-15
0.0874635 	62.6045 	-2.94433e-06 	3.66533e-15
0.0877177 	62.8174 	-2.94433e-06 	3.66531e-15
0.087972 	63.0303 	-2.94433e-06 	3.6653e-15
0.0882262 	63.2433 	-2.94433e-06 	3.66529e-15
0.0884805 	63.4562 	-2.94433e-06 	3.66527e-15
0.0887347 	63.6691 	-2.94433e-06 	3.66526e-15
0.088989 	63.8821 	-2.94433e-06 	3.66524e-15
0.0892432 	64.095 	-2.94433e-06 	3.66523e-15
0.0894975 	64.3079 	-2.94433e-06 	3.66522e-15
0.0897518 	64.5209 	-2.94433e-06 	3.6652e-15
0.090006 	64.7396 	-2.95266e-06 	3.76615e-15
0.0902603 	64.9596 	-2.95266e-06 	3.76614e-15
0.0905145 	65.1795 	-2.95266e-06 	3.76612e-15
0.0907688 	65.3995 	-2.95266e-06 	3.76611e-15
0.091023 	65.6195 	-2.95266e-06 	3.7661e-15
0.0912773 	65.8395 	-2.95266e-06 	3.76608e-15
0.0915315 	66.0595 	-2.95266e-06 	3.76607e-15
0.0917858 	66.2795 	-2.95266e-06 	3.76605e-15
0.09204 	66.4994 	-2.95266e-06 	3.76604e-15
0.0922943 	66.7194 	-2.95266e-06 	3.76603e-15
0.0925485 	66.944 	-2.92411e-06 	3.86733e-15
0.0928028 	67.1703 	-2.92411e-06 	3.86731e-15
0.0930571 	67.3965 	-2.92411e-06 	3.8673e-15
0.0933113 	67.6228 	-2.92411e-06 	3.86728e-15
0.0935656 	67.8491 	-2.92411e-06 	3.86727e-15
0.0938198 	68.0754 	-2.92411e-06 	3.86726e-15
0.0940741 	68.3016 	-2.92411e-06 	3.86724e-15
0.0943283 	68.5279 	-2.92411e-06 	3.86723e-15
0.0945826 	68.7542 	-2.92411e-06 	3.86721e-15
0.0948368 	68.9805 	-2.92411e-06 	3.8672e-15
0.0950911 	69.21 	-2.88503e-06 	3.91205e-15
0.0953453 	69.4415 	-2.88503e-06 	3.91204e-15
0.0955996 	69.673 	-2.88503e-06 	3.91202e-15
0.0958539 	69.9044 	-2.88503e-06 	3.91201e-15
0.0961081 	70.1359 	-2.88503e-06 	3.91199e-15
0.0963624 	70.3674 	-2.88503e-06 	3.91198e-15
0.0966166 	70.5988 	-2.88503e-06 	3.91196e-15
0.0968709 	70.8303 	-2.88503e-06 	3.91195e-15
0.0971251 	71.0618 	-2.88503e-06 	3.91193e-15
0.0973794 	71.2932 	-2.88503e-06 	3.91192e-15
0.0976336 	71.5267 	-2.81789e-06 	4.06682e-15
0.0978879 	71.7619 	-2.81789e-06 	4.0668e-15
0.0981421 	71.9971 	-2.81789e-06 	4.06679e-15
0.0983964 	72.2323 	-2.81789e-06 	4.06677e-15
0.0986507 	72.4675 	-2.81789e-06 	4.06676e-15
0.0989049 	72.7027 	-2.81789e-06 	4.06674e-15
0.0991592 	72.9379 	-2.81789e-06 	4.06673e-15
0.0994134 	73.1731 	-2.81789e-06 	4.06671e-15
0.0996677 	73.4083 	-2.81789e-06 	4.0667e-15
0.0999219 	73.6435 	-2.81789e-06 	4.06668e-15
0.100176 	73.8796 	-2.70551e-06 	4.21546e-15
0.10043 	74.1167 	-2.70551e-06 	4.21545e-15
0.100685 	74.3538 	-2.70551e-06 	4.21543e-15
0.100939 	74.591 	-2.70551e-06 	4.21541e-15
0.101193 	74.8281 	-2.70551e-06 	4.2154e-15
0.101447 	75.0652 	-2.70551e-06 	4.21538e-15
0.101702 	75.3024 	-2.70551e-06 	4.21537e-15
0.101956 	75.5395 	-2.70551e-06 	4.21535e-15
0.10221 	75.7766 	-2.70551e-06 	4.21534e-15
0.102464 	76.0138 	-2.70551e-06 	4.21532e-15
0.102719 	76.2508 	-2.52873e-06 	4.30715e-15
0.102973 	76.4878 	-2.52873e-06 	4.30714e-15
0.103227 	76.7247 	-2.52873e-06 	4.30712e-15
0.103481 	76.9616 	-2.52873e-06 	4.30711e-15
0.103736 	77.1985 	-2.52873e-06 	4.30709e-15
0.10399 	77.4355 	-2.52873e-06 	4.30708e-15
0.104244 	77.6724 	-2.52873e-06 	4.30706e-15
0.104498 	77.9093 	-2.52873e-06 	4.30704e-15
0.104753 	78.1462 	-2.52873e-06 	4.30703e-15
0.105007 	78.3832 	-2.52873e-06 	4.30701e-15
0.105261 	78.6194 	-2.33929e-06 	4.45453e-15
0.105516 	78.8537 	-2.33929e-06 	4.45451e-15
0.10577 	79.0879 	-2.33929e-06 	4.4545e-15
0.106024 	79.3222 	-2.33929e-06 	4.45448e-15
0.106278 	79.5565 	-2.33929e-06 	4.45447e-15
0.106533 	79.7908 	-2.33929e-06 	4.45445e-15
0.106787 	80.0251 	-2.33929e-06 	4.45444e-15
0.107041 	80.2594 	-2.33929e-06 	4.45442e-15
0.107295 	80.4937 	-2.33929e-06 	4.4544e-15
0.10755 	80.7279 	-2.33929e-06 	4.45439e-15
0.107804 	80.9613 	-2.05702e-06 	4.56631e-15
0.108058 	81.1904 	-2.05702e-06 	4.5663e-15
0.108312 	81.4195 	-2.05702e-06 	4.56628e-15
0.108567 	81.6485 	-2.05702e-06 	4.56627e-15
0.108821 	81.8776 	-2.05702e-06 	4.56625e-15
0.109075 	82.1067 	-2.05702e-06 	4.56624e-15
0.109329 	82.3358 	-2.05702e-06 	4.56622e-15
0.109584 	82.5649 	-2.05702e-06 	4.56621e-15
0.109838 	82.794 	-2.05702e-06 	4.56619e-15
0.110092 	83.0231 	-2.05702e-06 	4.56618e-15
0.110346 	83.2514 	-1.74131e-06 	4.63971e-15
0.110601 	83.4725 	-1.74131e-06 	4.6397e-15
0.110855 	83.6936 	-1.74131e-06 	4.63968e-15
0.111109 	83.9147 	-1.74131e-06 	4.63967e-15
0.111363 	84.1358 	-1.74131e-06 	4.63965e-15
0.111618 	84.3569 	-1.74131e-06 	4.63964e-15
0.111872 	84.5779 	-1.74131e-06 	4.63962e-15
0.112126 	84.799 	-1.74131e-06 	4.63961e-15
0.11238 	85.0201 	-1.74131e-06 	4.6396e-15
0.112635 	85.2412 	-1.74131e-06 	4.63958e-15
0.112889 	85.4623 	-2.85897e-06 	1.49991e-17
0.113143 	85.6722 	-1.40718e-06 	4.69493e-15
0.113397 	85.8822 	-1.40718e-06 	4.69491e-15
0.113652 	86.0921 	-1.40718e-06 	4.6949e-15
0.113906 	86.3021 	-1.40718e-06 	4.69489e-15
0.11416 	86.512 	-1.40718e-06 	4.69487e-15
0.114414 	86.722 	-1.40718e-06 	4.69486e-15
0.114669 	86.9319 	-1.40718e-06 	4.69485e-15
0.114923 	87.1419 	-1.40718e-06 	4.69483e-15
0.115177 	87.3518 	-1.40718e-06 	4.69482e-15
0.115431 	87.5618 	-1.40718e-06 	4.69481e-15
0.115686 	87.7586 	-1.00674e-06 	4.73951e-15
0.11594 	87.9541 	-1.00674e-06 	4.7395e-15
0.116194 	88.1497 	-1.00674e-06 	4.73949e-15
0.116448 	88.3452 	-1.00674e-06 	4.73948e-15
0.116703 	88.5407 	-1.00674e-06 	4.73946e-15
0.116957 	88.7362 	-1.00674e-06 	4.73945e-15
0.117211 	88.9318 	-1.00674e-06 	4.73944e-15
0.117465 	89.1273 	-1.00674e-06 	4.73943e-15
0.11772 	89.3228 	-1.00674e-06 	4.73941e-15
0.117974 	89.5183 	-1.00674e-06 	4.7394e-15
0.118228 	89.6993 	-6.00592e-07 	4.77091e-15
0.118482 	89.8769 	-6.00592e-07 	4.7709e-15
0.118737 	90.0546 	-6.00592e-07 	4.77089e-15
0.118991 	90.2322 	-6.00592e-07 	4.77088e-15
0.119245 	90.4099 	-6.00592e-07 	4.77087e-15
0.119499 	90.5876 	-6.00592e-07 	4.77086e-15
0.119754 	90.7652 	-6.00592e-07 	4.77085e-15
0.120008 	90.9429 	-6.00592e-07 	4.77083e-15
0.120262 	91.1205 	-6.00592e-07 	4.77082e-15
0.120517 	91.2982 	-6.00592e-07 	4.77081e-15
0.120771 	91.4604 	-1.90008e-07 	4.78922e-15
0.121025 	91.6169 	-1.90008e-07 	4.78921e-15
0.121279 	91.7733 	-1.90008e-07 	4.7892e-15
0.121534 	91.9298 	-1.90008e-07 	4.78919e-15
0.121788 	92.0862 	-1.90008e-07 	4.78918e-15
0.122042 	92.2426 	-1.90008e-07 	4.78917e-15
0.122296 	92.3991 	-1.90008e-07 	4.78916e-15
0.122551 	92.5555 	-1.90008e-07 	4.78915e-15
0.122805 	92.712 	-1.90008e-07 	4.78914e-15
0.123059 	92.8684 	-1.90008e-07 	4.78913e-15
0.123313 	93.0095 	2.2248e-07 	4.79455e-15
0.123568 	93.1417 	2.2248e-07 	4.79454e-15
0.123822 	93.274 	2.2248e-07 	4.79453e-15
0.124076 	93.4063 	2.2248e-07 	4.79452e-15
0.12433 	93.5386 	2.2248e-07 	4.79451e-15
0.124585 	93.6708 	2.2248e-07 	4.79451e-15
0.124839 	93.8031 	2.2248e-07 	4.7945e-15
0.125093 	93.9354 	2.2248e-07 	4.79449e-15
0.125347 	94.0676 	2.2248e-07 	4.79448e-15
0.125602 	94.1999 	2.2248e-07 	4.79447e-15
0.125856 	94.3178 	5.96303e-07 	4.78736e-15
0.12611 	94.4236 	5.96303e-07 	4.78736e-15
0.126364 	94.5294 	5.96303e-07 	4.78735e-15
0.126619 	94.6353 	5.96303e-07 	4.78734e-15
0.126873 	94.7411 	5.96303e-07 	4.78733e-15
0.127127 	94.8469 	5.96303e-07 	4.78733e-15
0.127381 	94.9528 	5.96303e-07 	4.78732e-15
0.127636 	95.0586 	5.96303e-07 	4.78731e-15
0.12789 	95.1645 	5.96303e-07 	4.78731e-15
0.128144 	95.2703 	5.96303e-07 	4.7873e-15
0.128398 	95.3636 	9.246e-07 	4.76799e-15
0.128653 	95.4417 	9.246e-07 	4.76798e-15
0.128907 	95.5199 	9.246e-07 	4.76798e-15
0.129161 	95.5981 	9.246e-07 	4.76797e-15
0.129415 	95.6763 	9.246e-07 	4.76797e-15
0.12967 	95.7545 	9.246e-07 	4.76796e-15
0.129924 	95.8326 	9.246e-07 	4.76796e-15
0.130178 	95.9108 	9.246e-07 	4.76795e-15
0.130432 	95.989 	9.246e-07 	4.76795e-15
0.130687 	96.0672 	9.246e-07 	4.76794e-15
0.130941 	96.1353 	1.20327e-06 	4.73878e-15
0.131195 	96.1858 	1.20327e-06 	4.73878e-15
0.131449 	96.2362 	1.20327e-06 	4.73877e-15
0.131704 	96.2867 	1.20327e-06 	4.73877e-15
0.131958 	96.3372 	1.20327e-06 	4.73877e-15
0.132212 	96.3876 	1.20327e-06 	4.73876e-15
0.132466 	96.4381 	1.20327e-06 	4.73876e-15
0.132721 	96.4886 	1.20327e-06 	4.73876e-15
0.132975 	96.539 	1.20327e-06 	4.73875e-15
0.133229 	96.5895 	1.20327e-06 	4.73875e-15
0.133483 	96.6327 	1.42341e-06 	4.70225e-15
0.133738 	96.6564 	1.42341e-06 	4.70225e-15
0.133992 	96.6801 	1.42341e-06 	4.70224e-15
0.134246 	96.7038 	1.42341e-06 	4.70224e-15
0.134501 	96.7276 	1.42341e-06 	4.70224e-15
0.134755 	96.7513 	1.42341e-06 	4.70224e-15
0.135009 	96.775 	1.42341e-06 	4.70224e-15
0.135263 	96.7987 	1.42341e-06 	4.70224e-15
0.135518 	96.8224 	1.42341e-06 	4.70224e-15
0.135772 	96.8462 	1.42341e-06 	4.70223e-15
0.136026 	96.8653 	1.62117e-06 	4.7263e-15
0.13628 	96.864 	1.62117e-06 	4.7263e-15
0.136535 	96.8627 	1.62117e-06 	4.7263e-15
0.136789 	96.8614 	1.62117e-06 	4.7263e-15
0.137043 	96.8601 	1.62117e-06 	4.7263e-15
0.137297 	96.8588 	1.62117e-06 	4.7263e-15
0.137552 	96.8575 	1.62117e-06 	4.7263e-15
0.137806 	96.8562 	1.62117e-06 	4.7263e-15
0.13806 	96.8548 	1.62117e-06 	4.7263e-15
0.138314 	96.8535 	1.62117e-06 	4.7263e-15
0.138569 	96.8501 	1.77707e-06 	4.62279e-15
0.138823 	96.8258 	1.77707e-06 	4.62279e-15
0.139077 	96.8015 	1.77707e-06 	4.62279e-15
0.139331 	96.7772 	1.77707e-06 	4.62279e-15
0.139586 	96.7529 	1.77707e-06 	4.6228e-15
0.13984 	96.7286 	1.77707e-06 	4.6228e-15
0.140094 	96.7043 	1.77707e-06 	4.6228e-15
0.140348 	96.68 	1.77707e-06 	4.6228e-15
0.140603 	96.6557 	1.77707e-06 	4.6228e-15
0.140857 	96.6314 	1.77707e-06 	4.6228e-15
0.141111 	96.6071 	9.63279e-07 	9.06579e-18
0.141365 	96.5619 	1.90226e-06 	4.56282e-15
0.14162 	96.5168 	1.90226e-06 	4.56283e-15
0.141874 	96.4716 	1.90226e-06 	4.56283e-15
0.142128 	96.4265 	1.90226e-06 	4.56283e-15
0.142382 	96.3813 	1.90226e-06 	4.56283e-15
0.142637 	96.3362 	1.90226e-06 	4.56284e-15
0.142891 	96.291 	1.90226e-06 	4.56284e-15
0.143145 	96.2459 	1.90226e-06 	4.56284e-15
0.143399 	96.2007 	1.90226e-06 	4.56285e-15
0.143654 	96.1556 	1.90226e-06 	4.56285e-15
0.143908 	96.0934 	2.0194e-06 	4.44454e-15
0.144162 	96.0296 	2.0194e-06 	4.44454e-15
0.144416 	95.9657 	2.0194e-06 	4.44454e-15
0.144671 	95.9019 	2.0194e-06 	4.44455e-15
0.144925 	95.838 	2.0194e-06 	4.44455e-15
0.145179 	95.7742 	2.0194e-06 	4.44456e-15
0.145433 	95.7104 	2.0194e-06 	4.44456e-15
0.145688 	95.6465 	2.0194e-06 	4.44457e-15
0.145942 	95.5827 	2.0194e-06 	4.44457e-15
0.146196 	95.5188 	2.0194e-06 	4.44457e-15
0.14645 	95.4413 	2.12529e-06 	4.34614e-15
0.146705 	95.3608 	2.12529e-06 	4.34615e-15
0.146959 	95.2803 	2.12529e-06 	4.34615e-15
0.147213 	95.1998 	2.12529e-06 	4.34616e-15
0.147467 	95.1193 	2.12529e-06 	4.34616e-15
0.147722 	95.0387 	2.12529e-06 	4.34617e-15
0.147976 	94.9582 	2.12529e-06 	4.34617e-15
0.14823 	94.8777 	2.12529e-06 	4.34618e-15
0.148484 	94.7972 	2.12529e-06 	4.34618e-15
0.148739 	94.7167 	2.12529e-06 	4.34619e-15
0.148993 	94.6254 	2.22608e-06 	4.28152e-15
0.149247 	94.5301 	2.22608e-06 	4.28152e-15
0.149502 	94.4347 	2.22608e-06 	4.28153e-15
0.149756 	94.3394 	2.22608e-06 	4.28154e-15
0.15001 	94.2441 	2.22608e-06 	4.28154e-15
0.150264 	94.1488 	2.22608e-06 	4.28155e-15
0.150519 	94.0535 	2.22608e-06 	4.28155e-15
0.150773 	93.9581 	2.22608e-06 	4.28156e-15
0.151027 	93.8628 	2.22608e-06 	4.28157e-15
0.151281 	93.7675 	2.22608e-06 	4.28157e-15
0.151536 	93.6639 	2.32176e-06 	4.22034e-15
0.15179 	93.5556 	2.32176e-06 	4.22035e-15
0.152044 	93.4472 	2.32176e-06 	4.22036e-15
0.152298 	93.3389 	2.32176e-06 	4.22037e-15
0.152553 	93.2306 	2.32176e-06 	4.22037e-15
0.152807 	93.1223 	2.32176e-06 	4.22038e-15
0.153061 	93.0139 	2.32176e-06 	4.22039e-15
0.153315 	92.9056 	2.32176e-06 	4.22039e-15
0.15357 	92.7973 	2.32176e-06 	4.2204e-15
0.153824 	92.6889 	2.32176e-06 	4.22041e-15
0.154078 	92.5745 	2.40906e-06 	4.1573e-15
0.154332 	92.4549 	2.40906e-06 	4.15731e-15
0.154587 	92.3354 	2.40906e-06 	4.15732e-15
0.154841 	92.2158 	2.40906e-06 	4.15732e-15
0.155095 	92.0962 	2.40906e-06 	4.15733e-15
0.155349 	91.9767 	2.40906e-06 	4.15734e-15
0.155604 	91.8571 	2.40906e-06 	4.15735e-15
0.155858 	91.7376 	2.40906e-06 	4.15735e-15
0.156112 	91.618 	2.40906e-06 	4.15736e-15
0.156366 	91.4985 	2.40906e-06 	4.15737e-15
0.156621 	91.3746 	2.48465e-06 	4.09232e-15
0.156875 	91.2456 	2.48465e-06 	4.09233e-15
0.157129 	91.1167 	2.48465e-06 	4.09233e-15
0.157383 	90.9877 	2.48465e-06 	4.09234e-15
0.157638 	90.8587 	2.48465e-06 	4.09235e-15
0.157892 	90.7297 	2.48465e-06 	4.09236e-15
0.158146 	90.6008 	2.48465e-06 	4.09237e-15
0.1584 	90.4718 	2.48465e-06 	4.09238e-15
0.158655 	90.3428 	2.48465e-06 	4.09238e-15
0.158909 	90.2139 	2.48465e-06 	4.09239e-15
0.159163 	90.0821 	2.54638e-06 	4.07921e-15
0.159417 	89.9456 	2.54638e-06 	4.07922e-15
0.159672 	89.8091 	2.54638e-06 	4.07923e-15
0.159926 	89.6725 	2.54638e-06 	4.07924e-15
0.16018 	89.536 	2.54638e-06 	4.07925e-15
0.160434 	89.3995 	2.54638e-06 	4.07926e-15
0.160689 	89.2629 	2.54638e-06 	4.07927e-15
0.160943 	89.1264 	2.54638e-06 	4.07928e-15
0.161197 	88.9899 	2.54638e-06 	4.07929e-15
0.161451 	88.8533 	2.54638e-06 	4.07929e-15
0.161706 	88.7152 	2.5936e-06 	4.06211e-15
0.16196 	88.573 	2.5936e-06 	4.06212e-15
0.162214 	88.4307 	2.5936e-06 	4.06213e-15
0.162468 	88.2885 	2.5936e-06 	4.06214e-15
0.162723 	88.1462 	2.5936e-06 	4.06215e-15
0.162977 	88.004 	2.5936e-06 	4.06216e-15
0.163231 	87.8618 	2.5936e-06 	4.06217e-15
0.163485 	87.7195 	2.5936e-06 	4.06217e-15
0.16374 	87.5773 	2.5936e-06 	4.06218e-15
0.163994 	87.435 	2.5936e-06 	4.06219e-15
0.164248 	87.2921 	2.62669e-06 	3.98765e-15
0.164503 	87.1459 	2.62669e-06 	3.98766e-15
0.164757 	86.9997 	2.62669e-06 	3.98767e-15
0.165011 	86.8535 	2.62669e-06 	3.98768e-15
0.165265 	86.7074 	2.62669e-06 	3.98769e-15
0.16552 	86.5612 	2.62669e-06 	3.9877e-15
0.165774 	86.415 	2.62669e-06 	3.98771e-15
0.166028 	86.2688 	2.62669e-06 	3.98772e-15
0.166282 	86.1227 	2.62669e-06 	3.98773e-15
0.166537 	85.9765 	2.62669e-06 	3.98774e-15
0.166791 	85.8301 	2.64652e-06 	3.91325e-15
0.167045 	85.6817 	2.64652e-06 	3.91326e-15
0.167299 	85.5332 	2.64652e-06 	3.91327e-15
0.167554 	85.3848 	2.64652e-06 	3.91328e-15
0.167808 	85.2363 	2.64652e-06 	3.91329e-15
0.168062 	85.0879 	2.64652e-06 	3.9133e-15
0.168316 	84.9394 	2.64652e-06 	3.91331e-15
0.168571 	84.791 	2.64652e-06 	3.91332e-15
0.168825 	84.6425 	2.64652e-06 	3.91333e-15
0.169079 	84.4941 	2.64652e-06 	3.91334e-15
0.169333 	84.3456 	2.00631e-06 	4.14367e-18
0.169588 	84.1964 	2.65383e-06 	3.87853e-15