0 	31.8618 	-0.0273148 	2.26743e-13
0.000254254 	31.8618 	-0.0273174 	3.06133e-11
0.000508509 	31.8619 	-0.0273199 	6.09998e-11
0.000762763 	31.8651 	-0.0274849 	-7.15553e-06
0.00101702 	31.8709 	-0.0277728 	-1.97235e-05
0.00127127 	31.8766 	-0.0280606 	-3.22915e-05
0.00152553 	31.8824 	-0.0283485 	-2.08893e-05
0.00177978 	31.8881 	-0.0286363 	-8.33143e-06
0.00203403 	31.8958 	-0.0289555 	6.36134e-11
0.00228829 	31.9073 	-0.0293366 	3.31994e-11
0.00254254 	31.9188 	-0.0297177 	2.78538e-12
0.0027968 	31.9303 	-0.0294844 	2.76255e-11
0.00305105 	31.9419 	-0.0291891 	5.80362e-11
0.00330531 	31.9547 	-0.0291357 	-4.30226e-06
0.00355956 	31.9689 	-0.0293395 	-1.31817e-05
0.00381381 	31.983 	-0.0295432 	-2.20612e-05
0.00406807 	31.9972 	-0.029747 	-1.56433e-05
0.00432232 	32.0113 	-0.0299508 	-6.77999e-06
0.00457658 	32.0261 	-0.0302397 	6.63511e-11
0.00483083 	32.0428 	-0.0308056 	3.59588e-11
0.00508509 	32.0596 	-0.0313715 	5.56651e-12
0.00533934 	32.0765 	-0.0313129 	2.53121e-11
0.00559359 	32.0934 	-0.0311142 	5.63e-11
0.00584785 	32.1104 	-0.0311704 	-7.5911e-06
0.0061021 	32.1277 	-0.0315986 	-2.62683e-05
0.00635636 	32.1449 	-0.0320268 	-4.49455e-05
0.00661061 	32.1621 	-0.0324551 	-3.48927e-05
0.00686486 	32.1794 	-0.0328833 	-1.6272e-05
0.00711912 	32.1966 	-0.0333543 	7.04171e-11
0.00737337 	32.2142 	-0.034122 	3.94605e-11
0.00762763 	32.2318 	-0.0348897 	8.50395e-12
0.00788188 	32.2495 	-0.0350032 	2.2465e-11
0.00813614 	32.2674 	-0.0348689 	5.34387e-11
0.00839039 	32.2853 	-0.0349885 	-9.10599e-06
0.00864464 	32.3036 	-0.0356095 	-3.62031e-05
0.0088989 	32.3219 	-0.0362306 	-6.33001e-05
0.00915315 	32.3401 	-0.0368516 	-5.37098e-05
0.00940741 	32.3584 	-0.0374727 	-2.67273e-05
0.00966166 	32.3767 	-0.0380969 	7.31872e-11
0.00991592 	32.3954 	-0.0390562 	4.22572e-11
0.0101702 	32.4141 	-0.0400155 	1.13272e-11
0.0104244 	32.4331 	-0.0402898 	2.01108e-11
0.0106787 	32.4522 	-0.0401682 	5.18427e-11
0.0109329 	32.4715 	-0.0402893 	-9.13812e-06
0.0111872 	32.4916 	-0.0410554 	-4.25648e-05
0.0114414 	32.5118 	-0.0418215 	-7.59914e-05
0.0116957 	32.5319 	-0.0425876 	-7.03144e-05
0.0119499 	32.552 	-0.0433537 	-3.70692e-05
0.0122042 	32.5721 	-0.0441198 	-3.82402e-06
0.0124585 	32.5931 	-0.0452154 	4.61714e-11
0.0127127 	32.6143 	-0.0463539 	1.44971e-11
0.012967 	32.6357 	-0.0467925 	1.75628e-11
0.0132212 	32.6573 	-0.0466405 	4.99484e-11
0.0134755 	32.6792 	-0.046712 	-8.30003e-06
0.0137297 	32.7022 	-0.047583 	-4.62958e-05
0.013984 	32.7252 	-0.048454 	-8.42916e-05
0.0142382 	32.7483 	-0.049325 	-8.48248e-05
0.0144925 	32.7713 	-0.050196 	-4.70807e-05
0.0147467 	32.7944 	-0.051067 	-9.33668e-06
0.015001 	32.8185 	-0.0522661 	5.00576e-11
0.0152553 	32.843 	-0.053573 	1.77437e-11
0.0155095 	32.8678 	-0.0541942 	1.45738e-11
0.0157638 	32.8927 	-0.0539803 	4.6896e-11
0.016018 	32.918 	-0.0539652 	-7.07001e-06
0.0162723 	32.9446 	-0.0549118 	-4.83453e-05
0.0165265 	32.9713 	-0.0558584 	-8.96206e-05
0.0167808 	32.998 	-0.056805 	-9.77801e-05
0.017035 	33.0246 	-0.0577517 	-5.68274e-05
0.0172893 	33.0513 	-0.0586983 	-1.58746e-05
0.0175435 	33.079 	-0.0599638 	5.28846e-11
0.0177978 	33.1073 	-0.0614311 	2.06468e-11
0.0180521 	33.1358 	-0.0622638 	1.16412e-11
0.0183063 	33.1647 	-0.0619663 	4.40188e-11
0.0185606 	33.1937 	-0.0618403 	-5.7653e-06
0.0188148 	33.2244 	-0.0628431 	-4.94583e-05
0.0190691 	33.255 	-0.0638458 	-9.31513e-05
0.0193233 	33.2857 	-0.0648486 	-0.000109803
0.0195776 	33.3163 	-0.0658513 	-6.65037e-05
0.0198318 	33.347 	-0.0668541 	-2.32039e-05
0.0200861 	33.3784 	-0.0681447 	5.59002e-11
0.0203403 	33.4109 	-0.0697677 	2.36201e-11
0.0205946 	33.4435 	-0.0708492 	8.70906e-12
0.0208488 	33.4764 	-0.0704536 	4.1172e-11
0.0211031 	33.5096 	-0.070203 	-4.58115e-06
0.0213574 	33.5445 	-0.0712502 	-5.01733e-05
0.0216116 	33.5793 	-0.0722975 	-9.57654e-05
0.0218659 	33.6142 	-0.0733448 	-0.000121495
0.0221201 	33.6491 	-0.074392 	-7.63666e-05
0.0223744 	33.6839 	-0.0754393 	-3.12385e-05
0.0226286 	33.7194 	-0.0767112 	5.89753e-11
0.0228829 	33.7561 	-0.0784884 	2.66229e-11
0.0231371 	33.793 	-0.0798617 	5.77062e-12
0.0233914 	33.8303 	-0.0793581 	3.83553e-11
0.0236456 	33.8677 	-0.0789769 	-3.63394e-06
0.0238999 	33.907 	-0.080063 	-5.08646e-05
0.0241542 	33.9463 	-0.081149 	-9.80952e-05
0.0244084 	33.9856 	-0.0822351 	-0.000133393
0.0246627 	34.0248 	-0.0833212 	-8.66982e-05
0.0249169 	34.0641 	-0.0844072 	-4.00035e-05
0.0251712 	34.1037 	-0.0856147 	6.21296e-11
0.0254254 	34.1449 	-0.0875478 	2.96687e-11
0.0256797 	34.1862 	-0.0892611 	2.81563e-12
0.0259339 	34.228 	-0.0886382 	3.55501e-11
0.0261882 	34.2699 	-0.0881225 	-2.99845e-06
0.0264424 	34.3138 	-0.089247 	-5.18389e-05
0.0266967 	34.3576 	-0.0903715 	-0.000100679
0.026951 	34.4015 	-0.091496 	-0.000146109
0.0272052 	34.4454 	-0.0926205 	-9.7879e-05
0.0274595 	34.4893 	-0.093745 	-4.96494e-05
0.0277137 	34.5331 	-0.0948695 	-1.41985e-06
0.027968 	34.579 	-0.0969403 	3.2759e-11
0.0282222 	34.6249 	-0.0990397 	1.61592e-13
0.0284765 	34.6713 	-0.0982794 	3.27427e-11
0.0287307 	34.7179 	-0.0976093 	-2.72361e-06
0.028985 	34.7666 	-0.0987744 	-5.3246e-05
0.0292392 	34.8152 	-0.0999395 	-0.000103768
0.0294935 	34.8638 	-0.101105 	-0.000154291
0.0297477 	34.9125 	-0.10227 	-0.000110156
0.030002 	34.9611 	-0.103435 	-6.03231e-05
0.0302563 	35.0098 	-0.1046 	-1.04908e-05
0.0305105 	35.0601 	-0.106661 	3.5894e-11
0.0307648 	35.1108 	-0.108961 	3.1385e-12
0.031019 	35.1621 	-0.108283 	3.05077e-11
0.0312733 	35.2135 	-0.10741 	-2.84667e-06
0.0315275 	35.2671 	-0.108616 	-5.50186e-05
0.0317818 	35.3207 	-0.109822 	-0.00010719
0.032036 	35.3743 	-0.111028 	-0.000159362
0.0322903 	35.4279 	-0.112234 	-0.000123363
0.0325445 	35.4815 	-0.11344 	-7.19627e-05
0.0327988 	35.5351 	-0.114646 	-2.05627e-05
0.0330531 	35.59 	-0.116668 	3.98367e-11
0.0333073 	35.6457 	-0.119234 	6.26316e-12
0.0335616 	35.702 	-0.118701 	2.70637e-11
0.0338158 	35.7585 	-0.117615 	-3.40557e-06
0.0340701 	35.8172 	-0.118859 	-5.70929e-05
0.0343243 	35.876 	-0.120104 	-0.00011078
0.0345786 	35.9347 	-0.121349 	-0.000164468
0.0348328 	35.9934 	-0.122593 	-0.000137266
0.0350871 	36.0521 	-0.123838 	-8.44337e-05
0.0353413 	36.1108 	-0.125082 	-3.1601e-05
0.0355956 	36.1705 	-0.126976 	4.22647e-11
0.0358498 	36.2314 	-0.129835 	9.1718e-12
0.0361041 	36.2929 	-0.129538 	2.47463e-11
0.0363584 	36.3547 	-0.128254 	-4.43858e-06
0.0366126 	36.4187 	-0.129535 	-5.95091e-05
0.0368669 	36.4828 	-0.130815 	-0.00011458
0.0371211 	36.5468 	-0.132096 	-0.00016965
0.0373754 	36.6109 	-0.133377 	-0.000151835
0.0376296 	36.6749 	-0.134657 	-9.77023e-05
0.0378839 	36.739 	-0.135938 	-4.35693e-05
0.0381381 	36.8035 	-0.137586 	4.65524e-11
0.0383924 	36.8699 	-0.140749 	1.25131e-11
0.0386466 	36.9367 	-0.140799 	2.22716e-11
0.0389009 	37.004 	-0.139367 	-5.98237e-06
0.0391552 	37.0736 	-0.140682 	-6.23463e-05
0.0394094 	37.1432 	-0.141997 	-0.00011871
0.0396637 	37.2128 	-0.143312 	-0.000175074
0.0399179 	37.2823 	-0.144627 	-0.000167155
0.0401722 	37.3519 	-0.145942 	-0.000111812
0.0404264 	37.4215 	-0.147257 	-5.64687e-05
0.0406807 	37.4911 	-0.148572 	-1.1258e-06
0.0409349 	37.5631 	-0.151977 	1.60294e-11
0.0411892 	37.6354 	-0.152471 	1.95884e-11
0.0414434 	37.7085 	-0.15094 	-8.07425e-06
0.0416977 	37.7839 	-0.152289 	-6.56991e-05
0.041952 	37.8592 	-0.153638 	-0.000123324
0.0422062 	37.9345 	-0.154986 	-0.000180949
0.0424605 	38.0099 	-0.156335 	-0.000183388
0.0427147 	38.0852 	-0.157684 	-0.000126868
0.042969 	38.1605 	-0.159033 	-7.0349e-05
0.0432232 	38.2359 	-0.160382 	-1.38296e-05
0.0434775 	38.3131 	-0.163525 	1.96791e-11
0.0437317 	38.3913 	-0.164555 	1.64875e-11
0.043986 	38.4704 	-0.162976 	-1.07495e-05
0.0442402 	38.5517 	-0.164358 	-6.96181e-05
0.0444945 	38.633 	-0.165741 	-0.000128487
0.0447487 	38.7143 	-0.167124 	-0.000187355
0.045003 	38.7956 	-0.168506 	-0.000200601
0.0452573 	38.8769 	-0.169889 	-0.000142923
0.0455115 	38.9582 	-0.171271 	-8.52451e-05
0.0457658 	39.0395 	-0.172654 	-2.75672e-05
0.04602 	39.1222 	-0.175402 	2.31244e-11
0.0462743 	39.2064 	-0.177057 	1.31506e-11
0.0465285 	39.2918 	-0.175487 	-1.40311e-05
0.0467828 	39.3793 	-0.176903 	-7.40798e-05
0.047037 	39.4668 	-0.178318 	-0.000134129
0.0472913 	39.5543 	-0.179733 	-0.000194177
0.0475455 	39.6419 	-0.181148 	-0.000218648
0.0477998 	39.7294 	-0.182563 	-0.000159875
0.0480541 	39.8169 	-0.183978 	-0.000101102
0.0483083 	39.9044 	-0.185393 	-4.2329e-05
0.0485626 	39.9927 	-0.187607 	2.62668e-11
0.0488168 	40.0832 	-0.189976 	9.77556e-12
0.0490711 	40.1751 	-0.188478 	-1.79267e-05
0.0493253 	40.2691 	-0.189923 	-7.90404e-05
0.0495796 	40.3631 	-0.191369 	-0.000140154
0.0498338 	40.457 	-0.192814 	-0.000201268
0.0500881 	40.551 	-0.19426 	-0.000237318
0.0503423 	40.645 	-0.195705 	-0.000177563
0.0505966 	40.739 	-0.19715 	-0.000117808
0.0508509 	40.833 	-0.198596 	-5.8053e-05
0.0511051 	40.927 	-0.200129 	2.91672e-11
0.0513594 	41.024 	-0.2033 	6.63312e-12
0.0516136 	41.1227 	-0.201941 	-2.24265e-05
0.0518679 	41.2234 	-0.203413 	-8.4439e-05
0.0521221 	41.3241 	-0.204885 	-0.000146451
0.0523764 	41.4248 	-0.206357 	-0.000208464
0.0526306 	41.5255 	-0.207829 	-0.000256346
0.0528849 	41.6262 	-0.209302 	-0.000195771
0.0531391 	41.7269 	-0.210774 	-0.000135196
0.0533934 	41.8276 	-0.212246 	-7.46214e-05
0.0536476 	41.9283 	-0.213718 	-1.40467e-05
0.0539019 	42.0313 	-0.217007 	3.35915e-12
0.0541562 	42.1372 	-0.215858 	-2.74931e-05
0.0544104 	42.2448 	-0.217352 	-9.01771e-05
0.0546647 	42.3525 	-0.218846 	-0.000152861
0.0549189 	42.4602 	-0.220341 	-0.000215545
0.0551732 	42.5678 	-0.221835 	-0.000275362
0.0554274 	42.6755 	-0.223329 	-0.000214188
0.0556817 	42.7831 	-0.224823 	-0.000153015
0.0559359 	42.8908 	-0.226318 	-9.18411e-05
0.0561902 	42.9984 	-0.227812 	-3.06675e-05
0.0564444 	43.1076 	-0.231062 	1.22842e-13
0.0566987 	43.2209 	-0.230199 	-3.30473e-05
0.056953 	43.3358 	-0.231709 	-9.60947e-05
0.0572072 	43.4507 	-0.233218 	-0.000159142
0.0574615 	43.5656 	-0.234728 	-0.00022219
0.0577157 	43.6805 	-0.236237 	-0.000285237
0.05797 	43.7953 	-0.237747 	-0.000232355
0.0582242 	43.9102 	-0.239257 	-0.000170881
0.0584785 	44.0251 	-0.240766 	-0.000109408
0.0587327 	44.14 	-0.242276 	-4.79342e-05
0.058987 	44.2555 	-0.244629 	3.11817e-12
0.0592412 	44.3765 	-0.244917 	-3.90416e-05
0.0594955 	44.4989 	-0.246436 	-0.000102187
0.0597497 	44.6212 	-0.247956 	-0.000165332
0.060004 	44.7436 	-0.249475 	-0.000228478
0.0602583 	44.8659 	-0.250995 	-0.000291623
0.0605125 	44.9883 	-0.252514 	-0.000250197
0.0607668 	45.1106 	-0.254034 	-0.000188679
0.061021 	45.233 	-0.255553 	-0.000127162
0.0612753 	45.3553 	-0.257073 	-6.56443e-05
0.0615295 	45.4777 	-0.258592 	-4.12689e-06
0.0617838 	45.6064 	-0.259977 	-4.54013e-05
0.062038 	45.7364 	-0.261501 	-0.000108385
0.0622923 	45.8665 	-0.263025 	-0.000171369
0.0625465 	45.9965 	-0.264549 	-0.000234353
0.0628008 	46.1266 	-0.266072 	-0.000297336
0.0630551 	46.2566 	-0.2675 	-0.000266434
0.0633093 	46.3865 	-0.268843 	-0.000203093
0.0635636 	46.5165 	-0.270186 	-0.000139753
0.0638178 	46.6464 	-0.27153 	-7.64121e-05
0.0640721 	46.7764 	-0.272873 	-1.30714e-05
0.0643263 	46.9121 	-0.27428 	-4.08964e-05
0.0645806 	47.05 	-0.275607 	-0.000101328
0.0648348 	47.1879 	-0.276933 	-0.00016176
0.0650891 	47.3257 	-0.27826 	-0.000222192
0.0653433 	47.4636 	-0.279586 	-0.000282623
0.0655976 	47.6014 	-0.280913 	-0.000261936
0.0658519 	47.7393 	-0.282239 	-0.000199123
0.0661061 	47.8772 	-0.283565 	-0.00013631
0.0663604 	48.015 	-0.284892 	-7.34976e-05
0.0666146 	48.1529 	-0.286218 	-1.06848e-05
0.0668689 	48.296 	-0.287786 	-2.79035e-05
0.0671231 	48.442 	-0.289117 	-8.87008e-05
0.0673774 	48.5881 	-0.290448 	-0.000149498
0.0676316 	48.7341 	-0.29178 	-0.000210295
0.0678859 	48.8801 	-0.293111 	-0.000271093
0.0681401 	49.0261 	-0.294442 	-0.000261164
0.0683944 	49.1722 	-0.295773 	-0.000197915
0.0686486 	49.3182 	-0.297104 	-0.000134666
0.0689029 	49.4642 	-0.298436 	-7.14164e-05
0.0691572 	49.6102 	-0.299767 	-8.16718e-06
0.0694114 	49.7609 	-0.301557 	-1.44086e-05
0.0696657 	49.9154 	-0.30289 	-7.5363e-05
0.0699199 	50.0698 	-0.304223 	-0.000136317
0.0701742 	50.2243 	-0.305556 	-0.000197272
0.0704284 	50.3787 	-0.306889 	-0.000258226
0.0706827 	50.5332 	-0.308223 	-0.000259158
0.0709369 	50.6876 	-0.309556 	-0.000195696
0.0711912 	50.8421 	-0.310889 	-0.000132234
0.0714454 	50.9966 	-0.312222 	-6.87723e-05
0.0716997 	51.151 	-0.313555 	-5.31032e-06
0.071954 	51.3095 	-0.315599 	-5.38501e-07
0.0722082 	51.4726 	-0.316869 	-5.87057e-05
0.0724625 	51.6357 	-0.318138 	-0.000116873
0.0727167 	51.7988 	-0.319408 	-0.00017504
0.072971 	51.9619 	-0.320677 	-0.000233207
0.0732252 	52.125 	-0.321947 	-0.000244461
0.0734795 	52.2881 	-0.323216 	-0.000183862
0.0737337 	52.4512 	-0.324486 	-0.000123263
0.073988 	52.6143 	-0.325755 	-6.26635e-05
0.0742422 	52.7774 	-0.327025 	-2.06428e-06
0.0744965 	52.9446 	-0.329125 	6.37555e-05
0.0747508 	53.1156 	-0.330547 	-4.40919e-05
0.075005 	53.2874 	-0.331786 	-0.000100773
0.0752593 	53.4592 	-0.333024 	-0.000157453
0.0755135 	53.631 	-0.334262 	-0.000214134
0.0757678 	53.8028 	-0.335501 	-0.000235177
0.076022 	53.9746 	-0.336739 	-0.000176098
0.0762763 	54.1464 	-0.337978 	-0.000117018
0.0765305 	54.3181 	-0.339216 	-5.79378e-05
0.0767848 	54.49 	-0.340457 	6.07302e-06
0.077039 	54.6658 	-0.342314 	0.000139177
0.0772933 	54.8447 	-0.344361 	-3.01943e-05
0.0775475 	55.0251 	-0.345582 	-8.58303e-05
0.0778018 	55.2055 	-0.346804 	-0.000141466
0.0780561 	55.3859 	-0.348025 	-0.000197102
0.0783103 	55.5664 	-0.349247 	-0.00022763
0.0785646 	55.7468 	-0.350469 	-0.00016962
0.0788188 	55.9272 	-0.35169 	-0.000111609
0.0790731 	56.1076 	-0.352912 	-5.35988e-05
0.0793273 	56.2883 	-0.354057 	2.5596e-05
0.0795816 	56.4726 	-0.35506 	0.000226841
0.0798358 	56.6592 	-0.358184 	-1.46592e-05
0.0800901 	56.8481 	-0.359242 	-6.28525e-05
0.0803443 	57.037 	-0.3603 	-0.000111046
0.0805986 	57.2259 	-0.361358 	-0.000159239
0.0808529 	57.4148 	-0.362415 	-0.00019422
0.0811071 	57.6038 	-0.363473 	-0.000143962
0.0813614 	57.7927 	-0.364531 	-9.37039e-05
0.0816156 	57.9816 	-0.365588 	-4.3446e-05
0.0818699 	58.171 	-0.366342 	4.78217e-05
0.0821241 	58.3636 	-0.365862 	0.000320246
0.0823784 	58.5577 	-0.370528 	-2.51506e-06
0.0826326 	58.755 	-0.371405 	-4.25179e-05
0.0828869 	58.9522 	-0.372283 	-8.25208e-05
0.0831411 	59.1494 	-0.37316 	-0.000122524
0.0833954 	59.3467 	-0.374037 	-0.000158635
0.0836496 	59.5439 	-0.374914 	-0.00011692
0.0839039 	59.7411 	-0.375792 	-7.52053e-05
0.0841582 	59.9384 	-0.376669 	-3.34906e-05
0.0844124 	60.1363 	-0.376867 	7.18016e-05
0.0846667 	60.3369 	-0.374527 	0.000416462
0.0849209 	60.539 	-0.380283 	6.36771e-05
0.0851752 	60.7437 	-0.381966 	-2.92099e-05
0.0854294 	60.9489 	-0.382751 	-6.48535e-05
0.0856837 	61.1542 	-0.383537 	-0.000100497
0.0859379 	61.3594 	-0.384322 	-0.000136141
0.0861922 	61.5647 	-0.385107 	-0.000101811
0.0864464 	61.77 	-0.385893 	-6.46522e-05
0.0867007 	61.9752 	-0.386678 	-2.7493e-05
0.086955 	62.1814 	-0.38627 	9.86673e-05
0.0872092 	62.39 	-0.382464 	0.000477973
0.0874635 	62.5997 	-0.388275 	0.000156246
0.0877177 	62.8113 	-0.391369 	-1.62391e-05
0.087972 	63.0241 	-0.39199 	-4.44875e-05
0.0882262 	63.237 	-0.392611 	-7.27359e-05
0.0884805 	63.4499 	-0.393232 	-0.000100984
0.0887347 	63.6628 	-0.393853 	-7.87794e-05
0.088989 	63.8757 	-0.394474 	-4.93446e-05
0.0892432 	64.0885 	-0.395095 	-1.99098e-05
0.0894975 	64.3025 	-0.3939 	0.000127095
0.0897518 	64.5186 	-0.388909 	0.000519855
0.090006 	64.7356 	-0.393909 	0.000255129
0.0902603 	64.9536 	-0.398545 	-4.93221e-06
0.0905145 	65.1736 	-0.398862 	-1.98826e-05
0.0907688 	65.3935 	-0.399179 	-3.4833e-05
0.091023 	65.6135 	-0.399496 	-4.97834e-05
0.0912773 	65.8334 	-0.399813 	-4.06821e-05
0.0915315 	66.0534 	-0.40013 	-2.51155e-05
0.0917858 	66.2733 	-0.400448 	-9.54891e-06
0.09204 	66.4944 	-0.398299 	0.000153301
0.0922943 	66.7174 	-0.392237 	0.000549869
0.0925485 	66.941 	-0.395961 	0.000351726
0.0928028 	67.165 	-0.402175 	-1.71374e-07
0.0930571 	67.3912 	-0.402195 	-2.17262e-06
0.0933113 	67.6175 	-0.402216 	-4.17386e-06
0.0935656 	67.8437 	-0.402236 	-6.17511e-06
0.0938198 	68.07 	-0.402257 	-5.31223e-06
0.0940741 	68.2962 	-0.402277 	-3.23064e-06
0.0943283 	68.5225 	-0.402298 	-1.14905e-06
0.0945826 	68.7499 	-0.399223 	0.000176652
0.0948368 	68.9788 	-0.392333 	0.000571022
0.0950911 	69.2081 	-0.394626 	0.00044286
0.0953453 	69.4376 	-0.401396 	5.99621e-05
0.0955996 	69.6688 	-0.40224 	8.55473e-06
0.0958539 	69.9002 	-0.401983 	1.86977e-05
0.0961081 	70.1317 	-0.401727 	2.88407e-05
0.0963624 	70.3632 	-0.40147 	2.62729e-05
0.0966166 	70.5946 	-0.401213 	1.57365e-05
0.0968709 	70.8261 	-0.400957 	5.20018e-06
0.0971251 	71.0586 	-0.396916 	0.00019849
0.0973794 	71.2922 	-0.389188 	0.000590401
0.0976336 	71.526 	-0.389826 	0.000531653
0.0978879 	71.76 	-0.396443 	0.000150718
0.0981421 	71.9948 	-0.398691 	1.55319e-05
0.0983964 	72.23 	-0.398078 	4.12319e-05
0.0986507 	72.4652 	-0.397465 	6.69319e-05
0.0989049 	72.7004 	-0.396852 	6.5013e-05
0.0991592 	72.9357 	-0.396238 	3.83595e-05
0.0994134 	73.1709 	-0.395625 	1.17059e-05
0.0996677 	73.4069 	-0.390534 	0.000216213
0.0999219 	73.6435 	-0.381935 	0.000601744
0.100176 	73.8803 	-0.380729 	0.000611651
0.10043 	74.1172 	-0.387103 	0.000236413
0.100685 	74.3542 	-0.390743 	1.60212e-05
0.100939 	74.5913 	-0.389726 	5.93254e-05
0.101193 	74.8285 	-0.38871 	0.00010263
0.101447 	75.0657 	-0.387694 	0.000107151
0.101702 	75.3029 	-0.386677 	6.23262e-05
0.101956 	75.5401 	-0.385661 	1.75018e-05
0.10221 	75.7776 	-0.379531 	0.000225721
0.102464 	76.0152 	-0.370125 	0.000596028
0.102719 	76.2529 	-0.367023 	0.000670806
0.102973 	76.4907 	-0.373215 	0.000309813
0.103227 	76.7283 	-0.378342 	8.09438e-06
0.103481 	76.9653 	-0.377012 	6.51865e-05
0.103736 	77.2023 	-0.375683 	0.000122279
0.10399 	77.4393 	-0.374354 	0.000138498
0.104244 	77.6763 	-0.373025 	7.95341e-05
0.104498 	77.9133 	-0.371696 	2.057e-05
0.104753 	78.1499 	-0.364619 	0.000230226
0.105007 	78.3862 	-0.354461 	0.000583797
0.105261 	78.6226 	-0.349441 	0.000717772
0.105516 	78.8589 	-0.355633 	0.000372463
0.10577 	79.0953 	-0.361826 	2.71546e-05
0.106024 	79.3298 	-0.360751 	6.75149e-05
0.106278 	79.5642 	-0.359057 	0.000140792
0.106533 	79.7986 	-0.357362 	0.000174824
0.106787 	80.033 	-0.355667 	9.9338e-05
0.107041 	80.2673 	-0.353973 	2.38517e-05
0.107295 	80.5005 	-0.345808 	0.000226261
0.10755 	80.7331 	-0.334655 	0.000557037
0.107804 	80.9656 	-0.327354 	0.000741195
0.108058 	81.198 	-0.333396 	0.000417479
0.108312 	81.4305 	-0.339437 	9.37631e-05
0.108567 	81.6606 	-0.3397 	6.45686e-05
0.108821 	81.8898 	-0.337606 	0.000155465
0.109075 	82.119 	-0.335513 	0.000214131
0.109329 	82.3482 	-0.333419 	0.000120762
0.109584 	82.5774 	-0.331325 	2.7394e-05
0.109838 	82.8044 	-0.322236 	0.000210252
0.110092 	83.0305 	-0.310241 	0.000507804
0.110346 	83.2565 	-0.30066 	0.000726649
0.110601 	83.4823 	-0.306746 	0.000434778
0.110855 	83.7081 	-0.312831 	0.000142908
0.111109 	83.9315 	-0.314614 	5.21213e-05
0.111363 	84.1527 	-0.312271 	0.000154245
0.111618 	84.3739 	-0.309927 	0.000238702
0.111872 	84.5951 	-0.307584 	0.000134131
0.112126 	84.8163 	-0.30524 	2.95613e-05
0.11238 	85.0342 	-0.29535 	0.000191586
0.112635 	85.251 	-0.282486 	0.000458677
0.112889 	85.4677 	-0.270438 	0.000703121
0.113143 	85.6839 	-0.276665 	0.00044047
0.113397 	85.9001 	-0.282893 	0.00017782
0.113652 	86.1143 	-0.286252 	3.74361e-05
0.113906 	86.3244 	-0.283599 	0.000153344
0.11416 	86.5345 	-0.280946 	0.000269251
0.114414 	86.7446 	-0.278292 	0.000152029
0.114669 	86.9547 	-0.275639 	3.37522e-05
0.114923 	87.1605 	-0.264889 	0.000169996
0.115177 	87.3645 	-0.250907 	0.000407873
0.115431 	87.5686 	-0.236924 	0.000645751
0.115686 	87.7721 	-0.24235 	0.000434018
0.11594 	87.9754 	-0.24876 	0.000199458
0.116194 	88.1777 	-0.253764 	1.95549e-05
0.116448 	88.3733 	-0.250777 	0.000150228
0.116703 	88.569 	-0.247789 	0.0002809
0.116957 	88.7646 	-0.244802 	0.000173082
0.117211 	88.9603 	-0.241815 	4.02277e-05
0.117465 	89.1506 	-0.230297 	0.000146666
0.11772 	89.3387 	-0.215075 	0.00035703
0.117974 	89.5267 	-0.199852 	0.000567393
0.118228 	89.714 	-0.203426 	0.000417789
0.118482 	89.9011 	-0.21005 	0.000209761
0.118737 	90.0882 	-0.216675 	1.73227e-06
0.118991 	90.266 	-0.213543 	0.000139452
0.119245 	90.4438 	-0.21033 	0.000280075
0.119499 	90.6216 	-0.207117 	0.000190295
0.119754 	90.7994 	-0.203904 	4.78795e-05
0.120008 	90.971 	-0.192049 	0.000124867
0.120262 	91.1396 	-0.175818 	0.000312975
0.120517 	91.3081 	-0.159587 	0.000501082
0.120771 	91.4758 	-0.161194 	0.000401125
0.121025 	91.6432 	-0.168165 	0.000214541
0.121279 	91.8106 	-0.175136 	2.79573e-05
0.121534 	91.9688 	-0.173336 	0.000124445
0.121788 	92.1254 	-0.169991 	0.000270823
0.122042 	92.2819 	-0.166646 	0.000204717
0.122296 	92.4384 	-0.163301 	5.70726e-05
0.122551 	92.5884 	-0.151597 	0.000102184
0.122805 	92.7341 	-0.134625 	0.000268756
0.123059 	92.8799 	-0.117654 	0.000435328
0.123313 	93.0248 	-0.117208 	0.000376906
0.123568 	93.1693 	-0.124644 	0.000211167
0.123822 	93.3138 	-0.132081 	4.54281e-05
0.124076 	93.4494 	-0.131718 	0.000105003
0.12433 	93.5818 	-0.12841 	0.000249653
0.124585 	93.7141 	-0.125102 	0.000211336
0.124839 	93.8465 	-0.121795 	6.60324e-05
0.125093 	93.9722 	-0.11083 	8.0557e-05
0.125347 	94.0924 	-0.0934868 	0.000228217
0.125602 	94.2126 	-0.0761438 	0.000375876
0.125856 	94.3321 	-0.0736925 	0.000350899
0.12611 	94.451 	-0.0817976 	0.000203543
0.126364 	94.5699 	-0.0899027 	5.61864e-05
0.126619 	94.6808 	-0.0910824 	8.34601e-05
0.126873 	94.7867 	-0.0879941 	0.000218354
0.127127 	94.8926 	-0.0849059 	0.000207721
0.127381 	94.9984 	-0.0818176 	7.27105e-05
0.127636 	95.0983 	-0.0721144 	6.20416e-05
0.12789 	95.1911 	-0.0546911 	0.000196491
0.128144 	95.284 	-0.0372677 	0.000330939
0.128398 	95.3762 	-0.0328293 	0.000332755
0.128653 	95.4678 	-0.0417331 	0.000198286
0.128907 	95.5594 	-0.050637 	6.38172e-05
0.129161 	95.6439 	-0.0534123 	6.32695e-05
0.129415 	95.7221 	-0.0506519 	0.000183687
0.12967 	95.8003 	-0.0478915 	0.000196462
0.129924 	95.8786 	-0.0451311 	7.61968e-05
0.130178 	95.9519 	-0.0370572 	4.57484e-05
0.130432 	96.0166 	-0.0197959 	0.000170596
0.130687 	96.0814 	-0.00253459 	0.000295444
0.130941 	96.1458 	0.00388318 	0.000320034
0.131195 	96.2094 	-0.00588212 	0.000194996
0.131449 	96.2731 	-0.0156474 	6.99577e-05
0.131704 	96.3309 	-0.0200695 	4.53561e-05
0.131958 	96.3814 	-0.0177052 	0.000148318
0.132212 	96.4319 	-0.0153409 	0.000178221
0.132466 	96.4824 	-0.0129766 	7.55402e-05
0.132721 	96.5294 	-0.00676168 	3.11333e-05
0.132975 	96.5667 	0.0101707 	0.000148917
0.133229 	96.6039 	0.0271031 	0.000266702
0.133483 	96.6409 	0.035534 	0.00031155
0.133738 	96.6772 	0.0249723 	0.000193458
0.133992 	96.7135 	0.0144106 	7.53662e-05
0.134246 	96.7452 	0.00838458 	3.10312e-05
0.134501 	96.769 	0.0103594 	0.000116799
0.134755 	96.7927 	0.0123342 	0.000157492
0.135009 	96.8165 	0.014309 	7.20767e-05
0.135263 	96.8383 	0.018549 	1.7136e-05
0.135518 	96.8494 	0.0350285 	0.000126864
0.135772 	96.8605 	0.051508 	0.000236591
0.136026 	96.8715 	0.0619428 	0.000298565
0.13628 	96.8819 	0.0505931 	0.000188436
0.136535 	96.8923 	0.0392433 	7.83067e-05
0.136789 	96.8993 	0.0316432 	2.03293e-05
0.137043 	96.898 	0.0332701 	9.06825e-05
0.137297 	96.8967 	0.034897 	0.000136988
0.137552 	96.8954 	0.0365239 	6.70184e-05
0.137806 	96.8936 	0.0387632 	4.2461e-06
0.13806 	96.8806 	0.0549101 	0.00010491
0.138314 	96.8675 	0.0710571 	0.000205573
0.138569 	96.8544 	0.0836825 	0.000280971
0.138823 	96.8408 	0.0717027 	0.000179836
0.139077 	96.8273 	0.059723 	7.87015e-05
0.139331 	96.8113 	0.0506988 	1.2818e-05
0.139586 	96.787 	0.0520434 	7.0603e-05
0.13984 	96.7627 	0.053388 	0.000119234
0.140094 	96.7384 	0.0547326 	6.18401e-05
0.140348 	96.7141 	0.0560772 	4.44574e-06
0.140603 	96.6799 	0.0708907 	8.69464e-05
0.140857 	96.6449 	0.086835 	0.000181192
0.141111 	96.6099 	0.101838 	0.00026916
0.141365 	96.5744 	0.0894295 	0.00017438
0.14162 	96.539 	0.0770213 	7.95993e-05
0.141874 	96.502 	0.0667904 	8.10443e-06
0.142128 	96.4569 	0.0679758 	5.87006e-05
0.142382 	96.4117 	0.0691611 	0.000109297
0.142637 	96.3666 	0.0703465 	6.03545e-05
0.142891 	96.3215 	0.0715319 	1.01642e-05
0.143145 	96.2686 	0.0844387 	7.07562e-05
0.143399 	96.2138 	0.100322 	0.000159479
0.143654 	96.159 	0.116205 	0.000248202
0.143908 	96.1039 	0.105222 	0.000169353
0.144162 	96.0488 	0.0925611 	8.00421e-05
0.144416 	95.9927 	0.081329 	4.85821e-06
0.144671 	95.9289 	0.0824327 	5.16679e-05
0.144925 	95.8651 	0.0835365 	9.84776e-05
0.145179 	95.8012 	0.0846403 	6.18084e-05
0.145433 	95.7374 	0.0857441 	1.54306e-05
0.145688 	95.6678 	0.0967016 	5.5601e-05
0.145942 	95.5953 	0.112572 	0.000138924
0.146196 	95.5228 	0.128443 	0.000222247
0.14645 	95.4501 	0.119921 	0.000163506
0.146705 	95.3774 	0.10707 	7.95557e-05
0.146959 	95.3042 	0.0949472 	2.31139e-06
0.147213 	95.2237 	0.0959949 	4.64552e-05
0.147467 	95.1432 	0.0970426 	9.0599e-05
0.147722 	95.0627 	0.0980903 	6.41207e-05
0.147976 	94.9822 	0.0991381 	2.04345e-05
0.14823 	94.8975 	0.108081 	4.16846e-05
0.148484 	94.8093 	0.123963 	0.000120002
0.148739 	94.7211 	0.139844 	0.00019832
0.148993 	94.6327 	0.133853 	0.00015751
0.149247 	94.5443 	0.120855 	7.85345e-05
0.149502 	94.4558 	0.107935 	2.34373e-07
0.149756 	94.3605 	0.108938 	4.21989e-05
0.15001 	94.2652 	0.10994 	8.41634e-05
0.150264 	94.1698 	0.110943 	6.66783e-05
0.150519 	94.0745 	0.111945 	2.51939e-05
0.150773 	93.9765 	0.118785 	2.86139e-05
0.151027 	93.8743 	0.134651 	0.000101479
0.151281 	93.7722 	0.150517 	0.000174344
0.151536 	93.6699 	0.147069 	0.000149783
0.15179 	93.5676 	0.133912 	7.62481e-05
0.152044 	93.4653 	0.120755 	2.71275e-06
0.152298 	93.3572 	0.121173 	3.75081e-05
0.152553 	93.2489 	0.122111 	7.64526e-05
0.152807 	93.1405 	0.12305 	6.73439e-05
0.153061 	93.0322 	0.123988 	2.88839e-05
0.153315 	92.9224 	0.128627 	1.66761e-05
0.15357 	92.808 	0.14443 	8.36489e-05
0.153824 	92.6937 	0.160233 	0.000150622
0.154078 	92.5793 	0.159314 	0.000140379
0.154332 	92.4649 	0.145965 	7.27399e-05
0.154587 	92.3505 	0.132617 	5.10092e-06
0.154841 	92.2313 	0.132393 	3.20988e-05
0.155095 	92.1117 	0.133239 	6.68154e-05
0.155349 	91.9922 	0.134085 	6.50281e-05
0.155604 	91.8726 	0.134932 	3.07754e-05
0.155858 	91.7525 	0.137286 	6.20033e-06
0.156112 	91.6278 	0.152982 	6.72698e-05
0.156366 	91.503 	0.168679 	0.000128339
0.156621 	91.3783 	0.170277 	0.00013025
0.156875 	91.2536 	0.15671 	6.85311e-05
0.157129 	91.1289 	0.143143 	6.81215e-06
0.157383 	91.0004 	0.142298 	2.63062e-05
0.157638 	90.8714 	0.143031 	5.58758e-05
0.157892 	90.7424 	0.143765 	5.9737e-05
0.158146 	90.6134 	0.144498 	3.05873e-05
0.1584 	90.4844 	0.145231 	1.43772e-06
0.158655 	90.3513 	0.160062 	5.2814e-05
0.158909 	90.218 	0.175625 	0.000108367
0.159163 	90.0848 	0.179738 	0.000120344
0.159417 	89.9516 	0.165942 	6.41653e-05
0.159672 	89.8185 	0.152147 	7.98641e-06
0.159926 	89.6824 	0.150709 	2.05928e-05
0.16018 	89.5458 	0.15132 	4.45979e-05
0.160434 	89.4093 	0.15193 	5.20953e-05
0.160689 	89.2727 	0.152541 	2.84493e-05
0.160943 	89.1362 	0.153151 	4.80334e-06
0.161197 	88.9969 	0.165559 	4.03776e-05
0.161451 	88.8569 	0.180974 	9.10476e-05
0.161706 	88.717 	0.187611 	0.000111313
0.16196 	88.5773 	0.173596 	6.00445e-05
0.162214 	88.4375 	0.15958 	8.77573e-06
0.162468 	88.2957 	0.157586 	1.53054e-05
0.162723 	88.1534 	0.158074 	3.37714e-05
0.162977 	88.0111 	0.158562 	4.28896e-05
0.163231 	87.8689 	0.15905 	2.47123e-05
0.163485 	87.7266 	0.159538 	6.535e-06
0.16374 	87.5827 	0.169489 	2.97796e-05
0.163994 	87.4379 	0.184751 	7.62739e-05
0.164248 	87.2932 	0.193926 	0.000103444
0.164503 	87.1487 	0.179711 	5.63767e-05
0.164757 	87.0041 	0.165497 	9.30998e-06
0.165011 	86.8583 	0.162983 	1.05904e-05
0.165265 	86.7121 	0.163355 	2.37918e-05
0.16552 	86.5659 	0.163726 	3.27027e-05
0.165774 	86.4197 	0.164098 	1.97154e-05
0.166028 	86.2735 	0.164469 	6.7281e-06
0.166282 	86.1265 	0.171943 	2.07117e-05
0.166537 	85.9786 	0.187049 	6.36851e-05
0.166791 	85.8307 	0.198768 	9.67229e-05
0.167045 	85.6832 	0.184383 	5.32021e-05
0.167299 	85.5356 	0.169998 	9.6814e-06
0.167554 	85.3873 	0.167002 	6.43306e-06
0.167808 	85.2389 	0.167264 	1.47063e-05
0.168062 	85.0904 	0.167526 	2.17883e-05
0.168316 	84.942 	0.167788 	1.36533e-05
0.168571 	84.7935 	0.16805 	5.51834e-06
0.168825 	84.6447 	0.173035 	1.28606e-05
0.169079 	84.4953 	0.187979 	5.28406e-05
0.169333 	84.3459 	0.202238 	9.09512e-05
0.169588 	84.1969 	0.187713 	5.04477e-05
0.169842 	84.0479 	0.173188 	9.94415e-06
0.170096 	83.8987 	0.169743 	2.81081e-06
0.17035 	83.7495 	0.169904 	6.53604e-06
0.170605 	83.6002 	0.170065 	1.02613e-05
0.170859 	83.451 	0.170226 	6.73706e-06
0.171113 	83.3017 	0.170387 	3.07566e-06
0.171367 	83.1524 	0.172887 	5.98433e-06
0.171622 	83.0029 	0.187661 	4.33807e-05
0.171876 	82.8534 	0.202434 	8.07771e-05
0.17213 	82.7043 	0.189818 	4.80291e-05
0.172384 	82.5552 	0.175191 	1.01321e-05
0.172639 	82.4064 	0.171329 	-3.46191e-07
0.172893 	82.2576 	0.171397 	-8.18925e-07
0.173147 	82.1089 	0.171464 	-1.29166e-06
0.173401 	81.9602 	0.171531 	-9.30018e-07
0.173656 	81.8114 	0.171598 	-4.65539e-07
0.17391 	81.6627 	0.171666 	-1.06047e-09
0.174164 	81.5143 	0.186216 	3.50225e-05
0.174418 	81.3659 	0.200803 	7.01366e-05
0.174673 	81.2179 	0.190794 	4.58553e-05
0.174927 	81.0699 	0.176101 	1.02633e-05
0.175181 	80.9225 	0.171852 	-3.01309e-06
0.175435 	80.7754 	0.171835 	-7.24729e-06
0.17569 	80.6283 	0.171818 	-1.14815e-05
0.175944 	80.4812 	0.171801 	-9.00813e-06
0.176198 	80.334 	0.171784 	-4.84892e-06
0.176452 	80.1869 	0.171766 	-6.89705e-07
0.176707 	80.0405 	0.183769 	2.7489e-05
0.176961 	79.8942 	0.198161 	6.04438e-05
0.177215 	79.7482 	0.190773 	4.37274e-05
0.177469 	79.6023 	0.176066 	1.03188e-05
0.177724 	79.4574 	0.17146 	-5.2325e-06
0.177978 	79.3127 	0.171368 	-1.28036e-05
0.178232 	79.1681 	0.171275 	-2.03746e-05
0.178486 	79.0235 	0.171183 	-1.73205e-05