0 	31.937 	-0.0273813 	5.87489e-13
0.000254254 	31.937 	-0.0273871 	1.122e-10
0.000508509 	31.937 	-0.0273929 	2.23813e-10
0.000762763 	31.9403 	-0.0275595 	-7.16399e-06
0.00101702 	31.9461 	-0.0278477 	-1.97472e-05
0.00127127 	31.9518 	-0.0281359 	-3.23304e-05
0.00152553 	31.9576 	-0.0284241 	-2.09144e-05
0.00177978 	31.9634 	-0.0287123 	-8.34131e-06
0.00203403 	31.9711 	-0.0290308 	2.33578e-10
0.00228829 	31.9826 	-0.0294091 	1.21903e-10
0.00254254 	31.9941 	-0.0297873 	1.02276e-11
0.0027968 	32.0057 	-0.0295563 	1.01525e-10
0.00305105 	32.0173 	-0.0292638 	2.13286e-10
0.00330531 	32.0301 	-0.0292119 	-4.31146e-06
0.00355956 	32.0443 	-0.0294161 	-1.32103e-05
0.00381381 	32.0585 	-0.0296204 	-2.21091e-05
0.00406807 	32.0727 	-0.0298246 	-1.56773e-05
0.00432232 	32.0869 	-0.0300288 	-6.79459e-06
0.00457658 	32.1017 	-0.0303175 	2.43843e-10
0.00483083 	32.1185 	-0.0308813 	1.3215e-10
0.00508509 	32.1353 	-0.031445 	2.04573e-11
0.00533934 	32.1522 	-0.0313882 	9.19495e-11
0.00559359 	32.1691 	-0.0311921 	2.04517e-10
0.00584785 	32.1862 	-0.0312502 	-7.60675e-06
0.0061021 	32.2035 	-0.0316793 	-2.63229e-05
0.00635636 	32.2207 	-0.0321084 	-4.50391e-05
0.00661061 	32.238 	-0.0325375 	-3.49653e-05
0.00686486 	32.2553 	-0.0329667 	-1.63057e-05
0.00711912 	32.2726 	-0.0334383 	2.55799e-10
0.00737337 	32.2902 	-0.0342046 	1.43345e-10
0.00762763 	32.3078 	-0.0349708 	3.08917e-11
0.00788188 	32.3256 	-0.0350857 	8.17731e-11
0.00813614 	32.3434 	-0.034954 	1.94518e-10
0.00839039 	32.3614 	-0.0350756 	-9.12592e-06
0.00864464 	32.3797 	-0.0356981 	-3.62829e-05
0.0088989 	32.398 	-0.0363205 	-6.34398e-05
0.00915315 	32.4164 	-0.0369429 	-5.38283e-05
0.00940741 	32.4347 	-0.0375653 	-2.67862e-05
0.00966166 	32.453 	-0.0381909 	2.66403e-10
0.00991592 	32.4717 	-0.0391495 	1.53817e-10
0.0101702 	32.4905 	-0.0401081 	4.12315e-11
0.0104244 	32.5095 	-0.0403836 	7.20273e-11
0.0106787 	32.5286 	-0.0402645 	1.85675e-10
0.0109329 	32.548 	-0.0403878 	-9.15952e-06
0.0111872 	32.5681 	-0.0411557 	-4.26652e-05
0.0114414 	32.5883 	-0.0419236 	-7.61708e-05
0.0116957 	32.6084 	-0.0426914 	-7.04804e-05
0.0119499 	32.6286 	-0.0434593 	-3.71566e-05
0.0122042 	32.6487 	-0.0442272 	-3.83287e-06
0.0124585 	32.6698 	-0.0453231 	1.65363e-10
0.0127127 	32.691 	-0.0464616 	5.19215e-11
0.012967 	32.7124 	-0.0469015 	6.22089e-11
0.0132212 	32.734 	-0.0467516 	1.76921e-10
0.0134755 	32.756 	-0.0468253 	-8.32034e-06
0.0137297 	32.7791 	-0.0476984 	-4.641e-05
0.013984 	32.8022 	-0.0485716 	-8.44996e-05
0.0142382 	32.8252 	-0.0494447 	-8.50342e-05
0.0144925 	32.8483 	-0.0503178 	-4.71969e-05
0.0147467 	32.8714 	-0.051191 	-9.35956e-06
0.015001 	32.8956 	-0.0523911 	1.77307e-10
0.0152553 	32.9202 	-0.0536987 	6.28496e-11
0.0155095 	32.9449 	-0.0543211 	5.19183e-11
0.0157638 	32.9699 	-0.0541091 	1.67064e-10
0.016018 	32.9952 	-0.0540959 	-7.08763e-06
0.0162723 	33.022 	-0.0550449 	-4.84669e-05
0.0165265 	33.0487 	-0.0559939 	-8.98463e-05
0.0167808 	33.0754 	-0.0569429 	-9.80263e-05
0.017035 	33.1021 	-0.0578919 	-5.69704e-05
0.0172893 	33.1288 	-0.0588409 	-1.59145e-05
0.0175435 	33.1565 	-0.0601081 	1.88398e-10
0.0177978 	33.1849 	-0.0615767 	7.35527e-11
0.0180521 	33.2135 	-0.0624108 	4.15918e-11
0.0183063 	33.2424 	-0.0621148 	1.5727e-10
0.0185606 	33.2715 	-0.0619905 	-5.77968e-06
0.0188148 	33.3022 	-0.0629957 	-4.95831e-05
0.0190691 	33.3329 	-0.064001 	-9.33865e-05
0.0193233 	33.3636 	-0.0650063 	-0.000110081
0.0195776 	33.3944 	-0.0660115 	-6.66715e-05
0.0198318 	33.4251 	-0.0670168 	-2.32624e-05
0.0200861 	33.4566 	-0.0683096 	1.9972e-10
0.0203403 	33.4891 	-0.0699345 	8.43897e-11
0.0205946 	33.5218 	-0.0710176 	3.1202e-11
0.0208488 	33.5548 	-0.0706231 	1.47507e-10
0.0211031 	33.588 	-0.0703738 	-4.59244e-06
0.0213574 	33.623 	-0.0714237 	-5.02988e-05
0.0216116 	33.6579 	-0.0724735 	-9.60052e-05
0.0218659 	33.6928 	-0.0735234 	-0.000121799
0.0221201 	33.7278 	-0.0745733 	-7.65578e-05
0.0223744 	33.7627 	-0.0756232 	-3.13166e-05
0.0226286 	33.7982 	-0.0768976 	2.1129e-10
0.0228829 	33.8351 	-0.0786771 	9.53815e-11
0.0231371 	33.872 	-0.0800524 	2.07246e-11
0.0233914 	33.9094 	-0.0795497 	1.37748e-10
0.0236456 	33.9469 	-0.0791693 	-3.64265e-06
0.0238999 	33.9862 	-0.080258 	-5.09889e-05
0.0241542 	34.0256 	-0.0813467 	-9.83352e-05
0.0244084 	34.065 	-0.0824354 	-0.000133719
0.0246627 	34.1043 	-0.0835241 	-8.69103e-05
0.0249169 	34.1437 	-0.0846128 	-4.01013e-05
0.0251712 	34.1833 	-0.0858229 	2.2313e-10
0.0254254 	34.2247 	-0.0877588 	1.06551e-10
0.0256797 	34.266 	-0.0894747 	1.01355e-11
0.0259339 	34.3079 	-0.0888523 	1.27969e-10
0.0261882 	34.3499 	-0.0883373 	-3.00518e-06
0.0264424 	34.3939 	-0.0894644 	-5.19581e-05
0.0266967 	34.4378 	-0.0905915 	-0.000100911
0.026951 	34.4818 	-0.0917185 	-0.000146445
0.0272052 	34.5258 	-0.0928456 	-9.81042e-05
0.0274595 	34.5697 	-0.0939727 	-4.97636e-05
0.0277137 	34.6137 	-0.0950998 	-1.42296e-06
0.027968 	34.6596 	-0.0971734 	1.17922e-10
0.0282222 	34.7056 	-0.0992757 	5.81839e-13
0.0284765 	34.7522 	-0.0985167 	1.18145e-10
0.0287307 	34.7989 	-0.097848 	-2.72953e-06
0.028985 	34.8476 	-0.0990157 	-5.33649e-05
0.0292392 	34.8964 	-0.100183 	-0.000104
0.0294935 	34.9451 	-0.101351 	-0.000154636
0.0297477 	34.9939 	-0.102519 	-0.000110402
0.030002 	35.0426 	-0.103686 	-6.04579e-05
0.0302563 	35.0914 	-0.104854 	-1.05141e-05
0.0305105 	35.1418 	-0.106917 	1.29516e-10
0.0307648 	35.1926 	-0.10922 	1.13248e-11
0.031019 	35.244 	-0.108545 	1.08858e-10
0.0312733 	35.2956 	-0.107676 	-2.85249e-06
0.0315275 	35.3493 	-0.108884 	-5.51339e-05
0.0317818 	35.403 	-0.110092 	-0.000107415
0.032036 	35.4567 	-0.111301 	-0.000159697
0.0322903 	35.5104 	-0.112509 	-0.000123622
0.0325445 	35.5641 	-0.113718 	-7.21136e-05
0.0327988 	35.6178 	-0.114926 	-2.06057e-05
0.0330531 	35.6728 	-0.116949 	1.42146e-10
0.0333073 	35.7287 	-0.119515 	2.23484e-11
0.0335616 	35.7851 	-0.118984 	9.82774e-11
0.0338158 	35.8418 	-0.117901 	-3.41181e-06
0.0340701 	35.9006 	-0.119148 	-5.72e-05
0.0343243 	35.9594 	-0.120395 	-0.000110988
0.0345786 	36.0183 	-0.121642 	-0.000164776
0.0348328 	36.0771 	-0.122889 	-0.000137524
0.0350871 	36.136 	-0.124135 	-8.45922e-05
0.0353413 	36.1948 	-0.125382 	-3.16602e-05
0.0355956 	36.2546 	-0.127277 	1.53478e-10
0.0358498 	36.3157 	-0.130137 	3.33061e-11
0.0361041 	36.3773 	-0.129841 	8.85873e-11
0.0363584 	36.4393 	-0.128559 	-4.44734e-06
0.0366126 	36.5034 	-0.129842 	-5.96284e-05
0.0368669 	36.5676 	-0.131125 	-0.000114809
0.0371211 	36.6318 	-0.132409 	-0.00016999
0.0373754 	36.696 	-0.133692 	-0.00015214
0.0376296 	36.7602 	-0.134975 	-9.78982e-05
0.0378839 	36.8244 	-0.136258 	-4.36566e-05
0.0381381 	36.889 	-0.137908 	1.66649e-10
0.0383924 	36.9556 	-0.141072 	4.47948e-11
0.0386466 	37.0226 	-0.141125 	7.87356e-11
0.0389009 	37.09 	-0.139695 	-5.99445e-06
0.0391552 	37.1598 	-0.141013 	-6.24735e-05
0.0394094 	37.2295 	-0.142331 	-0.000118953
0.0396637 	37.2993 	-0.143648 	-0.000175432
0.0399179 	37.369 	-0.144966 	-0.000167496
0.0401722 	37.4387 	-0.146283 	-0.00011204
0.0404264 	37.5085 	-0.147601 	-5.65839e-05
0.0406807 	37.5782 	-0.148918 	-1.12797e-06
0.0409349 	37.6503 	-0.152324 	5.6668e-11
0.0411892 	37.7229 	-0.152821 	6.8536e-11
0.0414434 	37.7961 	-0.151293 	-8.0889e-06
0.0416977 	37.8717 	-0.152644 	-6.58193e-05
0.041952 	37.9472 	-0.153995 	-0.00012355
0.0422062 	38.0227 	-0.155347 	-0.00018128
0.0424605 	38.0982 	-0.156698 	-0.000183724
0.0427147 	38.1737 	-0.158049 	-0.000127101
0.042969 	38.2492 	-0.1594 	-7.04777e-05
0.0432232 	38.3247 	-0.160751 	-1.38548e-05
0.0434775 	38.4021 	-0.163895 	6.88534e-11
0.0437317 	38.4805 	-0.164927 	5.78197e-11
0.043986 	38.5597 	-0.163353 	-1.07679e-05
0.0442402 	38.6412 	-0.164738 	-6.97381e-05
0.0444945 	38.7227 	-0.166122 	-0.000128708
0.0447487 	38.8042 	-0.167507 	-0.000187678
0.045003 	38.8857 	-0.168892 	-0.000200947
0.0452573 	38.9672 	-0.170277 	-0.000143169
0.0455115 	39.0487 	-0.171662 	-8.5392e-05
0.0457658 	39.1302 	-0.173046 	-2.76147e-05
0.04602 	39.2131 	-0.175795 	8.10944e-11
0.0462743 	39.2975 	-0.17745 	4.66187e-11
0.0465285 	39.3831 	-0.175887 	-1.40544e-05
0.0467828 	39.4708 	-0.177304 	-7.42036e-05
0.047037 	39.5585 	-0.178721 	-0.000134353
0.0472913 	39.6462 	-0.180139 	-0.000194502
0.0475455 	39.734 	-0.181556 	-0.000219014
0.0477998 	39.8217 	-0.182973 	-0.000160142
0.0480541 	39.9094 	-0.184391 	-0.000101271
0.0483083 	39.9971 	-0.185808 	-4.23997e-05
0.0485626 	40.0856 	-0.188022 	9.31151e-11
0.0488168 	40.1763 	-0.19039 	3.54083e-11
0.0490711 	40.2684 	-0.188899 	-1.7956e-05
0.0493253 	40.3626 	-0.190346 	-7.91699e-05
0.0495796 	40.4568 	-0.191794 	-0.000140384
0.0498338 	40.5511 	-0.193242 	-0.000201598
0.0500881 	40.6453 	-0.194689 	-0.000237707
0.0503423 	40.7395 	-0.196137 	-0.000177854
0.0505966 	40.8337 	-0.197584 	-0.000118001
0.0508509 	40.9279 	-0.199032 	-5.81481e-05
0.0511051 	41.0222 	-0.200567 	1.05647e-10
0.0513594 	41.1193 	-0.203735 	2.40375e-11
0.0516136 	41.2183 	-0.202383 	-2.24633e-05
0.0518679 	41.3193 	-0.203857 	-8.45774e-05
0.0521221 	41.4202 	-0.205331 	-0.000146692
0.0523764 	41.5211 	-0.206806 	-0.000208806
0.0526306 	41.6221 	-0.20828 	-0.000256766
0.0528849 	41.723 	-0.209755 	-0.000196092
0.0531391 	41.8239 	-0.211229 	-0.000135418
0.0533934 	41.9249 	-0.212703 	-7.47438e-05
0.0536476 	42.0258 	-0.214178 	-1.40697e-05
0.0539019 	42.1291 	-0.217464 	1.23677e-11
0.0541562 	42.2352 	-0.216321 	-2.75395e-05
0.0544104 	42.3431 	-0.217818 	-9.03295e-05
0.0546647 	42.4511 	-0.219314 	-0.000153119
0.0549189 	42.559 	-0.220811 	-0.000215909
0.0551732 	42.6669 	-0.222307 	-0.000275827
0.0554274 	42.7748 	-0.223804 	-0.00021455
0.0556817 	42.8827 	-0.2253 	-0.000153273
0.0559359 	42.9907 	-0.226797 	-9.19963e-05
0.0561902 	43.0986 	-0.228293 	-3.07193e-05
0.0564444 	43.208 	-0.231541 	4.54007e-13
0.0566987 	43.3216 	-0.230684 	-3.31101e-05
0.056953 	43.4368 	-0.232196 	-9.62774e-05
0.0572072 	43.552 	-0.233709 	-0.000159445
0.0574615 	43.6671 	-0.235221 	-0.000222612
0.0577157 	43.7823 	-0.236733 	-0.00028578
0.05797 	43.8975 	-0.238245 	-0.000232797
0.0582242 	44.0126 	-0.239757 	-0.000171206
0.0584785 	44.1278 	-0.24127 	-0.000109616
0.0587327 	44.2429 	-0.242782 	-4.80253e-05
0.058987 	44.3588 	-0.245136 	1.15191e-11
0.0592412 	44.4801 	-0.245428 	-3.91451e-05
0.0594955 	44.6027 	-0.246951 	-0.000102458
0.0597497 	44.7254 	-0.248474 	-0.000165771
0.060004 	44.8481 	-0.249997 	-0.000229083
0.0602583 	44.9707 	-0.251521 	-0.000292396
0.0605125 	45.0934 	-0.253044 	-0.00025086
0.0607668 	45.216 	-0.254567 	-0.00018918
0.061021 	45.3387 	-0.25609 	-0.000127499
0.0612753 	45.4614 	-0.257613 	-6.58184e-05
0.0615295 	45.584 	-0.259136 	-4.13782e-06
0.0617838 	45.713 	-0.260527 	-4.56108e-05
0.062038 	45.8434 	-0.262057 	-0.000108885
0.0622923 	45.9738 	-0.263587 	-0.00017216
0.0625465 	46.1042 	-0.265117 	-0.000235434
0.0628008 	46.2346 	-0.266648 	-0.000298709
0.0630551 	46.365 	-0.268081 	-0.000267664
0.0633093 	46.4952 	-0.269431 	-0.000204031
0.0635636 	46.6255 	-0.27078 	-0.000140398
0.0638178 	46.7558 	-0.272129 	-7.67647e-05
0.0640721 	46.8861 	-0.273479 	-1.31317e-05
0.0643263 	47.0222 	-0.274897 	-4.12638e-05
0.0645806 	47.1604 	-0.276236 	-0.000102238
0.0648348 	47.2987 	-0.277574 	-0.000163213
0.0650891 	47.4369 	-0.278913 	-0.000224187
0.0653433 	47.5752 	-0.280251 	-0.000285162
0.0655976 	47.7134 	-0.28159 	-0.000264289
0.0658519 	47.8516 	-0.282929 	-0.000200912
0.0661061 	47.9899 	-0.284267 	-0.000137535
0.0663604 	48.1281 	-0.285606 	-7.41577e-05
0.0666146 	48.2664 	-0.286944 	-1.07807e-05
0.0668689 	48.4099 	-0.288528 	-2.81209e-05
0.0671231 	48.5563 	-0.289869 	-8.93918e-05
0.0673774 	48.7027 	-0.291211 	-0.000150663
0.0676316 	48.8491 	-0.292553 	-0.000211934
0.0678859 	48.9955 	-0.293895 	-0.000273205
0.0681401 	49.142 	-0.295237 	-0.000263199
0.0683944 	49.2884 	-0.296579 	-0.000199457
0.0686486 	49.4348 	-0.297921 	-0.000135715
0.0689029 	49.5812 	-0.299262 	-7.19728e-05
0.0691572 	49.7277 	-0.300604 	-8.23079e-06
0.0694114 	49.8787 	-0.302404 	-1.46008e-05
0.0696657 	50.0336 	-0.303755 	-7.63682e-05
0.0699199 	50.1885 	-0.305107 	-0.000138136
0.0701742 	50.3433 	-0.306458 	-0.000199903
0.0704284 	50.4982 	-0.307809 	-0.00026167
0.0706827 	50.653 	-0.309161 	-0.000262615
0.0709369 	50.8079 	-0.310512 	-0.000198307
0.0711912 	50.9627 	-0.311863 	-0.000133998
0.0714454 	51.1176 	-0.313215 	-6.96896e-05
0.0716997 	51.2725 	-0.314566 	-5.38114e-06
0.071954 	51.4314 	-0.316628 	-5.40097e-07
0.0722082 	51.5949 	-0.317901 	-5.88814e-05
0.0724625 	51.7584 	-0.319174 	-0.000117223
0.0727167 	51.9219 	-0.320447 	-0.000175564
0.072971 	52.0854 	-0.321719 	-0.000233905
0.0732252 	52.2489 	-0.322992 	-0.000245193
0.0734795 	52.4124 	-0.324265 	-0.000184412
0.0737337 	52.5759 	-0.325538 	-0.000123632
0.073988 	52.7394 	-0.32681 	-6.2851e-05
0.0742422 	52.9029 	-0.328083 	-2.07043e-06
0.0744965 	53.0705 	-0.330178 	6.35379e-05
0.0747508 	53.242 	-0.331509 	-4.16515e-05
0.075005 	53.4143 	-0.332674 	-9.51948e-05
0.0752593 	53.5865 	-0.333839 	-0.000148738
0.0755135 	53.7588 	-0.335003 	-0.000202282
0.0757678 	53.931 	-0.336168 	-0.00022216
0.076022 	54.1033 	-0.337333 	-0.000166351
0.0762763 	54.2755 	-0.338498 	-0.000110541
0.0765305 	54.4477 	-0.339663 	-5.47309e-05
0.0767848 	54.6201 	-0.340832 	5.98172e-06
0.077039 	54.7964 	-0.342643 	0.000137084
0.0772933 	54.9757 	-0.34456 	-2.81842e-05
0.0775475 	55.1567 	-0.345696 	-8.01164e-05
0.0778018 	55.3376 	-0.346831 	-0.000132049
0.0780561 	55.5186 	-0.347967 	-0.000183981
0.0783103 	55.6995 	-0.349103 	-0.000212476
0.0785646 	55.8805 	-0.350239 	-0.000158328
0.0788188 	56.0614 	-0.351374 	-0.000104179
0.0790731 	56.2424 	-0.35251 	-5.00306e-05
0.0793273 	56.4236 	-0.35358 	2.48039e-05
0.0795816 	56.6084 	-0.354601 	0.000219821
0.0798358 	56.7955 	-0.357678 	-1.52458e-05
0.0800901 	56.985 	-0.358781 	-6.53678e-05
0.0803443 	57.1745 	-0.359885 	-0.00011549
0.0805986 	57.364 	-0.360989 	-0.000165612
0.0808529 	57.5535 	-0.362093 	-0.000201992
0.0811071 	57.743 	-0.363196 	-0.000149723
0.0813614 	57.9325 	-0.3643 	-9.74538e-05
0.0816156 	58.122 	-0.365404 	-4.51846e-05
0.0818699 	58.312 	-0.366216 	4.70085e-05
0.0821241 	58.5051 	-0.365867 	0.0003148
0.0823784 	58.6999 	-0.370627 	-2.85933e-06
0.0826326 	58.8977 	-0.371633 	-4.83383e-05
0.0828869 	59.0955 	-0.372639 	-9.38173e-05
0.0831411 	59.2934 	-0.373644 	-0.000139296
0.0833954 	59.4912 	-0.37465 	-0.000180351
0.0836496 	59.689 	-0.375656 	-0.000132926
0.0839039 	59.8869 	-0.376661 	-8.55004e-05
0.0841582 	60.0847 	-0.377667 	-3.80752e-05
0.0844124 	60.2832 	-0.377985 	7.25984e-05
0.0846667 	60.4845 	-0.375728 	0.000421083
0.0849209 	60.6872 	-0.381624 	6.43838e-05
0.0851752 	60.8924 	-0.38336 	-3.04172e-05
0.0854294 	61.0983 	-0.38418 	-6.7534e-05
0.0856837 	61.3042 	-0.385 	-0.000104651
0.0859379 	61.5101 	-0.38582 	-0.000141768
0.0861922 	61.7159 	-0.38664 	-0.000106019
0.0864464 	61.9218 	-0.38746 	-6.73244e-05
0.0867007 	62.1277 	-0.38828 	-2.86293e-05
0.086955 	62.3344 	-0.387876 	0.000100201
0.0872092 	62.5437 	-0.383992 	0.000485404
0.0874635 	62.7541 	-0.389778 	0.000158675
0.0877177 	62.9663 	-0.392822 	-1.45019e-05
0.087972 	63.1798 	-0.393372 	-3.97286e-05
0.0882262 	63.3934 	-0.393922 	-6.49553e-05
0.0884805 	63.6069 	-0.394472 	-9.0182e-05
0.0887347 	63.8205 	-0.395021 	-7.03524e-05
0.088989 	64.034 	-0.395571 	-4.40662e-05
0.0892432 	64.2476 	-0.396121 	-1.77799e-05
0.0894975 	64.4622 	-0.394856 	0.000127067
0.0897518 	64.679 	-0.389799 	0.00051974
0.090006 	64.8966 	-0.394697 	0.000255073
0.0902603 	65.1154 	-0.399253 	-4.63215e-06
0.0905145 	65.3361 	-0.399548 	-1.86732e-05
0.0907688 	65.5568 	-0.399843 	-3.27143e-05
0.091023 	65.7775 	-0.400138 	-4.67554e-05
0.0912773 	65.9981 	-0.400433 	-3.82076e-05
0.0915315 	66.2188 	-0.400728 	-2.35878e-05
0.0917858 	66.4395 	-0.401023 	-8.96804e-06
0.09204 	66.6614 	-0.398893 	0.000152514
0.0922943 	66.8851 	-0.392917 	0.000547044
0.0925485 	67.1094 	-0.396669 	0.000349919
0.0928028 	67.3342 	-0.402895 	-3.11352e-07
0.0930571 	67.5612 	-0.402953 	-3.94689e-06
0.0933113 	67.7882 	-0.403012 	-7.58242e-06
0.0935656 	68.0152 	-0.40307 	-1.1218e-05
0.0938198 	68.2423 	-0.403129 	-9.65041e-06
0.0940741 	68.4693 	-0.403187 	-5.86892e-06
0.0943283 	68.6963 	-0.403246 	-2.08743e-06
0.0945826 	68.9245 	-0.400212 	0.000177052
0.0948368 	69.1543 	-0.393366 	0.000572313
0.0950911 	69.3844 	-0.395669 	0.000443861
0.0953453 	69.6146 	-0.402432 	6.00978e-05
0.0955996 	69.8466 	-0.403279 	8.35143e-06
0.0958539 	70.0789 	-0.403027 	1.82533e-05
0.0961081 	70.3112 	-0.402776 	2.81552e-05
0.0963624 	70.5435 	-0.402524 	2.56484e-05
0.0966166 	70.7757 	-0.402273 	1.53625e-05
0.0968709 	71.008 	-0.402022 	5.07663e-06
0.0971251 	71.2414 	-0.39799 	0.000199199
0.0973794 	71.4759 	-0.390274 	0.00059251
0.0976336 	71.7106 	-0.390896 	0.000533552
0.0978879 	71.9454 	-0.397481 	0.000151256
0.0981421 	72.181 	-0.399708 	1.58173e-05
0.0983964 	72.4171 	-0.399083 	4.19893e-05
0.0986507 	72.6532 	-0.398459 	6.81614e-05
0.0989049 	72.8893 	-0.397834 	6.62072e-05
0.0991592 	73.1254 	-0.397209 	3.90641e-05
0.0994134 	73.3615 	-0.396584 	1.1921e-05
0.0996677 	73.5985 	-0.391497 	0.000216534
0.0999219 	73.836 	-0.382916 	0.000602637
0.100176 	74.0737 	-0.381702 	0.00061256
0.10043 	74.3115 	-0.388044 	0.000236764
0.100685 	74.5494 	-0.39166 	1.61609e-05
0.100939 	74.7875 	-0.390634 	5.98422e-05
0.101193 	75.0257 	-0.389609 	0.000103524
0.101447 	75.2638 	-0.388583 	0.000108084
0.101702 	75.5019 	-0.387558 	6.28691e-05
0.101956 	75.74 	-0.386532 	1.76543e-05
0.10221 	75.9785 	-0.38041 	0.000225702
0.102464 	76.2171 	-0.371022 	0.000595978
0.102719 	76.4558 	-0.367918 	0.00067075
0.102973 	76.6945 	-0.374078 	0.000309787
0.103227 	76.9331 	-0.379172 	8.28524e-06
0.103481 	77.1711 	-0.377812 	6.67229e-05
0.103736 	77.4091 	-0.376452 	0.000125161
0.10399 	77.6471 	-0.375091 	0.000141762
0.104244 	77.8851 	-0.373731 	8.14087e-05
0.104498 	78.1231 	-0.372371 	2.10549e-05
0.104753 	78.3607 	-0.365276 	0.000228657
0.105007 	78.5981 	-0.355108 	0.000579816
0.105261 	78.8355 	-0.350059 	0.000712878
0.105516 	79.0729 	-0.356183 	0.000369924
0.10577 	79.3103 	-0.362307 	2.69695e-05
0.106024 	79.5459 	-0.361207 	6.83893e-05
0.106278 	79.7813 	-0.35949 	0.000142615
0.106533 	80.0167 	-0.357774 	0.000177088
0.106787 	80.2522 	-0.356057 	0.000100625
0.107041 	80.4876 	-0.354341 	2.41607e-05
0.107295 	80.7219 	-0.346194 	0.00022357
0.10755 	80.9556 	-0.335077 	0.000550413
0.107804 	81.1892 	-0.327799 	0.00073238
0.108058 	81.4227 	-0.333817 	0.000412514
0.108312 	81.6562 	-0.339836 	9.26481e-05
0.108567 	81.8874 	-0.340104 	6.40309e-05
0.108821 	82.1177 	-0.338029 	0.00015417
0.109075 	82.348 	-0.335953 	0.000212347
0.109329 	82.5783 	-0.333877 	0.000119756
0.109584 	82.8086 	-0.331801 	2.71659e-05
0.109838 	83.0368 	-0.322743 	0.000208773
0.110092 	83.264 	-0.310787 	0.000504231
0.110346 	83.4912 	-0.301237 	0.000721537
0.110601 	83.7181 	-0.307311 	0.00043172
0.110855 	83.945 	-0.313385 	0.000141903
0.111109 	84.1696 	-0.315156 	5.24247e-05
0.111363 	84.3919 	-0.312799 	0.000155143
0.111618 	84.6143 	-0.310442 	0.000240091
0.111872 	84.8366 	-0.308086 	0.000134912
0.112126 	85.059 	-0.305729 	2.97334e-05
0.11238 	85.2781 	-0.295825 	0.000189563
0.112635 	85.496 	-0.282947 	0.000453832
0.112889 	85.7139 	-0.270883 	0.000695694
0.113143 	85.9313 	-0.277046 	0.000435818
0.113397 	86.1487 	-0.28321 	0.000175942
0.113652 	86.3641 	-0.286521 	3.7641e-05
0.113906 	86.5754 	-0.283853 	0.000154183
0.11416 	86.7867 	-0.281185 	0.000270724
0.114414 	86.9979 	-0.278517 	0.000152861
0.114669 	87.2092 	-0.275849 	3.3937e-05
0.114923 	87.4162 	-0.265124 	0.000167373
0.115177 	87.6215 	-0.251181 	0.000401579
0.115431 	87.8268 	-0.237238 	0.000635786
0.115686 	88.0314 	-0.242656 	0.00042732
0.11594 	88.236 	-0.249058 	0.000196381
0.116194 	88.4395 	-0.254057 	1.94416e-05
0.116448 	88.6363 	-0.251087 	0.000149356
0.116703 	88.8332 	-0.248118 	0.000279271
0.116957 	89.0301 	-0.245148 	0.000172078
0.117211 	89.227 	-0.242179 	3.99945e-05
0.117465 	89.4185 	-0.230682 	0.000145392
0.11772 	89.6078 	-0.215482 	0.000353926
0.117974 	89.7971 	-0.200282 	0.000562461
0.118228 	89.9855 	-0.203851 	0.000414158
0.118482 	90.1739 	-0.210465 	0.000207937
0.118737 	90.3622 	-0.21708 	1.71735e-06
0.118991 	90.5413 	-0.213954 	0.000139239
0.119245 	90.7203 	-0.210745 	0.000279647
0.119499 	90.8993 	-0.207537 	0.000190004
0.119754 	91.0783 	-0.204329 	4.78064e-05
0.120008 	91.2512 	-0.192478 	0.000124316
0.120262 	91.4209 	-0.17625 	0.000311593
0.120517 	91.5907 	-0.160022 	0.00049887
0.120771 	91.7596 	-0.161615 	0.000399354
0.121025 	91.9282 	-0.168568 	0.000213594
0.121279 	92.0969 	-0.175522 	2.7834e-05
0.121534 	92.2562 	-0.173714 	0.000124663
0.121788 	92.414 	-0.170364 	0.000271296
0.122042 	92.5717 	-0.167013 	0.000205075
0.122296 	92.7295 	-0.163662 	5.71724e-05
0.122551 	92.8806 	-0.151951 	0.000101853
0.122805 	93.0275 	-0.134973 	0.000267886
0.123059 	93.1745 	-0.117994 	0.000433919
0.123313 	93.3206 	-0.117532 	0.000375685
0.123568 	93.4663 	-0.124947 	0.000210483
0.123822 	93.6119 	-0.132363 	4.52811e-05
0.124076 	93.7488 	-0.131987 	0.000105339
0.12433 	93.8823 	-0.128668 	0.000250453
0.124585 	94.0158 	-0.12535 	0.000212013
0.124839 	94.1493 	-0.122031 	6.6244e-05
0.125093 	94.2761 	-0.111055 	8.02531e-05
0.125347 	94.3975 	-0.0937008 	0.000227355
0.125602 	94.5188 	-0.0763461 	0.000374458
0.125856 	94.6394 	-0.0738783 	0.000349575
0.12611 	94.7594 	-0.0819635 	0.000202775
0.126364 	94.8794 	-0.0900488 	5.59744e-05
0.126619 	94.9914 	-0.0912146 	8.37357e-05
0.126873 	95.0983 	-0.0881161 	0.000219075
0.127127 	95.2053 	-0.0850177 	0.000208407
0.127381 	95.3123 	-0.0819192 	7.29506e-05
0.127636 	95.4132 	-0.0722045 	6.18084e-05
0.12789 	95.507 	-0.0547681 	0.000195752
0.128144 	95.6009 	-0.0373318 	0.000329695
0.128398 	95.6941 	-0.032879 	0.000331504
0.128653 	95.7867 	-0.0417674 	0.000197541
0.128907 	95.8793 	-0.0506557 	6.35773e-05
0.129161 	95.9648 	-0.0534189 	6.34763e-05
0.129415 	96.044 	-0.0506495 	0.000184288
0.12967 	96.1231 	-0.0478801 	0.000197104
0.129924 	96.2023 	-0.0451107 	7.64459e-05
0.130178 	96.2765 	-0.0370253 	4.56153e-05
0.130432 	96.3422 	-0.0197482 	0.000170099
0.130687 	96.4078 	-0.00247122 	0.000294583
0.130941 	96.473 	0.00396145 	0.000319101
0.131195 	96.5376 	-0.0057902 	0.000194428
0.131449 	96.6021 	-0.0155418 	6.97539e-05
0.131704 	96.6608 	-0.0199523 	4.55318e-05
0.131958 	96.712 	-0.0175789 	0.000148892
0.132212 	96.7633 	-0.0152055 	0.000178911
0.132466 	96.8146 	-0.012832 	7.58328e-05
0.132721 	96.8624 	-0.0066061 	3.10532e-05
0.132975 	96.9003 	0.0103424 	0.000148534
0.133229 	96.9383 	0.0272909 	0.000266015
0.133483 	96.9759 	0.0357364 	0.000310748
0.133738 	97.0129 	0.025186 	0.00019296
0.133992 	97.0499 	0.0146355 	7.51723e-05
0.134246 	97.0823 	0.0086198 	3.11647e-05
0.134501 	97.1067 	0.010603 	0.000117301
0.134755 	97.131 	0.0125863 	0.000158169
0.135009 	97.1554 	0.0145695 	7.23865e-05
0.135263 	97.1777 	0.0188188 	1.70844e-05
0.135518 	97.1894 	0.0353127 	0.000126481
0.135772 	97.201 	0.0518065 	0.000235877
0.136026 	97.2124 	0.0622543 	0.000297664
0.13628 	97.2233 	0.0509128 	0.000187867
0.136535 	97.2342 	0.0395712 	7.80703e-05
0.136789 	97.2417 	0.0319789 	2.04132e-05
0.137043 	97.2408 	0.0336125 	9.10562e-05
0.137297 	97.2399 	0.035246 	0.000137552
0.137552 	97.239 	0.0368795 	6.72947e-05
0.137806 	97.2376 	0.0391256 	4.23023e-06
0.13806 	97.2248 	0.0552839 	0.000104514
0.138314 	97.2121 	0.0714421 	0.000204798
0.138569 	97.1992 	0.084078 	0.000279912
0.138823 	97.1859 	0.0721034 	0.000179158
0.139077 	97.1726 	0.0601287 	7.84049e-05
0.139331 	97.1569 	0.0511094 	1.28603e-05
0.139586 	97.1328 	0.0524584 	7.08356e-05
0.13984 	97.1087 	0.0538073 	0.000119627
0.140094 	97.0846 	0.0551563 	6.20438e-05
0.140348 	97.0604 	0.0565052 	4.46051e-06
0.140603 	97.0263 	0.0713268 	8.65919e-05
0.140857 	96.9913 	0.0872796 	0.000180454
0.141111 	96.9563 	0.10229 	0.000268063
0.141365 	96.921 	0.0898849 	0.000173669
0.14162 	96.8856 	0.0774794 	7.92748e-05
0.141874 	96.8486 	0.0672513 	8.1242e-06
0.142128 	96.8035 	0.0684395 	5.8843e-05
0.142382 	96.7583 	0.0696277 	0.000109562
0.142637 	96.7131 	0.0708159 	6.05009e-05
0.142891 	96.6679 	0.0720041 	1.01889e-05
0.143145 	96.6149 	0.0849168 	7.04738e-05
0.143399 	96.5599 	0.100807 	0.000158843
0.143654 	96.5049 	0.116697 	0.000247212
0.143908 	96.4497 	0.105715 	0.000168677
0.144162 	96.3944 	0.0930558 	7.97227e-05
0.144416 	96.3382 	0.0818251 	4.86846e-06
0.144671 	96.274 	0.0829311 	5.17757e-05
0.144925 	96.2099 	0.0840371 	9.8683e-05
0.145179 	96.1458 	0.0851432 	6.19373e-05
0.145433 	96.0817 	0.0862492 	1.54628e-05
0.145688 	96.0118 	0.0972116 	5.53789e-05
0.145942 	95.9389 	0.113088 	0.000138369
0.146196 	95.866 	0.128965 	0.000221359
0.14645 	95.7929 	0.120445 	0.000162853
0.146705 	95.7198 	0.107595 	7.92378e-05
0.146959 	95.6463 	0.0954731 	2.31624e-06
0.147213 	95.5653 	0.0965229 	4.65504e-05
0.147467 	95.4843 	0.0975727 	9.07846e-05
0.147722 	95.4033 	0.0986226 	6.42521e-05
0.147976 	95.3223 	0.0996724 	2.04765e-05
0.14823 	95.2372 	0.108619 	4.15106e-05
0.148484 	95.1483 	0.124507 	0.000119501
0.148739 	95.0595 	0.140394 	0.000197492
0.148993 	94.9706 	0.134405 	0.000156852
0.149247 	94.8816 	0.121408 	7.82066e-05
0.149502 	94.7926 	0.10849 	2.35005e-07
0.149756 	94.6966 	0.109494 	4.22904e-05
0.15001 	94.6006 	0.110499 	8.43458e-05
0.150264 	94.5046 	0.111504 	6.68229e-05
0.150519 	94.4086 	0.112508 	2.52486e-05
0.150773 	94.3099 	0.119351 	2.84888e-05
0.151027 	94.207 	0.135223 	0.000101035
0.151281 	94.1041 	0.151094 	0.000173581
0.151536 	94.0011 	0.147649 	0.000149128
0.15179 	93.898 	0.134494 	7.59146e-05
0.152044 	93.795 	0.121339 	2.701e-06
0.152298 	93.6861 	0.121759 	3.7599e-05
0.152553 	93.5769 	0.1227 	7.66378e-05
0.152807 	93.4678 	0.12364 	6.7507e-05
0.153061 	93.3586 	0.12458 	2.89539e-05
0.153315 	93.2479 	0.129223 	1.65966e-05
0.15357 	93.1327 	0.14503 	8.325e-05
0.153824 	93.0174 	0.160838 	0.000149903
0.154078 	92.9022 	0.159922 	0.000139709
0.154332 	92.7869 	0.146576 	7.23931e-05
0.154587 	92.6716 	0.13323 	5.07671e-06
0.154841 	92.5515 	0.133008 	3.21804e-05
0.155095 	92.431 	0.133856 	6.69852e-05
0.155349 	92.3104 	0.134704 	6.51933e-05
0.155604 	92.1899 	0.135553 	3.08536e-05
0.155858 	92.0689 	0.137909 	6.16708e-06
0.156112 	91.9431 	0.15361 	6.69079e-05
0.156366 	91.8174 	0.169311 	0.000127649
0.156621 	91.6916 	0.170911 	0.000129549
0.156875 	91.5659 	0.157346 	6.81624e-05
0.157129 	91.4402 	0.143781 	6.77561e-06
0.157383 	91.3107 	0.142938 	2.63681e-05
0.157638 	91.1806 	0.143673 	5.60073e-05
0.157892 	91.0506 	0.144407 	5.98775e-05
0.158146 	90.9205 	0.145142 	3.06593e-05
0.1584 	90.7905 	0.145877 	1.44121e-06
0.158655 	90.6563 	0.160711 	5.24898e-05
0.158909 	90.522 	0.176277 	0.000107702
0.159163 	90.3876 	0.180392 	0.000119605
0.159417 	90.2534 	0.166597 	6.37715e-05
0.159672 	90.1191 	0.152803 	7.93748e-06
0.159926 	89.9819 	0.151366 	2.06272e-05
0.16018 	89.8442 	0.151978 	4.46724e-05
0.160434 	89.7066 	0.152589 	5.21822e-05
0.160689 	89.5689 	0.153201 	2.84968e-05
0.160943 	89.4312 	0.153812 	4.81146e-06
0.161197 	89.2908 	0.166222 	4.0098e-05
0.161451 	89.1497 	0.181638 	9.04168e-05
0.161706 	89.0087 	0.188277 	0.000110542
0.16196 	88.8677 	0.174261 	5.96286e-05
0.162214 	88.7268 	0.160245 	8.71503e-06
0.162468 	88.5838 	0.158251 	1.5311e-05
0.162723 	88.4404 	0.158739 	3.37835e-05
0.162977 	88.297 	0.159227 	4.2905e-05
0.163231 	88.1536 	0.159716 	2.47212e-05
0.163485 	88.0101 	0.160204 	6.53743e-06
0.16374 	87.8651 	0.170155 	2.95527e-05
0.163994 	87.7191 	0.185419 	7.56926e-05
0.164248 	87.5732 	0.194593 	0.000102655
0.164503 	87.4275 	0.180377 	5.59471e-05
0.164757 	87.2818 	0.166161 	9.23912e-06
0.165011 	87.1348 	0.163647 	1.05726e-05
0.165265 	86.9874 	0.164018 	2.37519e-05
0.16552 	86.84 	0.164389 	3.26478e-05
0.165774 	86.6927 	0.164761 	1.96823e-05
0.166028 	86.5453 	0.165132 	6.71687e-06
0.166282 	86.3971 	0.172605 	2.05434e-05
0.166537 	86.248 	0.187711 	6.31674e-05
0.166791 	86.099 	0.19943 	9.59366e-05
0.167045 	85.9503 	0.185043 	5.27697e-05
0.167299 	85.8015 	0.170655 	9.60279e-06
0.167554 	85.6521 	0.167658 	6.39879e-06
0.167808 	85.5025 	0.167919 	1.46279e-05
0.168062 	85.3529 	0.16818 	2.16719e-05
0.168316 	85.2032 	0.168441 	1.35804e-05
0.168571 	85.0536 	0.168703 	5.48895e-06
0.168825 	84.9037 	0.173687 	1.27525e-05
0.169079 	84.7532 	0.18863 	5.23958e-05
0.169333 	84.6026 	0.202889 	9.01856e-05
0.169588 	84.4524 	0.18836 	5.0023e-05
0.169842 	84.3023 	0.173832 	9.86052e-06
0.170096 	84.1519 	0.170385 	2.76492e-06
0.17035 	84.0016 	0.170545 	6.42918e-06
0.170605 	83.8512 	0.170705 	1.00934e-05
0.170859 	83.7008 	0.170864 	6.62692e-06
0.171113 	83.5504 	0.171024 	3.02543e-06
0.171367 	83.4 	0.173522 	5.93337e-06
0.171622 	83.2494 	0.188296 	4.30107e-05
0.171876 	83.0988 	0.203069 	8.00881e-05
0.17213 	82.9486 	0.190448 	4.76194e-05
0.172384 	82.7984 	0.175817 	1.00457e-05
0.172639 	82.6484 	0.171953 	-3.99853e-07
0.172893 	82.4986 	0.172019 	-9.45963e-07
0.173147 	82.3488 	0.172085 	-1.49207e-06
0.173401 	82.199 	0.17215 	-1.0743e-06
0.173656 	82.0492 	0.172216 	-5.37726e-07
0.17391 	81.8994 	0.172281 	-1.1537e-09
0.174164 	81.7499 	0.186831 	3.4728e-05
0.174418 	81.6004 	0.201419 	6.95467e-05
0.174673 	81.4514 	0.191405 	4.54697e-05
0.174927 	81.3023 	0.176706 	1.0177e-05
0.175181 	81.1539 	0.172454 	-3.07362e-06
0.175435 	81.0058 	0.172435 	-7.393e-06
0.17569 	80.8576 	0.172416 	-1.17124e-05
0.175944 	80.7095 	0.172397 	-9.18927e-06
0.176198 	80.5614 	0.172378 	-4.94638e-06
0.176452 	80.4132 	0.172359 	-7.03493e-07
0.176707 	80.2658 	0.184362 	2.72763e-05
0.176961 	80.1185 	0.198755 	5.9976e-05
0.177215 	79.9715 	0.191362 	4.33891e-05
0.177469 	79.8247 	0.176647 	1.0239e-05
0.177724 	79.6787 	0.172037 	-5.29543e-06
0.177978 	79.5331 	0.171943 	-1.29577e-05
0.178232 	79.3876 	0.171848 	-2.06199e-05
0.178486 	79.242 	0.171754 	-1.7529e-05