0 	31.731 	-2.71989e-07 	-1.62874e-19
0.000254254 	31.7367 	-2.71952e-07 	1.33305e-15
0.000508509 	31.7424 	-2.71952e-07 	1.33305e-15
0.000762763 	31.7482 	-2.71952e-07 	1.33305e-15
0.00101702 	31.7539 	-2.71952e-07 	1.33305e-15
0.00127127 	31.7596 	-2.71952e-07 	1.33305e-15
0.00152553 	31.7654 	-2.71952e-07 	1.33305e-15
0.00177978 	31.7711 	-2.71952e-07 	1.33305e-15
0.00203403 	31.7768 	-2.71952e-07 	1.33305e-15
0.00228829 	31.7826 	-2.71952e-07 	1.33305e-15
0.00254254 	31.7883 	-2.71952e-07 	1.33305e-15
0.0027968 	31.8017 	-2.77408e-07 	1.33264e-15
0.00305105 	31.8158 	-2.77408e-07 	1.33264e-15
0.00330531 	31.8299 	-2.77408e-07 	1.33264e-15
0.00355956 	31.8441 	-2.77408e-07 	1.33263e-15
0.00381381 	31.8582 	-2.77408e-07 	1.33263e-15
0.00406807 	31.8723 	-2.77408e-07 	1.33263e-15
0.00432232 	31.8864 	-2.77408e-07 	1.33263e-15
0.00457658 	31.9005 	-2.77408e-07 	1.33263e-15
0.00483083 	31.9147 	-2.77408e-07 	1.33263e-15
0.00508509 	31.9288 	-2.77408e-07 	1.33263e-15
0.00533934 	31.9454 	-3.00709e-07 	1.374e-15
0.00559359 	31.9626 	-3.00709e-07 	1.374e-15
0.00584785 	31.9799 	-3.00709e-07 	1.374e-15
0.0061021 	31.9971 	-3.00709e-07 	1.374e-15
0.00635636 	32.0143 	-3.00709e-07 	1.374e-15
0.00661061 	32.0315 	-3.00709e-07 	1.37399e-15
0.00686486 	32.0487 	-3.00709e-07 	1.37399e-15
0.00711912 	32.0659 	-3.00709e-07 	1.37399e-15
0.00737337 	32.0831 	-3.00709e-07 	1.37399e-15
0.00762763 	32.1003 	-3.00709e-07 	1.37399e-15
0.00788188 	32.1183 	-3.40925e-07 	1.37128e-15
0.00813614 	32.1365 	-3.40925e-07 	1.37128e-15
0.00839039 	32.1547 	-3.40925e-07 	1.37128e-15
0.00864464 	32.173 	-3.40925e-07 	1.37128e-15
0.0088989 	32.1912 	-3.40925e-07 	1.37128e-15
0.00915315 	32.2094 	-3.40925e-07 	1.37127e-15
0.00940741 	32.2277 	-3.40925e-07 	1.37127e-15
0.00966166 	32.2459 	-3.40925e-07 	1.37127e-15
0.00991592 	32.2641 	-3.40925e-07 	1.37127e-15
0.0101702 	32.2824 	-3.40925e-07 	1.37127e-15
0.0104244 	32.3018 	-3.94198e-07 	1.41534e-15
0.0106787 	32.3218 	-3.94198e-07 	1.41534e-15
0.0109329 	32.3419 	-3.94198e-07 	1.41534e-15
0.0111872 	32.3619 	-3.94198e-07 	1.41534e-15
0.0114414 	32.382 	-3.94198e-07 	1.41534e-15
0.0116957 	32.4021 	-3.94198e-07 	1.41533e-15
0.0119499 	32.4221 	-3.94198e-07 	1.41533e-15
0.0122042 	32.4422 	-3.94198e-07 	1.41533e-15
0.0124585 	32.4622 	-3.94198e-07 	1.41533e-15
0.0127127 	32.4823 	-3.94198e-07 	1.41533e-15
0.012967 	32.504 	-4.57074e-07 	1.46269e-15
0.0132212 	32.5269 	-4.57074e-07 	1.46269e-15
0.0134755 	32.5499 	-4.57074e-07 	1.46269e-15
0.0137297 	32.5729 	-4.57074e-07 	1.46269e-15
0.013984 	32.5958 	-4.57074e-07 	1.46269e-15
0.0142382 	32.6188 	-4.57074e-07 	1.46268e-15
0.0144925 	32.6418 	-4.57074e-07 	1.46268e-15
0.0147467 	32.6647 	-4.57074e-07 	1.46268e-15
0.015001 	32.6877 	-4.57074e-07 	1.46268e-15
0.0152553 	32.7107 	-4.57074e-07 	1.46268e-15
0.0155095 	32.7353 	-5.26948e-07 	1.46692e-15
0.0157638 	32.7618 	-5.26948e-07 	1.46692e-15
0.016018 	32.7884 	-5.26948e-07 	1.46691e-15
0.0162723 	32.8149 	-5.26948e-07 	1.46691e-15
0.0165265 	32.8415 	-5.26948e-07 	1.46691e-15
0.0167808 	32.8681 	-5.26948e-07 	1.46691e-15
0.017035 	32.8946 	-5.26948e-07 	1.46691e-15
0.0172893 	32.9212 	-5.26948e-07 	1.46691e-15
0.0175435 	32.9478 	-5.26948e-07 	1.4669e-15
0.0177978 	32.9743 	-5.26948e-07 	1.4669e-15
0.0180521 	33.0023 	-6.02001e-07 	1.477e-15
0.0183063 	33.0328 	-6.02001e-07 	1.477e-15
0.0185606 	33.0634 	-6.02001e-07 	1.477e-15
0.0188148 	33.0939 	-6.02001e-07 	1.477e-15
0.0190691 	33.1244 	-6.02001e-07 	1.477e-15
0.0193233 	33.155 	-6.02001e-07 	1.47699e-15
0.0195776 	33.1855 	-6.02001e-07 	1.47699e-15
0.0198318 	33.216 	-6.02001e-07 	1.47699e-15
0.0200861 	33.2465 	-6.02001e-07 	1.47699e-15
0.0203403 	33.2771 	-6.02001e-07 	1.47699e-15
0.0205946 	33.3087 	-6.81089e-07 	1.48832e-15
0.0208488 	33.3435 	-6.81089e-07 	1.48832e-15
0.0211031 	33.3782 	-6.81089e-07 	1.48832e-15
0.0213574 	33.4129 	-6.81089e-07 	1.48831e-15
0.0216116 	33.4476 	-6.81089e-07 	1.48831e-15
0.0218659 	33.4824 	-6.81089e-07 	1.48831e-15
0.0221201 	33.5171 	-6.81089e-07 	1.48831e-15
0.0223744 	33.5518 	-6.81089e-07 	1.4883e-15
0.0226286 	33.5865 	-6.81089e-07 	1.4883e-15
0.0228829 	33.6213 	-6.81089e-07 	1.4883e-15
0.0231371 	33.6568 	-7.63551e-07 	1.50014e-15
0.0233914 	33.6959 	-7.63551e-07 	1.50014e-15
0.0236456 	33.735 	-7.63551e-07 	1.50013e-15
0.0238999 	33.7741 	-7.63551e-07 	1.50013e-15
0.0241542 	33.8132 	-7.63551e-07 	1.50013e-15
0.0244084 	33.8523 	-7.63551e-07 	1.50013e-15
0.0246627 	33.8914 	-7.63551e-07 	1.50012e-15
0.0249169 	33.9306 	-7.63551e-07 	1.50012e-15
0.0251712 	33.9697 	-7.63551e-07 	1.50012e-15
0.0254254 	34.0088 	-7.63551e-07 	1.50012e-15
0.0256797 	34.0483 	-8.48827e-07 	1.51296e-15
0.0259339 	34.092 	-8.48827e-07 	1.51296e-15
0.0261882 	34.1356 	-8.48827e-07 	1.51296e-15
0.0264424 	34.1793 	-8.48827e-07 	1.51296e-15
0.0266967 	34.223 	-8.48827e-07 	1.51295e-15
0.026951 	34.2667 	-8.48827e-07 	1.51295e-15
0.0272052 	34.3103 	-8.48827e-07 	1.51295e-15
0.0274595 	34.354 	-8.48827e-07 	1.51294e-15
0.0277137 	34.3977 	-8.48827e-07 	1.51294e-15
0.027968 	34.4414 	-8.48827e-07 	1.51294e-15
0.0282222 	34.485 	-9.86484e-07 	-1.90303e-18
0.0284765 	34.5334 	-9.3553e-07 	1.52735e-15
0.0287307 	34.5819 	-9.3553e-07 	1.52734e-15
0.028985 	34.6303 	-9.3553e-07 	1.52734e-15
0.0292392 	34.6787 	-9.3553e-07 	1.52734e-15
0.0294935 	34.7271 	-9.3553e-07 	1.52733e-15
0.0297477 	34.7755 	-9.3553e-07 	1.52733e-15
0.030002 	34.8239 	-9.3553e-07 	1.52733e-15
0.0302563 	34.8723 	-9.3553e-07 	1.52732e-15
0.0305105 	34.9208 	-9.3553e-07 	1.52732e-15
0.0307648 	34.9692 	-9.3553e-07 	1.52732e-15
0.031019 	35.0221 	-1.02157e-06 	1.58769e-15
0.0312733 	35.0754 	-1.02157e-06 	1.58769e-15
0.0315275 	35.1287 	-1.02157e-06 	1.58768e-15
0.0317818 	35.1821 	-1.02157e-06 	1.58768e-15
0.032036 	35.2354 	-1.02157e-06 	1.58768e-15
0.0322903 	35.2887 	-1.02157e-06 	1.58767e-15
0.0325445 	35.3421 	-1.02157e-06 	1.58767e-15
0.0327988 	35.3954 	-1.02157e-06 	1.58767e-15
0.0330531 	35.4488 	-1.02157e-06 	1.58766e-15
0.0333073 	35.5021 	-1.02157e-06 	1.58766e-15
0.0335616 	35.5596 	-1.10903e-06 	1.54806e-15
0.0338158 	35.6181 	-1.10903e-06 	1.54805e-15
0.0340701 	35.6765 	-1.10903e-06 	1.54805e-15
0.0343243 	35.7349 	-1.10903e-06 	1.54804e-15
0.0345786 	35.7934 	-1.10903e-06 	1.54804e-15
0.0348328 	35.8518 	-1.10903e-06 	1.54804e-15
0.0350871 	35.9103 	-1.10903e-06 	1.54803e-15
0.0353413 	35.9687 	-1.10903e-06 	1.54803e-15
0.0355956 	36.0272 	-1.10903e-06 	1.54803e-15
0.0358498 	36.0856 	-1.10903e-06 	1.54802e-15
0.0361041 	36.1479 	-1.19901e-06 	1.61979e-15
0.0363584 	36.2117 	-1.19901e-06 	1.61978e-15
0.0366126 	36.2754 	-1.19901e-06 	1.61978e-15
0.0368669 	36.3392 	-1.19901e-06 	1.61977e-15
0.0371211 	36.4029 	-1.19901e-06 	1.61977e-15
0.0373754 	36.4667 	-1.19901e-06 	1.61977e-15
0.0376296 	36.5304 	-1.19901e-06 	1.61976e-15
0.0378839 	36.5942 	-1.19901e-06 	1.61976e-15
0.0381381 	36.6579 	-1.19901e-06 	1.61975e-15
0.0383924 	36.7216 	-1.19901e-06 	1.61975e-15
0.0386466 	36.7889 	-1.29336e-06 	1.6987e-15
0.0389009 	36.8581 	-1.29336e-06 	1.6987e-15
0.0391552 	36.9274 	-1.29336e-06 	1.69869e-15
0.0394094 	36.9967 	-1.29336e-06 	1.69869e-15
0.0396637 	37.0659 	-1.29336e-06 	1.69869e-15
0.0399179 	37.1352 	-1.29336e-06 	1.69868e-15
0.0401722 	37.2044 	-1.29336e-06 	1.69868e-15
0.0404264 	37.2737 	-1.29336e-06 	1.69867e-15
0.0406807 	37.3429 	-1.29336e-06 	1.69867e-15
0.0409349 	37.4122 	-1.29336e-06 	1.69866e-15
0.0411892 	37.4845 	-1.39152e-06 	1.77391e-15
0.0414434 	37.5595 	-1.39152e-06 	1.77391e-15
0.0416977 	37.6345 	-1.39152e-06 	1.7739e-15
0.041952 	37.7095 	-1.39152e-06 	1.7739e-15
0.0422062 	37.7844 	-1.39152e-06 	1.77389e-15
0.0424605 	37.8594 	-1.39152e-06 	1.77389e-15
0.0427147 	37.9344 	-1.39152e-06 	1.77388e-15
0.042969 	38.0094 	-1.39152e-06 	1.77388e-15
0.0432232 	38.0843 	-1.39152e-06 	1.77387e-15
0.0434775 	38.1593 	-1.39152e-06 	1.77387e-15
0.0437317 	38.237 	-1.49313e-06 	1.81057e-15
0.043986 	38.3179 	-1.49313e-06 	1.81056e-15
0.0442402 	38.3988 	-1.49313e-06 	1.81056e-15
0.0444945 	38.4797 	-1.49313e-06 	1.81055e-15
0.0447487 	38.5607 	-1.49313e-06 	1.81055e-15
0.045003 	38.6416 	-1.49313e-06 	1.81054e-15
0.0452573 	38.7225 	-1.49313e-06 	1.81054e-15
0.0455115 	38.8034 	-1.49313e-06 	1.81053e-15
0.0457658 	38.8843 	-1.49313e-06 	1.81053e-15
0.04602 	38.9652 	-1.49313e-06 	1.81052e-15
0.0462743 	39.0484 	-1.59808e-06 	1.79465e-15
0.0465285 	39.1355 	-1.59808e-06 	1.79465e-15
0.0467828 	39.2226 	-1.59808e-06 	1.79464e-15
0.047037 	39.3097 	-1.59808e-06 	1.79463e-15
0.0472913 	39.3968 	-1.59808e-06 	1.79463e-15
0.0475455 	39.4839 	-1.59808e-06 	1.79462e-15
0.0477998 	39.571 	-1.59808e-06 	1.79462e-15
0.0480541 	39.6581 	-1.59808e-06 	1.79461e-15
0.0483083 	39.7452 	-1.59808e-06 	1.79461e-15
0.0485626 	39.8323 	-1.59808e-06 	1.7946e-15
0.0488168 	39.9212 	-1.70621e-06 	1.7821e-15
0.0490711 	40.0147 	-1.70621e-06 	1.78209e-15
0.0493253 	40.1082 	-1.70621e-06 	1.78209e-15
0.0495796 	40.2017 	-1.70621e-06 	1.78208e-15
0.0498338 	40.2953 	-1.70621e-06 	1.78208e-15
0.0500881 	40.3888 	-1.70621e-06 	1.78207e-15
0.0503423 	40.4823 	-1.70621e-06 	1.78206e-15
0.0505966 	40.5758 	-1.70621e-06 	1.78206e-15
0.0508509 	40.6694 	-1.70621e-06 	1.78205e-15
0.0511051 	40.7629 	-1.70621e-06 	1.78205e-15
0.0513594 	40.8576 	-1.81723e-06 	1.82764e-15
0.0516136 	40.9578 	-1.81723e-06 	1.82763e-15
0.0518679 	41.058 	-1.81723e-06 	1.82762e-15
0.0521221 	41.1582 	-1.81723e-06 	1.82762e-15
0.0523764 	41.2584 	-1.81723e-06 	1.82761e-15
0.0526306 	41.3586 	-1.81723e-06 	1.8276e-15
0.0528849 	41.4588 	-1.81723e-06 	1.8276e-15
0.0531391 	41.559 	-1.81723e-06 	1.82759e-15
0.0533934 	41.6592 	-1.81723e-06 	1.82758e-15
0.0536476 	41.7594 	-1.81723e-06 	1.82758e-15
0.0539019 	41.8602 	-1.93069e-06 	1.82245e-15
0.0541562 	41.9673 	-1.93069e-06 	1.82244e-15
0.0544104 	42.0745 	-1.93069e-06 	1.82244e-15
0.0546647 	42.1816 	-1.93069e-06 	1.82243e-15
0.0549189 	42.2887 	-1.93069e-06 	1.82242e-15
0.0551732 	42.3958 	-1.93069e-06 	1.82241e-15
0.0554274 	42.503 	-1.93069e-06 	1.82241e-15
0.0556817 	42.6101 	-1.93069e-06 	1.8224e-15
0.0559359 	42.7172 	-1.93069e-06 	1.82239e-15
0.0561902 	42.8243 	-1.93069e-06 	1.82239e-15
0.0564444 	42.9315 	-2.30132e-06 	-1.89723e-18
0.0566987 	43.0458 	-2.04586e-06 	1.8612e-15
0.056953 	43.1601 	-2.04586e-06 	1.86119e-15
0.0572072 	43.2744 	-2.04586e-06 	1.86118e-15
0.0574615 	43.3887 	-2.04586e-06 	1.86118e-15
0.0577157 	43.503 	-2.04586e-06 	1.86117e-15
0.05797 	43.6173 	-2.04586e-06 	1.86116e-15
0.0582242 	43.7316 	-2.04586e-06 	1.86115e-15
0.0584785 	43.8459 	-2.04586e-06 	1.86115e-15
0.0587327 	43.9602 	-2.04586e-06 	1.86114e-15
0.058987 	44.0745 	-2.04586e-06 	1.86113e-15
0.0592412 	44.1956 	-2.16171e-06 	1.90736e-15
0.0594955 	44.3173 	-2.16171e-06 	1.90735e-15
0.0597497 	44.439 	-2.16171e-06 	1.90734e-15
0.060004 	44.5608 	-2.16171e-06 	1.90733e-15
0.0602583 	44.6825 	-2.16171e-06 	1.90732e-15
0.0605125 	44.8042 	-2.16171e-06 	1.90732e-15
0.0607668 	44.926 	-2.16171e-06 	1.90731e-15
0.061021 	45.0477 	-2.16171e-06 	1.9073e-15
0.0612753 	45.1694 	-2.16171e-06 	1.90729e-15
0.0615295 	45.2912 	-2.16171e-06 	1.90729e-15
0.0617838 	45.4192 	-2.27829e-06 	1.99816e-15
0.062038 	45.5486 	-2.27829e-06 	1.99815e-15
0.0622923 	45.678 	-2.27829e-06 	1.99814e-15
0.0625465 	45.8074 	-2.27829e-06 	1.99813e-15
0.0628008 	45.9368 	-2.27829e-06 	1.99813e-15
0.0630551 	46.0662 	-2.27829e-06 	1.99812e-15
0.0633093 	46.1956 	-2.27829e-06 	1.99811e-15
0.0635636 	46.325 	-2.27829e-06 	1.9981e-15
0.0638178 	46.4544 	-2.27829e-06 	1.99809e-15
0.0640721 	46.5838 	-2.27829e-06 	1.99808e-15
0.0643263 	46.719 	-2.39542e-06 	2.00553e-15
0.0645806 	46.8563 	-2.39542e-06 	2.00553e-15
0.0648348 	46.9936 	-2.39542e-06 	2.00552e-15
0.0650891 	47.1309 	-2.39542e-06 	2.00551e-15
0.0653433 	47.2682 	-2.39542e-06 	2.0055e-15
0.0655976 	47.4055 	-2.39542e-06 	2.00549e-15
0.0658519 	47.5428 	-2.39542e-06 	2.00548e-15
0.0661061 	47.6801 	-2.39542e-06 	2.00547e-15
0.0663604 	47.8174 	-2.39542e-06 	2.00546e-15
0.0666146 	47.9548 	-2.39542e-06 	2.00546e-15
0.0668689 	48.0972 	-2.51243e-06 	2.06048e-15
0.0671231 	48.2427 	-2.51243e-06 	2.06047e-15
0.0673774 	48.3881 	-2.51243e-06 	2.06046e-15
0.0676316 	48.5335 	-2.51243e-06 	2.06045e-15
0.0678859 	48.6789 	-2.51243e-06 	2.06044e-15
0.0681401 	48.8243 	-2.51243e-06 	2.06043e-15
0.0683944 	48.9698 	-2.51243e-06 	2.06042e-15
0.0686486 	49.1152 	-2.51243e-06 	2.06041e-15
0.0689029 	49.2606 	-2.51243e-06 	2.0604e-15
0.0691572 	49.406 	-2.51243e-06 	2.0604e-15
0.0694114 	49.556 	-2.62735e-06 	2.11826e-15
0.0696657 	49.7098 	-2.62735e-06 	2.11825e-15
0.0699199 	49.8635 	-2.62735e-06 	2.11824e-15
0.0701742 	50.0173 	-2.62735e-06 	2.11823e-15
0.0704284 	50.1711 	-2.62735e-06 	2.11822e-15
0.0706827 	50.3248 	-2.62735e-06 	2.11821e-15
0.0709369 	50.4786 	-2.62735e-06 	2.1182e-15
0.0711912 	50.6323 	-2.62735e-06 	2.11819e-15
0.0714454 	50.7861 	-2.62735e-06 	2.11818e-15
0.0716997 	50.9399 	-2.62735e-06 	2.11817e-15
0.071954 	51.0975 	-2.73057e-06 	2.17981e-15
0.0722082 	51.2598 	-2.73057e-06 	2.1798e-15
0.0724625 	51.422 	-2.73057e-06 	2.17979e-15
0.0727167 	51.5843 	-2.73057e-06 	2.17978e-15
0.072971 	51.7466 	-2.73057e-06 	2.17976e-15
0.0732252 	51.9089 	-2.73057e-06 	2.17975e-15
0.0734795 	52.0711 	-2.73057e-06 	2.17974e-15
0.0737337 	52.2334 	-2.73057e-06 	2.17973e-15
0.073988 	52.3957 	-2.73057e-06 	2.17972e-15
0.0742422 	52.558 	-2.73057e-06 	2.17971e-15
0.0744965 	52.7234 	-2.81498e-06 	2.24405e-15
0.0747508 	52.8943 	-2.81498e-06 	2.24404e-15
0.075005 	53.0652 	-2.81498e-06 	2.24403e-15
0.0752593 	53.236 	-2.81498e-06 	2.24402e-15
0.0755135 	53.4069 	-2.81498e-06 	2.24401e-15
0.0757678 	53.5778 	-2.81498e-06 	2.244e-15
0.076022 	53.7487 	-2.81498e-06 	2.24399e-15
0.0762763 	53.9196 	-2.81498e-06 	2.24398e-15
0.0765305 	54.0905 	-2.81498e-06 	2.24396e-15
0.0767848 	54.2614 	-2.81498e-06 	2.24395e-15
0.077039 	54.4346 	-2.87099e-06 	2.25935e-15
0.0772933 	54.6141 	-2.87099e-06 	2.25934e-15
0.0775475 	54.7937 	-2.87099e-06 	2.25933e-15
0.0778018 	54.9732 	-2.87099e-06 	2.25931e-15
0.0780561 	55.1527 	-2.87099e-06 	2.2593e-15
0.0783103 	55.3322 	-2.87099e-06 	2.25929e-15
0.0785646 	55.5117 	-2.87099e-06 	2.25928e-15
0.0788188 	55.6912 	-2.87099e-06 	2.25927e-15
0.0790731 	55.8707 	-2.87099e-06 	2.25926e-15
0.0793273 	56.0503 	-2.87099e-06 	2.25924e-15
0.0795816 	56.2313 	-2.89448e-06 	2.28764e-15
0.0798358 	56.4193 	-2.89448e-06 	2.28763e-15
0.0800901 	56.6073 	-2.89448e-06 	2.28761e-15
0.0803443 	56.7953 	-2.89448e-06 	2.2876e-15
0.0805986 	56.9834 	-2.89448e-06 	2.28759e-15
0.0808529 	57.1714 	-2.89448e-06 	2.28758e-15
0.0811071 	57.3594 	-2.89448e-06 	2.28757e-15
0.0813614 	57.5474 	-2.89448e-06 	2.28755e-15
0.0816156 	57.7354 	-2.89448e-06 	2.28754e-15
0.0818699 	57.9234 	-2.89448e-06 	2.28753e-15
0.0821241 	58.1122 	-2.91405e-06 	2.3546e-15
0.0823784 	58.3084 	-2.91405e-06 	2.35459e-15
0.0826326 	58.5046 	-2.91405e-06 	2.35458e-15
0.0828869 	58.7009 	-2.91405e-06 	2.35456e-15
0.0831411 	58.8971 	-2.91405e-06 	2.35455e-15
0.0833954 	59.0934 	-2.91405e-06 	2.35454e-15
0.0836496 	59.2896 	-2.91405e-06 	2.35453e-15
0.0839039 	59.4858 	-2.91405e-06 	2.35451e-15
0.0841582 	59.6821 	-2.91405e-06 	2.3545e-15
0.0844124 	59.8783 	-2.91405e-06 	2.35449e-15
0.0846667 	60.0746 	-3.83419e-06 	3.85689e-18
0.0849209 	60.2787 	-2.93316e-06 	2.41975e-15
0.0851752 	60.4829 	-2.93316e-06 	2.41974e-15
0.0854294 	60.687 	-2.93316e-06 	2.41972e-15
0.0856837 	60.8912 	-2.93316e-06 	2.41971e-15
0.0859379 	61.0953 	-2.93316e-06 	2.4197e-15
0.0861922 	61.2995 	-2.93316e-06 	2.41968e-15
0.0864464 	61.5036 	-2.93316e-06 	2.41967e-15
0.0867007 	61.7078 	-2.93316e-06 	2.41966e-15
0.086955 	61.9119 	-2.93316e-06 	2.41964e-15
0.0872092 	62.1161 	-2.93316e-06 	2.41963e-15
0.0874635 	62.3271 	-2.93061e-06 	2.48397e-15
0.0877177 	62.5388 	-2.93061e-06 	2.48396e-15
0.087972 	62.7505 	-2.93061e-06 	2.48395e-15
0.0882262 	62.9622 	-2.93061e-06 	2.48393e-15
0.0884805 	63.1739 	-2.93061e-06 	2.48392e-15
0.0887347 	63.3856 	-2.93061e-06 	2.48391e-15
0.088989 	63.5973 	-2.93061e-06 	2.48389e-15
0.0892432 	63.809 	-2.93061e-06 	2.48388e-15
0.0894975 	64.0207 	-2.93061e-06 	2.48386e-15
0.0897518 	64.2324 	-2.93061e-06 	2.48385e-15
0.090006 	64.4498 	-2.91603e-06 	2.54761e-15
0.0902603 	64.6685 	-2.91603e-06 	2.5476e-15
0.0905145 	64.8872 	-2.91603e-06 	2.54758e-15
0.0907688 	65.1059 	-2.91603e-06 	2.54757e-15
0.091023 	65.3246 	-2.91603e-06 	2.54756e-15
0.0912773 	65.5433 	-2.91603e-06 	2.54754e-15
0.0915315 	65.762 	-2.91603e-06 	2.54753e-15
0.0917858 	65.9807 	-2.91603e-06 	2.54751e-15
0.09204 	66.1994 	-2.91603e-06 	2.5475e-15
0.0922943 	66.4181 	-2.91603e-06 	2.54749e-15
0.0925485 	66.6413 	-2.90764e-06 	2.61062e-15
0.0928028 	66.8661 	-2.90764e-06 	2.61061e-15
0.0930571 	67.0909 	-2.90764e-06 	2.61059e-15
0.0933113 	67.3158 	-2.90764e-06 	2.61058e-15
0.0935656 	67.5406 	-2.90764e-06 	2.61056e-15
0.0938198 	67.7655 	-2.90764e-06 	2.61055e-15
0.0940741 	67.9903 	-2.90764e-06 	2.61054e-15
0.0943283 	68.2152 	-2.90764e-06 	2.61052e-15
0.0945826 	68.44 	-2.90764e-06 	2.61051e-15
0.0948368 	68.6649 	-2.90764e-06 	2.61049e-15
0.0950911 	68.8929 	-2.87831e-06 	2.62163e-15
0.0953453 	69.1229 	-2.87831e-06 	2.62162e-15
0.0955996 	69.3528 	-2.87831e-06 	2.6216e-15
0.0958539 	69.5827 	-2.87831e-06 	2.62159e-15
0.0961081 	69.8126 	-2.87831e-06 	2.62158e-15
0.0963624 	70.0425 	-2.87831e-06 	2.62156e-15
0.0966166 	70.2724 	-2.87831e-06 	2.62155e-15
0.0968709 	70.5023 	-2.87831e-06 	2.62153e-15
0.0971251 	70.7322 	-2.87831e-06 	2.62152e-15
0.0973794 	70.9621 	-2.87831e-06 	2.6215e-15
0.0976336 	71.194 	-2.80296e-06 	2.7332e-15
0.0978879 	71.4276 	-2.80296e-06 	2.73319e-15
0.0981421 	71.6611 	-2.80296e-06 	2.73317e-15
0.0983964 	71.8947 	-2.80296e-06 	2.73316e-15
0.0986507 	72.1282 	-2.80296e-06 	2.73314e-15
0.0989049 	72.3618 	-2.80296e-06 	2.73313e-15
0.0991592 	72.5954 	-2.80296e-06 	2.73311e-15
0.0994134 	72.8289 	-2.80296e-06 	2.7331e-15
0.0996677 	73.0625 	-2.80296e-06 	2.73308e-15
0.0999219 	73.296 	-2.80296e-06 	2.73307e-15
0.100176 	73.5304 	-2.68626e-06 	2.84762e-15
0.10043 	73.7658 	-2.68626e-06 	2.84761e-15
0.100685 	74.0012 	-2.68626e-06 	2.84759e-15
0.100939 	74.2366 	-2.68626e-06 	2.84758e-15
0.101193 	74.472 	-2.68626e-06 	2.84756e-15
0.101447 	74.7074 	-2.68626e-06 	2.84755e-15
0.101702 	74.9428 	-2.68626e-06 	2.84753e-15
0.101956 	75.1782 	-2.68626e-06 	2.84752e-15
0.10221 	75.4136 	-2.68626e-06 	2.8475e-15
0.102464 	75.649 	-2.68626e-06 	2.84748e-15
0.102719 	75.8843 	-2.51278e-06 	2.9031e-15
0.102973 	76.1194 	-2.51278e-06 	2.90309e-15
0.103227 	76.3545 	-2.51278e-06 	2.90307e-15
0.103481 	76.5896 	-2.51278e-06 	2.90306e-15
0.103736 	76.8246 	-2.51278e-06 	2.90304e-15
0.10399 	77.0597 	-2.51278e-06 	2.90303e-15
0.104244 	77.2948 	-2.51278e-06 	2.90301e-15
0.104498 	77.5299 	-2.51278e-06 	2.903e-15
0.104753 	77.765 	-2.51278e-06 	2.90298e-15
0.105007 	78 	-2.51278e-06 	2.90297e-15
0.105261 	78.2344 	-2.3279e-06 	3.00914e-15
0.105516 	78.4667 	-2.3279e-06 	3.00912e-15
0.10577 	78.699 	-2.3279e-06 	3.00911e-15
0.106024 	78.9314 	-2.3279e-06 	3.00909e-15
0.106278 	79.1637 	-2.3279e-06 	3.00908e-15
0.106533 	79.396 	-2.3279e-06 	3.00906e-15
0.106787 	79.6283 	-2.3279e-06 	3.00905e-15
0.107041 	79.8607 	-2.3279e-06 	3.00903e-15
0.107295 	80.093 	-2.3279e-06 	3.00902e-15
0.10755 	80.3253 	-2.3279e-06 	3.009e-15
0.107804 	80.5567 	-2.05371e-06 	3.09305e-15
0.108058 	80.7837 	-2.05371e-06 	3.09304e-15
0.108312 	81.0108 	-2.05371e-06 	3.09302e-15
0.108567 	81.2378 	-2.05371e-06 	3.09301e-15
0.108821 	81.4648 	-2.05371e-06 	3.093e-15
0.109075 	81.6919 	-2.05371e-06 	3.09298e-15
0.109329 	81.9189 	-2.05371e-06 	3.09297e-15
0.109584 	82.1459 	-2.05371e-06 	3.09295e-15
0.109838 	82.373 	-2.05371e-06 	3.09294e-15
0.110092 	82.6 	-2.05371e-06 	3.09292e-15
0.110346 	82.8263 	-1.74347e-06 	3.14062e-15
0.110601 	83.0452 	-1.74347e-06 	3.14061e-15
0.110855 	83.2642 	-1.74347e-06 	3.14059e-15
0.111109 	83.4831 	-1.74347e-06 	3.14058e-15
0.111363 	83.702 	-1.74347e-06 	3.14057e-15
0.111618 	83.921 	-1.74347e-06 	3.14055e-15
0.111872 	84.1399 	-1.74347e-06 	3.14054e-15
0.112126 	84.3589 	-1.74347e-06 	3.14052e-15
0.11238 	84.5778 	-1.74347e-06 	3.14051e-15
0.112635 	84.7967 	-1.74347e-06 	3.1405e-15
0.112889 	85.0157 	-2.85257e-06 	8.42741e-18
0.113143 	85.2234 	-1.41369e-06 	3.18122e-15
0.113397 	85.4311 	-1.41369e-06 	3.1812e-15
0.113652 	85.6389 	-1.41369e-06 	3.18119e-15
0.113906 	85.8466 	-1.41369e-06 	3.18118e-15
0.11416 	86.0543 	-1.41369e-06 	3.18116e-15
0.114414 	86.2621 	-1.41369e-06 	3.18115e-15
0.114669 	86.4698 	-1.41369e-06 	3.18114e-15
0.114923 	86.6776 	-1.41369e-06 	3.18112e-15
0.115177 	86.8853 	-1.41369e-06 	3.18111e-15
0.115431 	87.093 	-1.41369e-06 	3.1811e-15
0.115686 	87.2876 	-1.00503e-06 	3.21116e-15
0.11594 	87.4809 	-1.00503e-06 	3.21115e-15
0.116194 	87.6742 	-1.00503e-06 	3.21114e-15
0.116448 	87.8675 	-1.00503e-06 	3.21113e-15
0.116703 	88.0607 	-1.00503e-06 	3.21111e-15
0.116957 	88.254 	-1.00503e-06 	3.2111e-15
0.117211 	88.4473 	-1.00503e-06 	3.21109e-15
0.117465 	88.6406 	-1.00503e-06 	3.21108e-15
0.11772 	88.8338 	-1.00503e-06 	3.21106e-15
0.117974 	89.0271 	-1.00503e-06 	3.21105e-15
0.118228 	89.2058 	-5.9626e-07 	3.23243e-15
0.118482 	89.3812 	-5.9626e-07 	3.23241e-15
0.118737 	89.5566 	-5.9626e-07 	3.2324e-15
0.118991 	89.732 	-5.9626e-07 	3.23239e-15
0.119245 	89.9074 	-5.9626e-07 	3.23238e-15
0.119499 	90.0828 	-5.9626e-07 	3.23237e-15
0.119754 	90.2582 	-5.9626e-07 	3.23236e-15
0.120008 	90.4336 	-5.9626e-07 	3.23235e-15
0.120262 	90.609 	-5.9626e-07 	3.23234e-15
0.120517 	90.7844 	-5.9626e-07 	3.23232e-15
0.120771 	90.9444 	-1.87348e-07 	3.2451e-15
0.121025 	91.0986 	-1.87348e-07 	3.24509e-15
0.121279 	91.2529 	-1.87348e-07 	3.24508e-15
0.121534 	91.4071 	-1.87348e-07 	3.24507e-15
0.121788 	91.5613 	-1.87348e-07 	3.24506e-15
0.122042 	91.7155 	-1.87348e-07 	3.24505e-15
0.122296 	91.8697 	-1.87348e-07 	3.24504e-15
0.122551 	92.024 	-1.87348e-07 	3.24503e-15
0.122805 	92.1782 	-1.87348e-07 	3.24502e-15
0.123059 	92.3324 	-1.87348e-07 	3.24501e-15
0.123313 	92.4713 	2.21968e-07 	3.24968e-15
0.123568 	92.6014 	2.21968e-07 	3.24967e-15
0.123822 	92.7316 	2.21968e-07 	3.24966e-15
0.124076 	92.8617 	2.21968e-07 	3.24965e-15
0.12433 	92.9918 	2.21968e-07 	3.24965e-15
0.124585 	93.122 	2.21968e-07 	3.24964e-15
0.124839 	93.2521 	2.21968e-07 	3.24963e-15
0.125093 	93.3823 	2.21968e-07 	3.24962e-15
0.125347 	93.5124 	2.21968e-07 	3.24961e-15
0.125602 	93.6425 	2.21968e-07 	3.2496e-15
0.125856 	93.7583 	5.92843e-07 	3.24642e-15
0.12611 	93.8622 	5.92843e-07 	3.24642e-15
0.126364 	93.9661 	5.92843e-07 	3.24641e-15
0.126619 	94.0699 	5.92843e-07 	3.2464e-15
0.126873 	94.1738 	5.92843e-07 	3.24639e-15
0.127127 	94.2776 	5.92843e-07 	3.24639e-15
0.127381 	94.3815 	5.92843e-07 	3.24638e-15
0.127636 	94.4854 	5.92843e-07 	3.24637e-15
0.12789 	94.5892 	5.92843e-07 	3.24637e-15
0.128144 	94.6931 	5.92843e-07 	3.24636e-15
0.128398 	94.7845 	9.20012e-07 	3.23462e-15
0.128653 	94.8609 	9.20012e-07 	3.23461e-15
0.128907 	94.9373 	9.20012e-07 	3.23461e-15
0.129161 	95.0138 	9.20012e-07 	3.2346e-15
0.129415 	95.0902 	9.20012e-07 	3.2346e-15
0.12967 	95.1666 	9.20012e-07 	3.23459e-15
0.129924 	95.2431 	9.20012e-07 	3.23459e-15
0.130178 	95.3195 	9.20012e-07 	3.23458e-15
0.130432 	95.3959 	9.20012e-07 	3.23458e-15
0.130687 	95.4724 	9.20012e-07 	3.23457e-15
0.130941 	95.5388 	1.19736e-06 	3.21567e-15
0.131195 	95.5878 	1.19736e-06 	3.21567e-15
0.131449 	95.6368 	1.19736e-06 	3.21566e-15
0.131704 	95.6858 	1.19736e-06 	3.21566e-15
0.131958 	95.7349 	1.19736e-06 	3.21566e-15
0.132212 	95.7839 	1.19736e-06 	3.21566e-15
0.132466 	95.8329 	1.19736e-06 	3.21565e-15
0.132721 	95.8819 	1.19736e-06 	3.21565e-15
0.132975 	95.9309 	1.19736e-06 	3.21565e-15
0.133229 	95.9799 	1.19736e-06 	3.21564e-15
0.133483 	96.0217 	1.41594e-06 	3.19157e-15
0.133738 	96.0443 	1.41594e-06 	3.19157e-15
0.133992 	96.0669 	1.41594e-06 	3.19157e-15
0.134246 	96.0895 	1.41594e-06 	3.19157e-15
0.134501 	96.1121 	1.41594e-06 	3.19157e-15
0.134755 	96.1347 	1.41594e-06 	3.19156e-15
0.135009 	96.1574 	1.41594e-06 	3.19156e-15
0.135263 	96.18 	1.41594e-06 	3.19156e-15
0.135518 	96.2026 	1.41594e-06 	3.19156e-15
0.135772 	96.2252 	1.41594e-06 	3.19156e-15
0.136026 	96.2433 	1.61211e-06 	3.21111e-15
0.13628 	96.2413 	1.61211e-06 	3.21111e-15
0.136535 	96.2392 	1.61211e-06 	3.21111e-15
0.136789 	96.2372 	1.61211e-06 	3.21111e-15
0.137043 	96.2351 	1.61211e-06 	3.21111e-15
0.137297 	96.2331 	1.61211e-06 	3.21111e-15
0.137552 	96.231 	1.61211e-06 	3.21111e-15
0.137806 	96.229 	1.61211e-06 	3.21111e-15
0.13806 	96.2269 	1.61211e-06 	3.21111e-15
0.138314 	96.2249 	1.61211e-06 	3.21111e-15
0.138569 	96.2208 	1.76704e-06 	3.13004e-15
0.138823 	96.1961 	1.76704e-06 	3.13004e-15
0.139077 	96.1715 	1.76704e-06 	3.13004e-15
0.139331 	96.1469 	1.76704e-06 	3.13005e-15
0.139586 	96.1222 	1.76704e-06 	3.13005e-15
0.13984 	96.0976 	1.76704e-06 	3.13005e-15
0.140094 	96.073 	1.76704e-06 	3.13005e-15
0.140348 	96.0483 	1.76704e-06 	3.13005e-15
0.140603 	96.0237 	1.76704e-06 	3.13005e-15
0.140857 	95.999 	1.76704e-06 	3.13006e-15
0.141111 	95.9744 	9.55018e-07 	4.23079e-18
0.141365 	95.9293 	1.8919e-06 	3.10484e-15
0.14162 	95.8843 	1.8919e-06 	3.10484e-15
0.141874 	95.8392 	1.8919e-06 	3.10484e-15
0.142128 	95.7941 	1.8919e-06 	3.10485e-15
0.142382 	95.749 	1.8919e-06 	3.10485e-15
0.142637 	95.704 	1.8919e-06 	3.10485e-15
0.142891 	95.6589 	1.8919e-06 	3.10486e-15
0.143145 	95.6138 	1.8919e-06 	3.10486e-15
0.143399 	95.5688 	1.8919e-06 	3.10486e-15
0.143654 	95.5237 	1.8919e-06 	3.10487e-15
0.143908 	95.462 	2.00885e-06 	3.02409e-15
0.144162 	95.3986 	2.00885e-06 	3.0241e-15
0.144416 	95.3353 	2.00885e-06 	3.0241e-15
0.144671 	95.2719 	2.00885e-06 	3.02411e-15
0.144925 	95.2085 	2.00885e-06 	3.02411e-15
0.145179 	95.1452 	2.00885e-06 	3.02411e-15
0.145433 	95.0818 	2.00885e-06 	3.02412e-15
0.145688 	95.0185 	2.00885e-06 	3.02412e-15
0.145942 	94.9551 	2.00885e-06 	3.02413e-15
0.146196 	94.8917 	2.00885e-06 	3.02413e-15
0.14645 	94.815 	2.11452e-06 	2.93446e-15
0.146705 	94.7354 	2.11452e-06 	2.93447e-15
0.146959 	94.6557 	2.11452e-06 	2.93447e-15
0.147213 	94.576 	2.11452e-06 	2.93448e-15
0.147467 	94.4964 	2.11452e-06 	2.93448e-15
0.147722 	94.4167 	2.11452e-06 	2.93449e-15
0.147976 	94.3371 	2.11452e-06 	2.93449e-15
0.14823 	94.2574 	2.11452e-06 	2.9345e-15
0.148484 	94.1777 	2.11452e-06 	2.9345e-15
0.148739 	94.0981 	2.11452e-06 	2.93451e-15
0.148993 	94.0079 	2.21515e-06 	2.88523e-15
0.149247 	93.9138 	2.21515e-06 	2.88524e-15
0.149502 	93.8196 	2.21515e-06 	2.88524e-15
0.149756 	93.7255 	2.21515e-06 	2.88525e-15
0.15001 	93.6314 	2.21515e-06 	2.88525e-15
0.150264 	93.5373 	2.21515e-06 	2.88526e-15
0.150519 	93.4431 	2.21515e-06 	2.88527e-15
0.150773 	93.349 	2.21515e-06 	2.88527e-15
0.151027 	93.2549 	2.21515e-06 	2.88528e-15
0.151281 	93.1608 	2.21515e-06 	2.88528e-15
0.151536 	93.0585 	2.31063e-06 	2.84306e-15
0.15179 	92.9517 	2.31063e-06 	2.84307e-15
0.152044 	92.8449 	2.31063e-06 	2.84308e-15
0.152298 	92.738 	2.31063e-06 	2.84308e-15
0.152553 	92.6312 	2.31063e-06 	2.84309e-15
0.152807 	92.5243 	2.31063e-06 	2.8431e-15
0.153061 	92.4175 	2.31063e-06 	2.8431e-15
0.153315 	92.3107 	2.31063e-06 	2.84311e-15
0.15357 	92.2038 	2.31063e-06 	2.84312e-15
0.153824 	92.097 	2.31063e-06 	2.84313e-15
0.154078 	91.9841 	2.39768e-06 	2.79812e-15
0.154332 	91.8663 	2.39768e-06 	2.79812e-15
0.154587 	91.7485 	2.39768e-06 	2.79813e-15
0.154841 	91.6307 	2.39768e-06 	2.79814e-15
0.155095 	91.5128 	2.39768e-06 	2.79815e-15
0.155349 	91.395 	2.39768e-06 	2.79815e-15
0.155604 	91.2772 	2.39768e-06 	2.79816e-15
0.155858 	91.1594 	2.39768e-06 	2.79817e-15
0.156112 	91.0415 	2.39768e-06 	2.79818e-15
0.156366 	90.9237 	2.39768e-06 	2.79818e-15
0.156621 	90.8017 	2.47302e-06 	2.75186e-15
0.156875 	90.6746 	2.47302e-06 	2.75187e-15
0.157129 	90.5476 	2.47302e-06 	2.75188e-15
0.157383 	90.4205 	2.47302e-06 	2.75188e-15
0.157638 	90.2935 	2.47302e-06 	2.75189e-15
0.157892 	90.1664 	2.47302e-06 	2.7519e-15
0.158146 	90.0394 	2.47302e-06 	2.75191e-15
0.1584 	89.9124 	2.47302e-06 	2.75192e-15
0.158655 	89.7853 	2.47302e-06 	2.75192e-15
0.158909 	89.6583 	2.47302e-06 	2.75193e-15
0.159163 	89.5285 	2.53459e-06 	2.76493e-15
0.159417 	89.394 	2.53459e-06 	2.76494e-15
0.159672 	89.2596 	2.53459e-06 	2.76495e-15
0.159926 	89.1251 	2.53459e-06 	2.76496e-15
0.16018 	88.9906 	2.53459e-06 	2.76497e-15
0.160434 	88.8561 	2.53459e-06 	2.76498e-15
0.160689 	88.7217 	2.53459e-06 	2.76499e-15
0.160943 	88.5872 	2.53459e-06 	2.765e-15
0.161197 	88.4527 	2.53459e-06 	2.765e-15
0.161451 	88.3182 	2.53459e-06 	2.76501e-15
0.161706 	88.1822 	2.58176e-06 	2.76731e-15
0.16196 	88.0421 	2.58176e-06 	2.76732e-15
0.162214 	87.902 	2.58176e-06 	2.76733e-15
0.162468 	87.7619 	2.58176e-06 	2.76734e-15
0.162723 	87.6218 	2.58176e-06 	2.76734e-15
0.162977 	87.4817 	2.58176e-06 	2.76735e-15
0.163231 	87.3416 	2.58176e-06 	2.76736e-15
0.163485 	87.2015 	2.58176e-06 	2.76737e-15
0.16374 	87.0614 	2.58176e-06 	2.76738e-15
0.163994 	86.9213 	2.58176e-06 	2.76739e-15
0.164248 	86.7805 	2.61494e-06 	2.70385e-15
0.164503 	86.6365 	2.61494e-06 	2.70386e-15
0.164757 	86.4925 	2.61494e-06 	2.70387e-15
0.165011 	86.3485 	2.61494e-06 	2.70388e-15
0.165265 	86.2045 	2.61494e-06 	2.70389e-15
0.16552 	86.0605 	2.61494e-06 	2.7039e-15
0.165774 	85.9165 	2.61494e-06 	2.7039e-15
0.166028 	85.7725 	2.61494e-06 	2.70391e-15
0.166282 	85.6285 	2.61494e-06 	2.70392e-15
0.166537 	85.4845 	2.61494e-06 	2.70393e-15
0.166791 	85.3403 	2.63495e-06 	2.64995e-15
0.167045 	85.194 	2.63495e-06 	2.64996e-15
0.167299 	85.0477 	2.63495e-06 	2.64997e-15
0.167554 	84.9014 	2.63495e-06 	2.64998e-15
0.167808 	84.7552 	2.63495e-06 	2.64999e-15
0.168062 	84.6089 	2.63495e-06 	2.65e-15
0.168316 	84.4626 	2.63495e-06 	2.65001e-15
0.168571 	84.3163 	2.63495e-06 	2.65002e-15
0.168825 	84.17 	2.63495e-06 	2.65003e-15
0.169079 	84.0237 	2.63495e-06 	2.65004e-15
0.169333 	83.8774 	1.99451e-06 	1.12362e-18