0 	31.7633 	-2.72269e-07 	-6.98667e-20
0.000254254 	31.769 	-2.72283e-07 	1.44713e-15
0.000508509 	31.7748 	-2.72283e-07 	1.44713e-15
0.000762763 	31.7805 	-2.72283e-07 	1.44713e-15
0.00101702 	31.7863 	-2.72283e-07 	1.44713e-15
0.00127127 	31.792 	-2.72283e-07 	1.44713e-15
0.00152553 	31.7977 	-2.72283e-07 	1.44713e-15
0.00177978 	31.8035 	-2.72283e-07 	1.44713e-15
0.00203403 	31.8092 	-2.72283e-07 	1.44713e-15
0.00228829 	31.815 	-2.72283e-07 	1.44713e-15
0.00254254 	31.8207 	-2.72283e-07 	1.44713e-15
0.0027968 	31.8341 	-2.77739e-07 	1.44683e-15
0.00305105 	31.8482 	-2.77739e-07 	1.44683e-15
0.00330531 	31.8623 	-2.77739e-07 	1.44682e-15
0.00355956 	31.8765 	-2.77739e-07 	1.44682e-15
0.00381381 	31.8906 	-2.77739e-07 	1.44682e-15
0.00406807 	31.9048 	-2.77739e-07 	1.44682e-15
0.00432232 	31.9189 	-2.77739e-07 	1.44682e-15
0.00457658 	31.933 	-2.77739e-07 	1.44682e-15
0.00483083 	31.9472 	-2.77739e-07 	1.44682e-15
0.00508509 	31.9613 	-2.77739e-07 	1.44682e-15
0.00533934 	31.978 	-3.01056e-07 	1.48461e-15
0.00559359 	31.9952 	-3.01056e-07 	1.48461e-15
0.00584785 	32.0124 	-3.01056e-07 	1.48461e-15
0.0061021 	32.0296 	-3.01056e-07 	1.48461e-15
0.00635636 	32.0469 	-3.01056e-07 	1.48461e-15
0.00661061 	32.0641 	-3.01056e-07 	1.4846e-15
0.00686486 	32.0813 	-3.01056e-07 	1.4846e-15
0.00711912 	32.0985 	-3.01056e-07 	1.4846e-15
0.00737337 	32.1158 	-3.01056e-07 	1.4846e-15
0.00762763 	32.133 	-3.01056e-07 	1.4846e-15
0.00788188 	32.151 	-3.41304e-07 	1.48679e-15
0.00813614 	32.1692 	-3.41304e-07 	1.48678e-15
0.00839039 	32.1875 	-3.41304e-07 	1.48678e-15
0.00864464 	32.2057 	-3.41304e-07 	1.48678e-15
0.0088989 	32.224 	-3.41304e-07 	1.48678e-15
0.00915315 	32.2423 	-3.41304e-07 	1.48678e-15
0.00940741 	32.2605 	-3.41304e-07 	1.48678e-15
0.00966166 	32.2788 	-3.41304e-07 	1.48678e-15
0.00991592 	32.297 	-3.41304e-07 	1.48678e-15
0.0101702 	32.3153 	-3.41304e-07 	1.48678e-15
0.0104244 	32.3347 	-3.94623e-07 	1.53301e-15
0.0106787 	32.3548 	-3.94623e-07 	1.533e-15
0.0109329 	32.3749 	-3.94623e-07 	1.533e-15
0.0111872 	32.395 	-3.94623e-07 	1.533e-15
0.0114414 	32.415 	-3.94623e-07 	1.533e-15
0.0116957 	32.4351 	-3.94623e-07 	1.533e-15
0.0119499 	32.4552 	-3.94623e-07 	1.533e-15
0.0122042 	32.4753 	-3.94623e-07 	1.533e-15
0.0124585 	32.4954 	-3.94623e-07 	1.533e-15
0.0127127 	32.5155 	-3.94623e-07 	1.53299e-15
0.012967 	32.5371 	-4.57558e-07 	1.58003e-15
0.0132212 	32.5601 	-4.57558e-07 	1.58003e-15
0.0134755 	32.5831 	-4.57558e-07 	1.58003e-15
0.0137297 	32.6061 	-4.57558e-07 	1.58003e-15
0.013984 	32.6291 	-4.57558e-07 	1.58003e-15
0.0142382 	32.6521 	-4.57558e-07 	1.58003e-15
0.0144925 	32.6751 	-4.57558e-07 	1.58003e-15
0.0147467 	32.6981 	-4.57558e-07 	1.58002e-15
0.015001 	32.7211 	-4.57558e-07 	1.58002e-15
0.0152553 	32.7441 	-4.57558e-07 	1.58002e-15
0.0155095 	32.7687 	-5.27499e-07 	1.58188e-15
0.0157638 	32.7953 	-5.27499e-07 	1.58188e-15
0.016018 	32.8219 	-5.27499e-07 	1.58187e-15
0.0162723 	32.8485 	-5.27499e-07 	1.58187e-15
0.0165265 	32.8751 	-5.27499e-07 	1.58187e-15
0.0167808 	32.9017 	-5.27499e-07 	1.58187e-15
0.017035 	32.9283 	-5.27499e-07 	1.58187e-15
0.0172893 	32.9549 	-5.27499e-07 	1.58187e-15
0.0175435 	32.9815 	-5.27499e-07 	1.58186e-15
0.0177978 	33.0081 	-5.27499e-07 	1.58186e-15
0.0180521 	33.0361 	-6.02624e-07 	1.59129e-15
0.0183063 	33.0667 	-6.02624e-07 	1.59129e-15
0.0185606 	33.0972 	-6.02624e-07 	1.59129e-15
0.0188148 	33.1278 	-6.02624e-07 	1.59129e-15
0.0190691 	33.1584 	-6.02624e-07 	1.59128e-15
0.0193233 	33.1889 	-6.02624e-07 	1.59128e-15
0.0195776 	33.2195 	-6.02624e-07 	1.59128e-15
0.0198318 	33.2501 	-6.02624e-07 	1.59128e-15
0.0200861 	33.2806 	-6.02624e-07 	1.59128e-15
0.0203403 	33.3112 	-6.02624e-07 	1.59127e-15
0.0205946 	33.3429 	-6.81787e-07 	1.60386e-15
0.0208488 	33.3777 	-6.81787e-07 	1.60386e-15
0.0211031 	33.4124 	-6.81787e-07 	1.60385e-15
0.0213574 	33.4472 	-6.81787e-07 	1.60385e-15
0.0216116 	33.482 	-6.81787e-07 	1.60385e-15
0.0218659 	33.5167 	-6.81787e-07 	1.60385e-15
0.0221201 	33.5515 	-6.81787e-07 	1.60385e-15
0.0223744 	33.5863 	-6.81787e-07 	1.60384e-15
0.0226286 	33.621 	-6.81787e-07 	1.60384e-15
0.0228829 	33.6558 	-6.81787e-07 	1.60384e-15
0.0231371 	33.6914 	-7.64326e-07 	1.61784e-15
0.0233914 	33.7305 	-7.64326e-07 	1.61784e-15
0.0236456 	33.7697 	-7.64326e-07 	1.61784e-15
0.0238999 	33.8088 	-7.64326e-07 	1.61784e-15
0.0241542 	33.848 	-7.64326e-07 	1.61783e-15
0.0244084 	33.8872 	-7.64326e-07 	1.61783e-15
0.0246627 	33.9263 	-7.64326e-07 	1.61783e-15
0.0249169 	33.9655 	-7.64326e-07 	1.61783e-15
0.0251712 	34.0046 	-7.64326e-07 	1.61782e-15
0.0254254 	34.0438 	-7.64326e-07 	1.61782e-15
0.0256797 	34.0834 	-8.49682e-07 	1.63301e-15
0.0259339 	34.1271 	-8.49682e-07 	1.633e-15
0.0261882 	34.1708 	-8.49682e-07 	1.633e-15
0.0264424 	34.2145 	-8.49682e-07 	1.633e-15
0.0266967 	34.2583 	-8.49682e-07 	1.633e-15
0.026951 	34.302 	-8.49682e-07 	1.63299e-15
0.0272052 	34.3457 	-8.49682e-07 	1.63299e-15
0.0274595 	34.3895 	-8.49682e-07 	1.63299e-15
0.0277137 	34.4332 	-8.49682e-07 	1.63298e-15
0.027968 	34.4769 	-8.49682e-07 	1.63298e-15
0.0282222 	34.5206 	-9.8743e-07 	-1.81592e-18
0.0284765 	34.5691 	-9.36472e-07 	1.64962e-15
0.0287307 	34.6176 	-9.36472e-07 	1.64961e-15
0.028985 	34.6661 	-9.36472e-07 	1.64961e-15
0.0292392 	34.7145 	-9.36472e-07 	1.64961e-15
0.0294935 	34.763 	-9.36472e-07 	1.64961e-15
0.0297477 	34.8115 	-9.36472e-07 	1.6496e-15
0.030002 	34.86 	-9.36472e-07 	1.6496e-15
0.0302563 	34.9084 	-9.36472e-07 	1.6496e-15
0.0305105 	34.9569 	-9.36472e-07 	1.64959e-15
0.0307648 	35.0054 	-9.36472e-07 	1.64959e-15
0.031019 	35.0583 	-1.02256e-06 	1.70832e-15
0.0312733 	35.1117 	-1.02256e-06 	1.70832e-15
0.0315275 	35.1651 	-1.02256e-06 	1.70831e-15
0.0317818 	35.2185 	-1.02256e-06 	1.70831e-15
0.032036 	35.272 	-1.02256e-06 	1.7083e-15
0.0322903 	35.3254 	-1.02256e-06 	1.7083e-15
0.0325445 	35.3788 	-1.02256e-06 	1.7083e-15
0.0327988 	35.4322 	-1.02256e-06 	1.70829e-15
0.0330531 	35.4856 	-1.02256e-06 	1.70829e-15
0.0333073 	35.539 	-1.02256e-06 	1.70829e-15
0.0335616 	35.5966 	-1.11018e-06 	1.67828e-15
0.0338158 	35.6551 	-1.11018e-06 	1.67828e-15
0.0340701 	35.7136 	-1.11018e-06 	1.67827e-15
0.0343243 	35.7721 	-1.11018e-06 	1.67827e-15
0.0345786 	35.8306 	-1.11018e-06 	1.67827e-15
0.0348328 	35.8892 	-1.11018e-06 	1.67826e-15
0.0350871 	35.9477 	-1.11018e-06 	1.67826e-15
0.0353413 	36.0062 	-1.11018e-06 	1.67825e-15
0.0355956 	36.0647 	-1.11018e-06 	1.67825e-15
0.0358498 	36.1232 	-1.11018e-06 	1.67825e-15
0.0361041 	36.1856 	-1.20037e-06 	1.74756e-15
0.0363584 	36.2494 	-1.20037e-06 	1.74756e-15
0.0366126 	36.3133 	-1.20037e-06 	1.74756e-15
0.0368669 	36.3771 	-1.20037e-06 	1.74755e-15
0.0371211 	36.4409 	-1.20037e-06 	1.74755e-15
0.0373754 	36.5048 	-1.20037e-06 	1.74754e-15
0.0376296 	36.5686 	-1.20037e-06 	1.74754e-15
0.0378839 	36.6324 	-1.20037e-06 	1.74754e-15
0.0381381 	36.6963 	-1.20037e-06 	1.74753e-15
0.0383924 	36.7601 	-1.20037e-06 	1.74753e-15
0.0386466 	36.8274 	-1.29487e-06 	1.82626e-15
0.0389009 	36.8968 	-1.29487e-06 	1.82625e-15
0.0391552 	36.9661 	-1.29487e-06 	1.82625e-15
0.0394094 	37.0355 	-1.29487e-06 	1.82625e-15
0.0396637 	37.1048 	-1.29487e-06 	1.82624e-15
0.0399179 	37.1741 	-1.29487e-06 	1.82624e-15
0.0401722 	37.2435 	-1.29487e-06 	1.82623e-15
0.0404264 	37.3128 	-1.29487e-06 	1.82623e-15
0.0406807 	37.3822 	-1.29487e-06 	1.82622e-15
0.0409349 	37.4515 	-1.29487e-06 	1.82622e-15
0.0411892 	37.524 	-1.39313e-06 	1.90852e-15
0.0414434 	37.5991 	-1.39313e-06 	1.90852e-15
0.0416977 	37.6741 	-1.39313e-06 	1.90851e-15
0.041952 	37.7492 	-1.39313e-06 	1.90851e-15
0.0422062 	37.8243 	-1.39313e-06 	1.9085e-15
0.0424605 	37.8993 	-1.39313e-06 	1.9085e-15
0.0427147 	37.9744 	-1.39313e-06 	1.9085e-15
0.042969 	38.0495 	-1.39313e-06 	1.90849e-15
0.0432232 	38.1246 	-1.39313e-06 	1.90849e-15
0.0434775 	38.1996 	-1.39313e-06 	1.90848e-15
0.0437317 	38.2774 	-1.49486e-06 	1.9401e-15
0.043986 	38.3584 	-1.49486e-06 	1.94009e-15
0.0442402 	38.4395 	-1.49486e-06 	1.94009e-15
0.0444945 	38.5205 	-1.49486e-06 	1.94008e-15
0.0447487 	38.6015 	-1.49486e-06 	1.94008e-15
0.045003 	38.6825 	-1.49486e-06 	1.94007e-15
0.0452573 	38.7636 	-1.49486e-06 	1.94007e-15
0.0455115 	38.8446 	-1.49486e-06 	1.94006e-15
0.0457658 	38.9256 	-1.49486e-06 	1.94006e-15
0.04602 	39.0066 	-1.49486e-06 	1.94005e-15
0.0462743 	39.0899 	-1.59996e-06 	1.92735e-15
0.0465285 	39.1771 	-1.59996e-06 	1.92734e-15
0.0467828 	39.2643 	-1.59996e-06 	1.92733e-15
0.047037 	39.3516 	-1.59996e-06 	1.92733e-15
0.0472913 	39.4388 	-1.59996e-06 	1.92732e-15
0.0475455 	39.526 	-1.59996e-06 	1.92732e-15
0.0477998 	39.6132 	-1.59996e-06 	1.92731e-15
0.0480541 	39.7004 	-1.59996e-06 	1.92731e-15
0.0483083 	39.7876 	-1.59996e-06 	1.9273e-15
0.0485626 	39.8748 	-1.59996e-06 	1.9273e-15
0.0488168 	39.9638 	-1.70824e-06 	1.92516e-15
0.0490711 	40.0575 	-1.70824e-06 	1.92515e-15
0.0493253 	40.1511 	-1.70824e-06 	1.92515e-15
0.0495796 	40.2448 	-1.70824e-06 	1.92514e-15
0.0498338 	40.3384 	-1.70824e-06 	1.92514e-15
0.0500881 	40.4321 	-1.70824e-06 	1.92513e-15
0.0503423 	40.5257 	-1.70824e-06 	1.92512e-15
0.0505966 	40.6194 	-1.70824e-06 	1.92512e-15
0.0508509 	40.713 	-1.70824e-06 	1.92511e-15
0.0511051 	40.8067 	-1.70824e-06 	1.92511e-15
0.0513594 	40.9015 	-1.8194e-06 	1.9586e-15
0.0516136 	41.0018 	-1.8194e-06 	1.9586e-15
0.0518679 	41.1022 	-1.8194e-06 	1.95859e-15
0.0521221 	41.2025 	-1.8194e-06 	1.95858e-15
0.0523764 	41.3028 	-1.8194e-06 	1.95858e-15
0.0526306 	41.4032 	-1.8194e-06 	1.95857e-15
0.0528849 	41.5035 	-1.8194e-06 	1.95856e-15
0.0531391 	41.6038 	-1.8194e-06 	1.95856e-15
0.0533934 	41.7042 	-1.8194e-06 	1.95855e-15
0.0536476 	41.8045 	-1.8194e-06 	1.95855e-15
0.0539019 	41.9055 	-1.93296e-06 	1.95257e-15
0.0541562 	42.0127 	-1.93296e-06 	1.95256e-15
0.0544104 	42.12 	-1.93296e-06 	1.95256e-15
0.0546647 	42.2273 	-1.93296e-06 	1.95255e-15
0.0549189 	42.3345 	-1.93296e-06 	1.95254e-15
0.0551732 	42.4418 	-1.93296e-06 	1.95254e-15
0.0554274 	42.5491 	-1.93296e-06 	1.95253e-15
0.0556817 	42.6563 	-1.93296e-06 	1.95252e-15
0.0559359 	42.7636 	-1.93296e-06 	1.95252e-15
0.0561902 	42.8709 	-1.93296e-06 	1.95251e-15
0.0564444 	42.9781 	-2.3036e-06 	-1.83188e-18
0.0566987 	43.0926 	-2.0482e-06 	2.00869e-15
0.056953 	43.2071 	-2.0482e-06 	2.00868e-15
0.0572072 	43.3215 	-2.0482e-06 	2.00867e-15
0.0574615 	43.436 	-2.0482e-06 	2.00867e-15
0.0577157 	43.5504 	-2.0482e-06 	2.00866e-15
0.05797 	43.6649 	-2.0482e-06 	2.00865e-15
0.0582242 	43.7794 	-2.0482e-06 	2.00865e-15
0.0584785 	43.8938 	-2.0482e-06 	2.00864e-15
0.0587327 	44.0083 	-2.0482e-06 	2.00863e-15
0.058987 	44.1227 	-2.0482e-06 	2.00862e-15
0.0592412 	44.244 	-2.16408e-06 	2.0647e-15
0.0594955 	44.3659 	-2.16408e-06 	2.0647e-15
0.0597497 	44.4878 	-2.16408e-06 	2.06469e-15
0.060004 	44.6097 	-2.16408e-06 	2.06468e-15
0.0602583 	44.7316 	-2.16408e-06 	2.06467e-15
0.0605125 	44.8535 	-2.16408e-06 	2.06466e-15
0.0607668 	44.9754 	-2.16408e-06 	2.06466e-15
0.061021 	45.0973 	-2.16408e-06 	2.06465e-15
0.0612753 	45.2192 	-2.16408e-06 	2.06464e-15
0.0615295 	45.3411 	-2.16408e-06 	2.06463e-15
0.0617838 	45.4692 	-2.28069e-06 	2.15273e-15
0.062038 	45.5988 	-2.28069e-06 	2.15272e-15
0.0622923 	45.7284 	-2.28069e-06 	2.15271e-15
0.0625465 	45.858 	-2.28069e-06 	2.1527e-15
0.0628008 	45.9876 	-2.28069e-06 	2.15269e-15
0.0630551 	46.1171 	-2.28069e-06 	2.15269e-15
0.0633093 	46.2467 	-2.28069e-06 	2.15268e-15
0.0635636 	46.3763 	-2.28069e-06 	2.15267e-15
0.0638178 	46.5059 	-2.28069e-06 	2.15266e-15
0.0640721 	46.6355 	-2.28069e-06 	2.15265e-15
0.0643263 	46.7708 	-2.39784e-06 	2.16982e-15
0.0645806 	46.9083 	-2.39784e-06 	2.16981e-15
0.0648348 	47.0458 	-2.39784e-06 	2.1698e-15
0.0650891 	47.1833 	-2.39784e-06 	2.16979e-15
0.0653433 	47.3207 	-2.39784e-06 	2.16978e-15
0.0655976 	47.4582 	-2.39784e-06 	2.16977e-15
0.0658519 	47.5957 	-2.39784e-06 	2.16976e-15
0.0661061 	47.7332 	-2.39784e-06 	2.16976e-15
0.0663604 	47.8707 	-2.39784e-06 	2.16975e-15
0.0666146 	48.0082 	-2.39784e-06 	2.16974e-15
0.0668689 	48.1508 	-2.51493e-06 	2.23172e-15
0.0671231 	48.2965 	-2.51493e-06 	2.23171e-15
0.0673774 	48.4421 	-2.51493e-06 	2.2317e-15
0.0676316 	48.5877 	-2.51493e-06 	2.23169e-15
0.0678859 	48.7333 	-2.51493e-06 	2.23168e-15
0.0681401 	48.8789 	-2.51493e-06 	2.23167e-15
0.0683944 	49.0245 	-2.51493e-06 	2.23166e-15
0.0686486 	49.1702 	-2.51493e-06 	2.23165e-15
0.0689029 	49.3158 	-2.51493e-06 	2.23164e-15
0.0691572 	49.4614 	-2.51493e-06 	2.23163e-15
0.0694114 	49.6116 	-2.62984e-06 	2.30047e-15
0.0696657 	49.7655 	-2.62984e-06 	2.30046e-15
0.0699199 	49.9195 	-2.62984e-06 	2.30045e-15
0.0701742 	50.0735 	-2.62984e-06 	2.30044e-15
0.0704284 	50.2274 	-2.62984e-06 	2.30043e-15
0.0706827 	50.3814 	-2.62984e-06 	2.30042e-15
0.0709369 	50.5354 	-2.62984e-06 	2.30041e-15
0.0711912 	50.6893 	-2.62984e-06 	2.3004e-15
0.0714454 	50.8433 	-2.62984e-06 	2.30039e-15
0.0716997 	50.9973 	-2.62984e-06 	2.30038e-15
0.071954 	51.1551 	-2.73437e-06 	2.37023e-15
0.0722082 	51.3176 	-2.73437e-06 	2.37022e-15
0.0724625 	51.4802 	-2.73437e-06 	2.37021e-15
0.0727167 	51.6427 	-2.73437e-06 	2.3702e-15
0.072971 	51.8052 	-2.73437e-06 	2.37019e-15
0.0732252 	51.9677 	-2.73437e-06 	2.37018e-15
0.0734795 	52.1302 	-2.73437e-06 	2.37016e-15
0.0737337 	52.2927 	-2.73437e-06 	2.37015e-15
0.073988 	52.4552 	-2.73437e-06 	2.37014e-15
0.0742422 	52.6178 	-2.73437e-06 	2.37013e-15
0.0744965 	52.7834 	-2.81263e-06 	2.44088e-15
0.0747508 	52.9546 	-2.81263e-06 	2.44086e-15
0.075005 	53.1258 	-2.81263e-06 	2.44085e-15
0.0752593 	53.2969 	-2.81263e-06 	2.44084e-15
0.0755135 	53.4681 	-2.81263e-06 	2.44083e-15
0.0757678 	53.6393 	-2.81263e-06 	2.44082e-15
0.076022 	53.8105 	-2.81263e-06 	2.44081e-15
0.0762763 	53.9816 	-2.81263e-06 	2.4408e-15
0.0765305 	54.1528 	-2.81263e-06 	2.44079e-15
0.0767848 	54.324 	-2.81263e-06 	2.44078e-15
0.077039 	54.4975 	-2.85419e-06 	2.45021e-15
0.0772933 	54.6773 	-2.85419e-06 	2.4502e-15
0.0775475 	54.8571 	-2.85419e-06 	2.45019e-15
0.0778018 	55.0369 	-2.85419e-06 	2.45018e-15
0.0780561 	55.2167 	-2.85419e-06 	2.45016e-15
0.0783103 	55.3966 	-2.85419e-06 	2.45015e-15
0.0785646 	55.5764 	-2.85419e-06 	2.45014e-15
0.0788188 	55.7562 	-2.85419e-06 	2.45013e-15
0.0790731 	55.936 	-2.85419e-06 	2.45012e-15
0.0793273 	56.1158 	-2.85419e-06 	2.45011e-15
0.0795816 	56.2972 	-2.88092e-06 	2.49246e-15
0.0798358 	56.4855 	-2.88092e-06 	2.49245e-15
0.0800901 	56.6738 	-2.88092e-06 	2.49244e-15
0.0803443 	56.862 	-2.88092e-06 	2.49242e-15
0.0805986 	57.0503 	-2.88092e-06 	2.49241e-15
0.0808529 	57.2386 	-2.88092e-06 	2.4924e-15
0.0811071 	57.4269 	-2.88092e-06 	2.49239e-15
0.0813614 	57.6152 	-2.88092e-06 	2.49238e-15
0.0816156 	57.8035 	-2.88092e-06 	2.49236e-15
0.0818699 	57.9918 	-2.88092e-06 	2.49235e-15
0.0821241 	58.1809 	-2.892e-06 	2.56482e-15
0.0823784 	58.3775 	-2.892e-06 	2.56481e-15
0.0826326 	58.574 	-2.892e-06 	2.56479e-15
0.0828869 	58.7706 	-2.892e-06 	2.56478e-15
0.0831411 	58.9672 	-2.892e-06 	2.56477e-15
0.0833954 	59.1637 	-2.892e-06 	2.56475e-15
0.0836496 	59.3603 	-2.892e-06 	2.56474e-15
0.0839039 	59.5569 	-2.892e-06 	2.56473e-15
0.0841582 	59.7535 	-2.892e-06 	2.56472e-15
0.0844124 	59.95 	-2.892e-06 	2.5647e-15
0.0846667 	60.1466 	-3.82021e-06 	4.54911e-18
0.0849209 	60.3511 	-2.89955e-06 	2.63851e-15
0.0851752 	60.5557 	-2.89955e-06 	2.6385e-15
0.0854294 	60.7602 	-2.89955e-06 	2.63848e-15
0.0856837 	60.9648 	-2.89955e-06 	2.63847e-15
0.0859379 	61.1693 	-2.89955e-06 	2.63846e-15
0.0861922 	61.3738 	-2.89955e-06 	2.63845e-15
0.0864464 	61.5784 	-2.89955e-06 	2.63843e-15
0.0867007 	61.7829 	-2.89955e-06 	2.63842e-15
0.086955 	61.9875 	-2.89955e-06 	2.63841e-15
0.0872092 	62.192 	-2.89955e-06 	2.63839e-15
0.0874635 	62.4034 	-2.92349e-06 	2.71262e-15
0.0877177 	62.6155 	-2.92349e-06 	2.7126e-15
0.087972 	62.8275 	-2.92349e-06 	2.71259e-15
0.0882262 	63.0396 	-2.92349e-06 	2.71258e-15
0.0884805 	63.2517 	-2.92349e-06 	2.71256e-15
0.0887347 	63.4638 	-2.92349e-06 	2.71255e-15
0.088989 	63.6758 	-2.92349e-06 	2.71254e-15
0.0892432 	63.8879 	-2.92349e-06 	2.71252e-15
0.0894975 	64.1 	-2.92349e-06 	2.71251e-15
0.0897518 	64.3121 	-2.92349e-06 	2.71249e-15
0.090006 	64.5298 	-2.93691e-06 	2.78663e-15
0.0902603 	64.7489 	-2.93691e-06 	2.78661e-15
0.0905145 	64.9679 	-2.93691e-06 	2.7866e-15
0.0907688 	65.187 	-2.93691e-06 	2.78658e-15
0.091023 	65.406 	-2.93691e-06 	2.78657e-15
0.0912773 	65.6251 	-2.93691e-06 	2.78656e-15
0.0915315 	65.8441 	-2.93691e-06 	2.78654e-15
0.0917858 	66.0632 	-2.93691e-06 	2.78653e-15
0.09204 	66.2822 	-2.93691e-06 	2.78651e-15
0.0922943 	66.5013 	-2.93691e-06 	2.7865e-15
0.0925485 	66.7248 	-2.9214e-06 	2.85994e-15
0.0928028 	66.9501 	-2.9214e-06 	2.85993e-15
0.0930571 	67.1753 	-2.9214e-06 	2.85991e-15
0.0933113 	67.4006 	-2.9214e-06 	2.8599e-15
0.0935656 	67.6258 	-2.9214e-06 	2.85988e-15
0.0938198 	67.8511 	-2.9214e-06 	2.85987e-15
0.0940741 	68.0764 	-2.9214e-06 	2.85985e-15
0.0943283 	68.3016 	-2.9214e-06 	2.85984e-15
0.0945826 	68.5269 	-2.9214e-06 	2.85982e-15
0.0948368 	68.7521 	-2.9214e-06 	2.85981e-15
0.0950911 	68.9806 	-2.87969e-06 	2.87152e-15
0.0953453 	69.211 	-2.87969e-06 	2.87151e-15
0.0955996 	69.4414 	-2.87969e-06 	2.87149e-15
0.0958539 	69.6718 	-2.87969e-06 	2.87148e-15
0.0961081 	69.9022 	-2.87969e-06 	2.87146e-15
0.0963624 	70.1326 	-2.87969e-06 	2.87145e-15
0.0966166 	70.3629 	-2.87969e-06 	2.87143e-15
0.0968709 	70.5933 	-2.87969e-06 	2.87142e-15
0.0971251 	70.8237 	-2.87969e-06 	2.8714e-15
0.0973794 	71.0541 	-2.87969e-06 	2.87139e-15
0.0976336 	71.2865 	-2.80637e-06 	3.01002e-15
0.0978879 	71.5205 	-2.80637e-06 	3.01e-15
0.0981421 	71.7546 	-2.80637e-06 	3.00999e-15
0.0983964 	71.9887 	-2.80637e-06 	3.00997e-15
0.0986507 	72.2227 	-2.80637e-06 	3.00996e-15
0.0989049 	72.4568 	-2.80637e-06 	3.00994e-15
0.0991592 	72.6908 	-2.80637e-06 	3.00993e-15
0.0994134 	72.9249 	-2.80637e-06 	3.00991e-15
0.0996677 	73.1589 	-2.80637e-06 	3.0099e-15
0.0999219 	73.393 	-2.80637e-06 	3.00988e-15
0.100176 	73.6279 	-2.69273e-06 	3.12286e-15
0.10043 	73.8638 	-2.69273e-06 	3.12285e-15
0.100685 	74.0998 	-2.69273e-06 	3.12283e-15
0.100939 	74.3357 	-2.69273e-06 	3.12282e-15
0.101193 	74.5716 	-2.69273e-06 	3.1228e-15
0.101447 	74.8075 	-2.69273e-06 	3.12278e-15
0.101702 	75.0435 	-2.69273e-06 	3.12277e-15
0.101956 	75.2794 	-2.69273e-06 	3.12275e-15
0.10221 	75.5153 	-2.69273e-06 	3.12274e-15
0.102464 	75.7513 	-2.69273e-06 	3.12272e-15
0.102719 	75.9871 	-2.518e-06 	3.17645e-15
0.102973 	76.2227 	-2.518e-06 	3.17644e-15
0.103227 	76.4584 	-2.518e-06 	3.17642e-15
0.103481 	76.694 	-2.518e-06 	3.17641e-15
0.103736 	76.9296 	-2.518e-06 	3.17639e-15
0.10399 	77.1653 	-2.518e-06 	3.17638e-15
0.104244 	77.4009 	-2.518e-06 	3.17636e-15
0.104498 	77.6366 	-2.518e-06 	3.17635e-15
0.104753 	77.8722 	-2.518e-06 	3.17633e-15
0.105007 	78.1078 	-2.518e-06 	3.17632e-15
0.105261 	78.3427 	-2.33138e-06 	3.29944e-15
0.105516 	78.5757 	-2.33138e-06 	3.29942e-15
0.10577 	78.8086 	-2.33138e-06 	3.29941e-15
0.106024 	79.0415 	-2.33138e-06 	3.29939e-15
0.106278 	79.2745 	-2.33138e-06 	3.29938e-15
0.106533 	79.5074 	-2.33138e-06 	3.29936e-15
0.106787 	79.7403 	-2.33138e-06 	3.29935e-15
0.107041 	79.9732 	-2.33138e-06 	3.29933e-15
0.107295 	80.2062 	-2.33138e-06 	3.29932e-15
0.10755 	80.4391 	-2.33138e-06 	3.2993e-15
0.107804 	80.6711 	-2.04935e-06 	3.41299e-15
0.108058 	80.8987 	-2.04935e-06 	3.41297e-15
0.108312 	81.1264 	-2.04935e-06 	3.41296e-15
0.108567 	81.3541 	-2.04935e-06 	3.41294e-15
0.108821 	81.5817 	-2.04935e-06 	3.41293e-15
0.109075 	81.8094 	-2.04935e-06 	3.41291e-15
0.109329 	82.0371 	-2.04935e-06 	3.4129e-15
0.109584 	82.2647 	-2.04935e-06 	3.41288e-15
0.109838 	82.4924 	-2.04935e-06 	3.41287e-15
0.110092 	82.72 	-2.04935e-06 	3.41285e-15
0.110346 	82.947 	-1.73812e-06 	3.45075e-15
0.110601 	83.1666 	-1.73812e-06 	3.45074e-15
0.110855 	83.3862 	-1.73812e-06 	3.45073e-15
0.111109 	83.6058 	-1.73812e-06 	3.45071e-15
0.111363 	83.8254 	-1.73812e-06 	3.4507e-15
0.111618 	84.045 	-1.73812e-06 	3.45068e-15
0.111872 	84.2646 	-1.73812e-06 	3.45067e-15
0.112126 	84.4842 	-1.73812e-06 	3.45066e-15
0.11238 	84.7038 	-1.73812e-06 	3.45064e-15
0.112635 	84.9234 	-1.73812e-06 	3.45063e-15
0.112889 	85.143 	-2.84791e-06 	9.76765e-18
0.113143 	85.3514 	-1.39389e-06 	3.49046e-15
0.113397 	85.5598 	-1.39389e-06 	3.49045e-15
0.113652 	85.7683 	-1.39389e-06 	3.49043e-15
0.113906 	85.9767 	-1.39389e-06 	3.49042e-15
0.11416 	86.1852 	-1.39389e-06 	3.49041e-15
0.114414 	86.3936 	-1.39389e-06 	3.49039e-15
0.114669 	86.602 	-1.39389e-06 	3.49038e-15
0.114923 	86.8105 	-1.39389e-06 	3.49037e-15
0.115177 	87.0189 	-1.39389e-06 	3.49035e-15
0.115431 	87.2274 	-1.39389e-06 	3.49034e-15
0.115686 	87.4227 	-9.97181e-07 	3.51845e-15
0.11594 	87.6166 	-9.97181e-07 	3.51843e-15
0.116194 	87.8106 	-9.97181e-07 	3.51842e-15
0.116448 	88.0046 	-9.97181e-07 	3.51841e-15
0.116703 	88.1986 	-9.97181e-07 	3.5184e-15
0.116957 	88.3926 	-9.97181e-07 	3.51838e-15
0.117211 	88.5866 	-9.97181e-07 	3.51837e-15
0.117465 	88.7806 	-9.97181e-07 	3.51836e-15
0.11772 	88.9745 	-9.97181e-07 	3.51835e-15
0.117974 	89.1685 	-9.97181e-07 	3.51833e-15
0.118228 	89.3479 	-5.95621e-07 	3.53656e-15
0.118482 	89.524 	-5.95621e-07 	3.53655e-15
0.118737 	89.7001 	-5.95621e-07 	3.53654e-15
0.118991 	89.8762 	-5.95621e-07 	3.53653e-15
0.119245 	90.0523 	-5.95621e-07 	3.53652e-15
0.119499 	90.2284 	-5.95621e-07 	3.53651e-15
0.119754 	90.4046 	-5.95621e-07 	3.5365e-15
0.120008 	90.5807 	-5.95621e-07 	3.53648e-15
0.120262 	90.7568 	-5.95621e-07 	3.53647e-15
0.120517 	90.9329 	-5.95621e-07 	3.53646e-15
0.120771 	91.0936 	-1.87964e-07 	3.54513e-15
0.121025 	91.2485 	-1.87964e-07 	3.54512e-15
0.121279 	91.4034 	-1.87964e-07 	3.54511e-15
0.121534 	91.5584 	-1.87964e-07 	3.5451e-15
0.121788 	91.7133 	-1.87964e-07 	3.54509e-15
0.122042 	91.8682 	-1.87964e-07 	3.54508e-15
0.122296 	92.0231 	-1.87964e-07 	3.54507e-15
0.122551 	92.178 	-1.87964e-07 	3.54506e-15
0.122805 	92.333 	-1.87964e-07 	3.54505e-15
0.123059 	92.4879 	-1.87964e-07 	3.54504e-15
0.123313 	92.6275 	2.22228e-07 	3.54471e-15
0.123568 	92.7583 	2.22228e-07 	3.5447e-15
0.123822 	92.8891 	2.22228e-07 	3.54469e-15
0.124076 	93.0199 	2.22228e-07 	3.54468e-15
0.12433 	93.1508 	2.22228e-07 	3.54467e-15
0.124585 	93.2816 	2.22228e-07 	3.54467e-15
0.124839 	93.4124 	2.22228e-07 	3.54466e-15
0.125093 	93.5432 	2.22228e-07 	3.54465e-15
0.125347 	93.674 	2.22228e-07 	3.54464e-15
0.125602 	93.8049 	2.22228e-07 	3.54463e-15
0.125856 	93.9213 	5.94028e-07 	3.53578e-15
0.12611 	94.0258 	5.94028e-07 	3.53578e-15
0.126364 	94.1304 	5.94028e-07 	3.53577e-15
0.126619 	94.2349 	5.94028e-07 	3.53576e-15
0.126873 	94.3394 	5.94028e-07 	3.53576e-15
0.127127 	94.4439 	5.94028e-07 	3.53575e-15
0.127381 	94.5484 	5.94028e-07 	3.53574e-15
0.127636 	94.6529 	5.94028e-07 	3.53574e-15
0.12789 	94.7574 	5.94028e-07 	3.53573e-15
0.128144 	94.8619 	5.94028e-07 	3.53572e-15
0.128398 	94.9539 	9.21498e-07 	3.51792e-15
0.128653 	95.0309 	9.21498e-07 	3.51792e-15
0.128907 	95.1079 	9.21498e-07 	3.51791e-15
0.129161 	95.185 	9.21498e-07 	3.51791e-15
0.129415 	95.262 	9.21498e-07 	3.5179e-15
0.12967 	95.339 	9.21498e-07 	3.5179e-15
0.129924 	95.416 	9.21498e-07 	3.51789e-15
0.130178 	95.493 	9.21498e-07 	3.51789e-15
0.130432 	95.57 	9.21498e-07 	3.51788e-15
0.130687 	95.647 	9.21498e-07 	3.51788e-15
0.130941 	95.7141 	1.19923e-06 	3.49277e-15
0.131195 	95.7636 	1.19923e-06 	3.49277e-15
0.131449 	95.8131 	1.19923e-06 	3.49277e-15
0.131704 	95.8626 	1.19923e-06 	3.49276e-15
0.131958 	95.9121 	1.19923e-06 	3.49276e-15
0.132212 	95.9616 	1.19923e-06 	3.49276e-15
0.132466 	96.0111 	1.19923e-06 	3.49275e-15
0.132721 	96.0606 	1.19923e-06 	3.49275e-15
0.132975 	96.1101 	1.19923e-06 	3.49275e-15
0.133229 	96.1596 	1.19923e-06 	3.49275e-15
0.133483 	96.2019 	1.4183e-06 	3.46245e-15
0.133738 	96.2249 	1.4183e-06 	3.46245e-15
0.133992 	96.2479 	1.4183e-06 	3.46244e-15
0.134246 	96.2709 	1.4183e-06 	3.46244e-15
0.134501 	96.2939 	1.4183e-06 	3.46244e-15
0.134755 	96.3169 	1.4183e-06 	3.46244e-15
0.135009 	96.34 	1.4183e-06 	3.46244e-15
0.135263 	96.363 	1.4183e-06 	3.46244e-15
0.135518 	96.386 	1.4183e-06 	3.46244e-15
0.135772 	96.409 	1.4183e-06 	3.46243e-15
0.136026 	96.4275 	1.615e-06 	3.47345e-15
0.13628 	96.4257 	1.615e-06 	3.47345e-15
0.136535 	96.424 	1.615e-06 	3.47345e-15
0.136789 	96.4222 	1.615e-06 	3.47345e-15
0.137043 	96.4205 	1.615e-06 	3.47345e-15
0.137297 	96.4187 	1.615e-06 	3.47346e-15
0.137552 	96.4169 	1.615e-06 	3.47346e-15
0.137806 	96.4152 	1.615e-06 	3.47346e-15
0.13806 	96.4134 	1.615e-06 	3.47346e-15
0.138314 	96.4117 	1.615e-06 	3.47346e-15
0.138569 	96.4078 	1.77031e-06 	3.38947e-15
0.138823 	96.3834 	1.77031e-06 	3.38947e-15
0.139077 	96.3589 	1.77031e-06 	3.38947e-15
0.139331 	96.3344 	1.77031e-06 	3.38947e-15
0.139586 	96.31 	1.77031e-06 	3.38948e-15
0.13984 	96.2855 	1.77031e-06 	3.38948e-15
0.140094 	96.261 	1.77031e-06 	3.38948e-15
0.140348 	96.2366 	1.77031e-06 	3.38948e-15
0.140603 	96.2121 	1.77031e-06 	3.38948e-15
0.140857 	96.1876 	1.77031e-06 	3.38948e-15
0.141111 	96.1632 	9.57453e-07 	5.06852e-18
0.141365 	96.1181 	1.89531e-06 	3.35897e-15
0.14162 	96.0731 	1.89531e-06 	3.35897e-15
0.141874 	96.0281 	1.89531e-06 	3.35898e-15
0.142128 	95.9831 	1.89531e-06 	3.35898e-15
0.142382 	95.938 	1.89531e-06 	3.35898e-15
0.142637 	95.893 	1.89531e-06 	3.35898e-15
0.142891 	95.848 	1.89531e-06 	3.35899e-15
0.143145 	95.803 	1.89531e-06 	3.35899e-15
0.143399 	95.7579 	1.89531e-06 	3.35899e-15
0.143654 	95.7129 	1.89531e-06 	3.359e-15
0.143908 	95.6512 	2.01235e-06 	3.26547e-15
0.144162 	95.5877 	2.01235e-06 	3.26548e-15
0.144416 	95.5243 	2.01235e-06 	3.26548e-15
0.144671 	95.4608 	2.01235e-06 	3.26548e-15
0.144925 	95.3974 	2.01235e-06 	3.26549e-15
0.145179 	95.334 	2.01235e-06 	3.26549e-15
0.145433 	95.2705 	2.01235e-06 	3.2655e-15
0.145688 	95.2071 	2.01235e-06 	3.2655e-15
0.145942 	95.1436 	2.01235e-06 	3.2655e-15
0.146196 	95.0802 	2.01235e-06 	3.26551e-15
0.14645 	95.0033 	2.11811e-06 	3.16415e-15
0.146705 	94.9235 	2.11811e-06 	3.16415e-15
0.146959 	94.8436 	2.11811e-06 	3.16416e-15
0.147213 	94.7638 	2.11811e-06 	3.16416e-15
0.147467 	94.6839 	2.11811e-06 	3.16417e-15
0.147722 	94.604 	2.11811e-06 	3.16417e-15
0.147976 	94.5242 	2.11811e-06 	3.16418e-15
0.14823 	94.4443 	2.11811e-06 	3.16418e-15
0.148484 	94.3645 	2.11811e-06 	3.16419e-15
0.148739 	94.2846 	2.11811e-06 	3.16419e-15
0.148993 	94.1942 	2.21881e-06 	3.11809e-15
0.149247 	94.0997 	2.21881e-06 	3.1181e-15
0.149502 	94.0053 	2.21881e-06 	3.11811e-15
0.149756 	93.9109 	2.21881e-06 	3.11811e-15
0.15001 	93.8164 	2.21881e-06 	3.11812e-15
0.150264 	93.722 	2.21881e-06 	3.11812e-15
0.150519 	93.6276 	2.21881e-06 	3.11813e-15
0.150773 	93.5332 	2.21881e-06 	3.11814e-15
0.151027 	93.4387 	2.21881e-06 	3.11814e-15
0.151281 	93.3443 	2.21881e-06 	3.11815e-15
0.151536 	93.2417 	2.31437e-06 	3.0741e-15
0.15179 	93.1345 	2.31437e-06 	3.07411e-15
0.152044 	93.0272 	2.31437e-06 	3.07412e-15
0.152298 	92.92 	2.31437e-06 	3.07412e-15
0.152553 	92.8127 	2.31437e-06 	3.07413e-15
0.152807 	92.7055 	2.31437e-06 	3.07414e-15
0.153061 	92.5983 	2.31437e-06 	3.07415e-15
0.153315 	92.491 	2.31437e-06 	3.07415e-15
0.15357 	92.3838 	2.31437e-06 	3.07416e-15
0.153824 	92.2765 	2.31437e-06 	3.07417e-15
0.154078 	92.1633 	2.4015e-06 	3.0256e-15
0.154332 	92.045 	2.4015e-06 	3.02561e-15
0.154587 	91.9266 	2.4015e-06 	3.02562e-15
0.154841 	91.8083 	2.4015e-06 	3.02562e-15
0.155095 	91.69 	2.4015e-06 	3.02563e-15
0.155349 	91.5717 	2.4015e-06 	3.02564e-15
0.155604 	91.4534 	2.4015e-06 	3.02565e-15
0.155858 	91.3351 	2.4015e-06 	3.02565e-15
0.156112 	91.2168 	2.4015e-06 	3.02566e-15
0.156366 	91.0985 	2.4015e-06 	3.02567e-15
0.156621 	90.9759 	2.47692e-06 	2.97425e-15
0.156875 	90.8483 	2.47692e-06 	2.97426e-15
0.157129 	90.7207 	2.47692e-06 	2.97427e-15
0.157383 	90.5931 	2.47692e-06 	2.97428e-15
0.157638 	90.4655 	2.47692e-06 	2.97428e-15
0.157892 	90.3379 	2.47692e-06 	2.97429e-15
0.158146 	90.2103 	2.47692e-06 	2.9743e-15
0.1584 	90.0827 	2.47692e-06 	2.97431e-15
0.158655 	89.9551 	2.47692e-06 	2.97432e-15
0.158909 	89.8275 	2.47692e-06 	2.97433e-15
0.159163 	89.6972 	2.53852e-06 	2.97505e-15
0.159417 	89.5621 	2.53852e-06 	2.97506e-15
0.159672 	89.427 	2.53852e-06 	2.97507e-15
0.159926 	89.292 	2.53852e-06 	2.97508e-15
0.16018 	89.1569 	2.53852e-06 	2.97509e-15
0.160434 	89.0218 	2.53852e-06 	2.9751e-15
0.160689 	88.8867 	2.53852e-06 	2.97511e-15
0.160943 	88.7516 	2.53852e-06 	2.97512e-15
0.161197 	88.6166 	2.53852e-06 	2.97512e-15
0.161451 	88.4815 	2.53852e-06 	2.97513e-15
0.161706 	88.3449 	2.5857e-06 	2.97696e-15
0.16196 	88.2041 	2.5857e-06 	2.97697e-15
0.162214 	88.0634 	2.5857e-06 	2.97698e-15
0.162468 	87.9226 	2.5857e-06 	2.97699e-15
0.162723 	87.7819 	2.5857e-06 	2.977e-15
0.162977 	87.6411 	2.5857e-06 	2.977e-15
0.163231 	87.5004 	2.5857e-06 	2.97701e-15
0.163485 	87.3596 	2.5857e-06 	2.97702e-15
0.16374 	87.2189 	2.5857e-06 	2.97703e-15
0.163994 	87.0782 	2.5857e-06 	2.97704e-15
0.164248 	86.9367 	2.61884e-06 	2.91482e-15
0.164503 	86.792 	2.61884e-06 	2.91483e-15
0.164757 	86.6474 	2.61884e-06 	2.91484e-15
0.165011 	86.5027 	2.61884e-06 	2.91485e-15
0.165265 	86.3581 	2.61884e-06 	2.91486e-15
0.16552 	86.2134 	2.61884e-06 	2.91487e-15
0.165774 	86.0687 	2.61884e-06 	2.91488e-15
0.166028 	85.9241 	2.61884e-06 	2.91489e-15
0.166282 	85.7794 	2.61884e-06 	2.9149e-15
0.166537 	85.6348 	2.61884e-06 	2.91491e-15
0.166791 	85.4899 	2.63877e-06 	2.85935e-15
0.167045 	85.3429 	2.63877e-06 	2.85936e-15
0.167299 	85.196 	2.63877e-06 	2.85937e-15
0.167554 	85.049 	2.63877e-06 	2.85938e-15
0.167808 	84.9021 	2.63877e-06 	2.85939e-15
0.168062 	84.7551 	2.63877e-06 	2.8594e-15
0.168316 	84.6082 	2.63877e-06 	2.85941e-15
0.168571 	84.4612 	2.63877e-06 	2.85942e-15
0.168825 	84.3143 	2.63877e-06 	2.85942e-15
0.169079 	84.1673 	2.63877e-06 	2.85943e-15
0.169333 	84.0204 	1.99806e-06 	1.64671e-18
0.169588 	83.8726 	2.64622e-06 	2.85648e-15
0.169842 	83.7248 	2.64622e-06 	2.85649e-15