0 	6787.91
0.000254254 	6787.72
0.000508509 	6787.53
0.000762763 	6787.29
0.00101702 	6787.02
0.00127127 	6786.74
0.00152553 	6786.47
0.00177978 	6786.2
0.00203403 	6785.91
0.00228829 	6785.58
0.00254254 	6785.24
0.0027968 	6784.91
0.00305105 	6784.58
0.00330531 	6784.23
0.00355956 	6783.86
0.00381381 	6783.49
0.00406807 	6783.12
0.00432232 	6782.75
0.00457658 	6782.36
0.00483083 	6781.95
0.00508509 	6781.54
0.00533934 	6781.12
0.00559359 	6780.71
0.00584785 	6780.29
0.0061021 	6779.87
0.00635636 	6779.45
0.00661061 	6779.03
0.00686486 	6778.61
0.00711912 	6778.19
0.00737337 	6777.77
0.00762763 	6777.34
0.00788188 	6776.91
0.00813614 	6776.49
0.00839039 	6776.06
0.00864464 	6775.63
0.0088989 	6775.19
0.00915315 	6774.76
0.00940741 	6774.33
0.00966166 	6773.9
0.00991592 	6773.47
0.0101702 	6773.03
0.0104244 	6772.6
0.0106787 	6772.16
0.0109329 	6771.72
0.0111872 	6771.27
0.0114414 	6770.83
0.0116957 	6770.38
0.0119499 	6769.93
0.0122042 	6769.48
0.0124585 	6769.02
0.0127127 	6768.56
0.012967 	6768.1
0.0132212 	6767.64
0.0134755 	6767.17
0.0137297 	6766.69
0.013984 	6766.21
0.0142382 	6765.73
0.0144925 	6765.25
0.0147467 	6764.77
0.015001 	6764.28
0.0152553 	6763.78
0.0155095 	6763.28
0.0157638 	6762.78
0.016018 	6762.28
0.0162723 	6761.76
0.0165265 	6761.24
0.0167808 	6760.72
0.017035 	6760.2
0.0172893 	6759.68
0.0175435 	6759.15
0.0177978 	6758.62
0.0180521 	6758.08
0.0183063 	6757.54
0.0185606 	6756.99
0.0188148 	6756.43
0.0190691 	6755.87
0.0193233 	6755.31
0.0195776 	6754.75
0.0198318 	6754.19
0.0200861 	6753.62
0.0203403 	6753.04
0.0205946 	6752.46
0.0208488 	6751.88
0.0211031 	6751.29
0.0213574 	6750.69
0.0216116 	6750.09
0.0218659 	6749.49
0.0221201 	6748.88
0.0223744 	6748.28
0.0226286 	6747.67
0.0228829 	6747.05
0.0231371 	6746.43
0.0233914 	6745.8
0.0236456 	6745.17
0.0238999 	6744.53
0.0241542 	6743.88
0.0244084 	6743.23
0.0246627 	6742.58
0.0249169 	6741.94
0.0251712 	6741.29
0.0254254 	6740.62
0.0256797 	6739.95
0.0259339 	6739.28
0.0261882 	6738.61
0.0264424 	6737.91
0.0266967 	6737.22
0.026951 	6736.52
0.0272052 	6735.83
0.0274595 	6735.14
0.0277137 	6734.44
0.027968 	6733.73
0.0282222 	6733.01
0.0284765 	6732.29
0.0287307 	6731.57
0.028985 	6730.82
0.0292392 	6730.08
0.0294935 	6729.34
0.0297477 	6728.59
0.030002 	6727.85
0.0302563 	6727.1
0.0305105 	6726.34
0.0307648 	6725.58
0.031019 	6724.8
0.0312733 	6724.03
0.0315275 	6723.23
0.0317818 	6722.44
0.032036 	6721.64
0.0322903 	6720.84
0.0325445 	6720.05
0.0327988 	6719.25
0.0330531 	6718.44
0.0333073 	6717.62
0.0335616 	6716.79
0.0338158 	6715.97
0.0340701 	6715.11
0.0343243 	6714.26
0.0345786 	6713.41
0.0348328 	6712.55
0.0350871 	6711.7
0.0353413 	6710.85
0.0355956 	6709.98
0.0358498 	6709.1
0.0361041 	6708.22
0.0363584 	6707.33
0.0366126 	6706.42
0.0368669 	6705.51
0.0371211 	6704.6
0.0373754 	6703.68
0.0376296 	6702.77
0.0378839 	6701.86
0.0381381 	6700.94
0.0383924 	6700
0.0386466 	6699.05
0.0389009 	6698.1
0.0391552 	6697.13
0.0394094 	6696.15
0.0396637 	6695.17
0.0399179 	6694.19
0.0401722 	6693.22
0.0404264 	6692.24
0.0406807 	6691.26
0.0409349 	6690.26
0.0411892 	6689.25
0.0414434 	6688.23
0.0416977 	6687.18
0.041952 	6686.14
0.0422062 	6685.09
0.0424605 	6684.04
0.0427147 	6683
0.042969 	6681.95
0.0432232 	6680.9
0.0434775 	6679.83
0.0437317 	6678.75
0.043986 	6677.66
0.0442402 	6676.54
0.0444945 	6675.42
0.0447487 	6674.3
0.045003 	6673.18
0.0452573 	6672.06
0.0455115 	6670.94
0.0457658 	6669.82
0.04602 	6668.68
0.0462743 	6667.52
0.0465285 	6666.35
0.0467828 	6665.15
0.047037 	6663.95
0.0472913 	6662.75
0.0475455 	6661.55
0.0477998 	6660.35
0.0480541 	6659.14
0.0483083 	6657.94
0.0485626 	6656.73
0.0488168 	6655.49
0.0490711 	6654.23
0.0493253 	6652.95
0.0495796 	6651.66
0.0498338 	6650.37
0.0500881 	6649.08
0.0503423 	6647.79
0.0505966 	6646.51
0.0508509 	6645.22
0.0511051 	6643.93
0.0513594 	6642.6
0.0516136 	6641.25
0.0518679 	6639.87
0.0521221 	6638.48
0.0523764 	6637.1
0.0526306 	6635.72
0.0528849 	6634.34
0.0531391 	6632.96
0.0533934 	6631.58
0.0536476 	6630.19
0.0539019 	6628.78
0.0541562 	6627.32
0.0544104 	6625.84
0.0546647 	6624.36
0.0549189 	6622.87
0.0551732 	6621.39
0.0554274 	6619.91
0.0556817 	6618.42
0.0559359 	6616.94
0.0561902 	6615.45
0.0564444 	6613.95
0.0566987 	6612.38
0.056953 	6610.79
0.0572072 	6609.19
0.0574615 	6607.6
0.0577157 	6606.01
0.05797 	6604.41
0.0582242 	6602.82
0.0584785 	6601.23
0.0587327 	6599.63
0.058987 	6598.03
0.0592412 	6596.34
0.0594955 	6594.63
0.0597497 	6592.91
0.060004 	6591.2
0.0602583 	6589.49
0.0605125 	6587.78
0.0607668 	6586.06
0.061021 	6584.35
0.0612753 	6582.64
0.0615295 	6580.93
0.0617838 	6579.11
0.062038 	6577.27
0.0622923 	6575.43
0.0625465 	6573.59
0.0628008 	6571.75
0.0630551 	6569.91
0.0633093 	6568.07
0.0635636 	6566.24
0.0638178 	6564.4
0.0640721 	6562.56
0.0643263 	6560.62
0.0645806 	6558.65
0.0648348 	6556.67
0.0650891 	6554.7
0.0653433 	6552.72
0.0655976 	6550.75
0.0658519 	6548.77
0.0661061 	6546.8
0.0663604 	6544.82
0.0666146 	6542.85
0.0668689 	6540.78
0.0671231 	6538.65
0.0673774 	6536.53
0.0676316 	6534.41
0.0678859 	6532.29
0.0681401 	6530.16
0.0683944 	6528.04
0.0686486 	6525.92
0.0689029 	6523.8
0.0691572 	6521.67
0.0694114 	6519.46
0.0696657 	6517.18
0.0699199 	6514.9
0.0701742 	6512.62
0.0704284 	6510.33
0.0706827 	6508.05
0.0709369 	6505.77
0.0711912 	6503.48
0.0714454 	6501.2
0.0716997 	6498.92
0.071954 	6496.55
0.0722082 	6494.1
0.0724625 	6491.64
0.0727167 	6489.18
0.072971 	6486.73
0.0732252 	6484.27
0.0734795 	6481.81
0.0737337 	6479.36
0.073988 	6476.9
0.0742422 	6474.45
0.0744965 	6471.91
0.0747508 	6469.29
0.075005 	6466.65
0.0752593 	6464.01
0.0755135 	6461.37
0.0757678 	6458.73
0.076022 	6456.1
0.0762763 	6453.46
0.0765305 	6450.82
0.0767848 	6448.18
0.077039 	6445.46
0.0772933 	6442.67
0.0775475 	6439.85
0.0778018 	6437.02
0.0780561 	6434.19
0.0783103 	6431.37
0.0785646 	6428.54
0.0788188 	6425.72
0.0790731 	6422.89
0.0793273 	6420.06
0.0795816 	6417.15
0.0798358 	6414.19
0.0800901 	6411.17
0.0803443 	6408.15
0.0805986 	6405.13
0.0808529 	6402.1
0.0811071 	6399.08
0.0813614 	6396.06
0.0816156 	6393.04
0.0818699 	6390.01
0.0821241 	6386.9
0.0823784 	6383.76
0.0826326 	6380.54
0.0828869 	6377.31
0.0831411 	6374.09
0.0833954 	6370.86
0.0836496 	6367.64
0.0839039 	6364.42
0.0841582 	6361.19
0.0844124 	6357.95
0.0846667 	6354.64
0.0849209 	6351.3
0.0851752 	6347.89
0.0854294 	6344.46
0.0856837 	6341.03
0.0859379 	6337.6
0.0861922 	6334.17
0.0864464 	6330.74
0.0867007 	6327.31
0.086955 	6323.86
0.0872092 	6320.34
0.0874635 	6316.8
0.0877177 	6313.21
0.087972 	6309.58
0.0882262 	6305.95
0.0884805 	6302.31
0.0887347 	6298.68
0.088989 	6295.05
0.0892432 	6291.42
0.0894975 	6287.76
0.0897518 	6284.04
0.090006 	6280.3
0.0902603 	6276.53
0.0905145 	6272.7
0.0907688 	6268.88
0.091023 	6265.05
0.0912773 	6261.23
0.0915315 	6257.4
0.0917858 	6253.57
0.09204 	6249.71
0.0922943 	6245.8
0.0925485 	6241.87
0.0928028 	6237.93
0.0930571 	6233.91
0.0933113 	6229.9
0.0935656 	6225.88
0.0938198 	6221.86
0.0940741 	6217.84
0.0943283 	6213.83
0.0945826 	6209.77
0.0948368 	6205.66
0.0950911 	6201.54
0.0953453 	6197.43
0.0955996 	6193.24
0.0958539 	6189.04
0.0961081 	6184.84
0.0963624 	6180.65
0.0966166 	6176.45
0.0968709 	6172.25
0.0971251 	6168.01
0.0973794 	6163.73
0.0976336 	6159.44
0.0978879 	6155.16
0.0981421 	6150.84
0.0983964 	6146.48
0.0986507 	6142.13
0.0989049 	6137.78
0.0991592 	6133.43
0.0994134 	6129.08
0.0996677 	6124.69
0.0999219 	6120.27
0.100176 	6115.85
0.10043 	6111.43
0.100685 	6106.99
0.100939 	6102.53
0.101193 	6098.06
0.101447 	6093.6
0.101702 	6089.13
0.101956 	6084.66
0.10221 	6080.17
0.102464 	6075.66
0.102719 	6071.14
0.102973 	6066.63
0.103227 	6062.11
0.103481 	6057.58
0.103736 	6053.04
0.10399 	6048.51
0.104244 	6043.98
0.104498 	6039.44
0.104753 	6034.89
0.105007 	6030.34
0.105261 	6025.78
0.105516 	6021.23
0.10577 	6016.67
0.106024 	6012.12
0.106278 	6007.58
0.106533 	6003.03
0.106787 	5998.49
0.107041 	5993.94
0.107295 	5989.4
0.10755 	5984.86
0.107804 	5980.32
0.108058 	5975.78
0.108312 	5971.25
0.108567 	5966.74
0.108821 	5962.24
0.109075 	5957.74
0.109329 	5953.25
0.109584 	5948.75
0.109838 	5944.28
0.110092 	5939.82
0.110346 	5935.37
0.110601 	5930.92
0.110855 	5926.47
0.111109 	5922.06
0.111363 	5917.68
0.111618 	5913.31
0.111872 	5908.93
0.112126 	5904.55
0.11238 	5900.22
0.112635 	5895.92
0.112889 	5891.61
0.113143 	5887.31
0.113397 	5883.01
0.113652 	5878.75
0.113906 	5874.57
0.11416 	5870.38
0.114414 	5866.2
0.114669 	5862.01
0.114923 	5857.91
0.115177 	5853.83
0.115431 	5849.75
0.115686 	5845.68
0.11594 	5841.62
0.116194 	5837.57
0.116448 	5833.66
0.116703 	5829.74
0.116957 	5825.82
0.117211 	5821.9
0.117465 	5818.08
0.11772 	5814.31
0.117974 	5810.54
0.118228 	5806.78
0.118482 	5803.03
0.118737 	5799.27
0.118991 	5795.7
0.119245 	5792.13
0.119499 	5788.56
0.119754 	5784.99
0.120008 	5781.53
0.120262 	5778.14
0.120517 	5774.75
0.120771 	5771.38
0.121025 	5768.01
0.121279 	5764.64
0.121534 	5761.45
0.121788 	5758.3
0.122042 	5755.15
0.122296 	5751.99
0.122551 	5748.97
0.122805 	5746.03
0.123059 	5743.09
0.123313 	5740.16
0.123568 	5737.25
0.123822 	5734.33
0.124076 	5731.59
0.12433 	5728.91
0.124585 	5726.24
0.124839 	5723.56
0.125093 	5721.01
0.125347 	5718.57
0.125602 	5716.13
0.125856 	5713.71
0.12611 	5711.3
0.126364 	5708.89
0.126619 	5706.63
0.126873 	5704.47
0.127127 	5702.31
0.127381 	5700.14
0.127636 	5698.1
0.12789 	5696.19
0.128144 	5694.28
0.128398 	5692.38
0.128653 	5690.49
0.128907 	5688.61
0.129161 	5686.86
0.129415 	5685.22
0.12967 	5683.59
0.129924 	5681.95
0.130178 	5680.41
0.130432 	5679.03
0.130687 	5677.64
0.130941 	5676.27
0.131195 	5674.91
0.131449 	5673.55
0.131704 	5672.29
0.131958 	5671.17
0.132212 	5670.05
0.132466 	5668.92
0.132721 	5667.86
0.132975 	5666.98
0.133229 	5666.1
0.133483 	5665.22
0.133738 	5664.35
0.133992 	5663.49
0.134246 	5662.71
0.134501 	5662.06
0.134755 	5661.41
0.135009 	5660.76
0.135263 	5660.15
0.135518 	5659.72
0.135772 	5659.28
0.136026 	5658.86
0.13628 	5658.44
0.136535 	5658.03
0.136789 	5657.67
0.137043 	5657.45
0.137297 	5657.23
0.137552 	5657
0.137806 	5656.79
0.13806 	5656.76
0.138314 	5656.73
0.138569 	5656.7
0.138823 	5656.68
0.139077 	5656.66
0.139331 	5656.68
0.139586 	5656.83
0.13984 	5656.99
0.140094 	5657.14
0.140348 	5657.29
0.140603 	5657.59
0.140857 	5657.91
0.141111 	5658.23
0.141365 	5658.56
0.14162 	5658.89
0.141874 	5659.24
0.142128 	5659.72
0.142382 	5660.2
0.142637 	5660.68
0.142891 	5661.16
0.143145 	5661.75
0.143399 	5662.38
0.143654 	5663.01
0.143908 	5663.64
0.144162 	5664.28
0.144416 	5664.93
0.144671 	5665.69
0.144925 	5666.46
0.145179 	5667.23
0.145433 	5668
0.145688 	5668.85
0.145942 	5669.75
0.146196 	5670.65
0.14645 	5671.56
0.146705 	5672.47
0.146959 	5673.38
0.147213 	5674.41
0.147467 	5675.43
0.147722 	5676.46
0.147976 	5677.49
0.14823 	5678.58
0.148484 	5679.72
0.148739 	5680.87
0.148993 	5682.02
0.149247 	5683.17
0.149502 	5684.32
0.149756 	5685.58
0.15001 	5686.84
0.150264 	5688.09
0.150519 	5689.35
0.150773 	5690.65
0.151027 	5692.02
0.151281 	5693.38
0.151536 	5694.75
0.15179 	5696.12
0.152044 	5697.49
0.152298 	5698.95
0.152553 	5700.41
0.152807 	5701.88
0.153061 	5703.34
0.153315 	5704.83
0.15357 	5706.39
0.153824 	5707.94
0.154078 	5709.5
0.154332 	5711.07
0.154587 	5712.63
0.154841 	5714.27
0.155095 	5715.91
0.155349 	5717.55
0.155604 	5719.2
0.155858 	5720.85
0.156112 	5722.57
0.156366 	5724.29
0.156621 	5726.02
0.156875 	5727.75
0.157129 	5729.48
0.157383 	5731.26
0.157638 	5733.06
0.157892 	5734.85
0.158146 	5736.64
0.1584 	5738.44
0.158655 	5740.3
0.158909 	5742.16
0.159163 	5744.02
0.159417 	5745.88
0.159672 	5747.75
0.159926 	5749.66
0.16018 	5751.57
0.160434 	5753.49
0.160689 	5755.4
0.160943 	5757.32
0.161197 	5759.28
0.161451 	5761.25
0.161706 	5763.22
0.16196 	5765.19
0.162214 	5767.16
0.162468 	5769.16
0.162723 	5771.17
0.162977 	5773.17
0.163231 	5775.18
0.163485 	5777.19
0.16374 	5779.22
0.163994 	5781.27
0.164248 	5783.32
0.164503 	5785.37
0.164757 	5787.41
0.165011 	5789.48
0.165265 	5791.55
0.16552 	5793.63
0.165774 	5795.7
0.166028 	5797.77
0.166282 	5799.85
0.166537 	5801.95
0.166791 	5804.05
0.167045 	5806.15
0.167299 	5808.24
0.167554 	5810.35
0.167808 	5812.46
0.168062 	5814.57
0.168316 	5816.67
0.168571 	5818.78
0.168825 	5820.9
0.169079 	5823.02
0.169333 	5825.14
0.169588 	5827.26
0.169842 	5829.38
0.170096 	5831.5
0.17035 	5833.62
0.170605 	5835.74
0.170859 	5837.86
0.171113 	5839.98
0.171367 	5842.1
0.171622 	5844.22
0.171876 	5846.34
0.17213 	5848.46
0.172384 	5850.58
0.172639 	5852.69
0.172893 	5854.8
0.173147 	5856.91
0.173401 	5859.02
0.173656 	5861.13
0.17391 	5863.24
0.174164 	5865.34
0.174418 	5867.44
0.174673 	5869.54
0.174927 	5871.64
0.175181 	5873.73
0.175435 	5875.81
0.17569 	5877.88
0.175944 	5879.96
0.176198 	5882.04
0.176452 	5884.12
0.176707 	5886.19
0.176961 	5888.25
0.177215 	5890.31
0.177469 	5892.37
0.177724 	5894.41
0.177978 	5896.44
0.178232 	5898.47
0.178486 	5900.5
0.178741 	5902.54
0.178995 	5904.57
0.179249 	5906.58
0.179504 	5908.59
0.179758 	5910.6
0.180012 	5912.6
0.180266 	5914.58
0.180521 	5916.55
0.180775 	5918.53
0.181029 	5920.5
0.181283 	5922.47
0.181538 	5924.44
0.181792 	5926.39
0.182046 	5928.33
0.1823 	5930.27
0.182555 	5932.21
0.182809 	5934.12
0.183063 	5936.02
0.183317 	5937.92
0.183572 	5939.82
0.183826 	5941.72
0.18408 	5943.61
0.184334 	5945.5
0.184589 	5947.36
0.184843 	5949.22
0.185097 	5951.08
0.185351 	5952.91
0.185606 	5954.73
0.18586 	5956.55
0.186114 	5958.36
0.186368 	5960.18
0.186623 	5962
0.186877 	5963.81
0.187131 	5965.58
0.187385 	5967.36
0.18764 	5969.13
0.187894 	5970.88
0.188148 	5972.61
0.188402 	5974.34
0.188657 	5976.06
0.188911 	5977.79
0.189165 	5979.52
0.189419 	5981.25
0.189674 	5982.93
0.189928 	5984.62
0.190182 	5986.3
0.190436 	5987.95
0.190691 	5989.59
0.190945 	5991.22
0.191199 	5992.86
0.191453 	5994.49
0.191708 	5996.13
0.191962 	5997.76
0.192216 	5999.36
0.19247 	6000.95
0.192725 	6002.53
0.192979 	6004.09
0.193233 	6005.63
0.193487 	6007.17
0.193742 	6008.71
0.193996 	6010.25
0.19425 	6011.78
0.194505 	6013.32
0.194759 	6014.83
0.195013 	6016.32
0.195267 	6017.81
0.195522 	6019.27
0.195776 	6020.71
0.19603 	6022.15
0.196284 	6023.59
0.196539 	6025.03
0.196793 	6026.47
0.197047 	6027.91
0.197301 	6029.32
0.197556 	6030.71
0.19781 	6032.1
0.198064 	6033.47
0.198318 	6034.81
0.198573 	6036.15
0.198827 	6037.49
0.199081 	6038.83
0.199335 	6040.17
0.19959 	6041.51
0.199844 	6042.83
0.200098 	6044.12
0.200352 	6045.41
0.200607 	6046.68
0.200861 	6047.92
0.201115 	6049.16
0.201369 	6050.4
0.201624 	6051.64
0.201878 	6052.89
0.202132 	6054.13
0.202386 	6055.36
0.202641 	6056.55
0.202895 	6057.74
0.203149 	6058.91
0.203403 	6060.06
0.203658 	6061.2
0.203912 	6062.34
0.204166 	6063.49
0.20442 	6064.63
0.204675 	6065.77
0.204929 	6066.91
0.205183 	6068.01
0.205437 	6069.1
0.205692 	6070.18
0.205946 	6071.23
0.2062 	6072.27
0.206454 	6073.32
0.206709 	6074.37
0.206963 	6075.42
0.207217 	6076.46
0.207471 	6077.51
0.207726 	6078.51
0.20798 	6079.51
0.208234 	6080.5
0.208488 	6081.45
0.208743 	6082.4
0.208997 	6083.36
0.209251 	6084.31
0.209506 	6085.26
0.20976 	6086.21
0.210014 	6087.17
0.210268 	6088.08
0.210523 	6088.99
0.210777 	6089.88
0.211031 	6090.74
0.211285 	6091.61
0.21154 	6092.47
0.211794 	6093.33
0.212048 	6094.19
0.212302 	6095.05
0.212557 	6095.91
0.212811 	6096.75
0.213065 	6097.56
0.213319 	6098.37
0.213574 	6099.14
0.213828 	6099.91
0.214082 	6100.69
0.214336 	6101.46
0.214591 	6102.23
0.214845 	6103
0.215099 	6103.78
0.215353 	6104.53
0.215608 	6105.26
0.215862 	6105.98
0.216116 	6106.66
0.21637 	6107.35
0.216625 	6108.04
0.216879 	6108.72
0.217133 	6109.41
0.217387 	6110.1
0.217642 	6110.78
0.217896 	6111.45
0.21815 	6112.1
0.218404 	6112.74
0.218659 	6113.34
0.218913 	6113.94
0.219167 	6114.55
0.219421 	6115.15
0.219676 	6115.76
0.21993 	6116.36
0.220184 	6116.97
0.220438 	6117.56
0.220693 	6118.12
0.220947 	6118.68
0.221201 	6119.21
0.221455 	6119.73
0.22171 	6120.25
0.221964 	6120.78
0.222218 	6121.3
0.222472 	6121.83
0.222727 	6122.35
0.222981 	6122.87
0.223235 	6123.36
0.223489 	6123.84
0.223744 	6124.29
0.223998 	6124.73
0.224252 	6125.18
0.224507 	6125.63
0.224761 	6126.08
0.225015 	6126.52
0.225269 	6126.97
0.225524 	6127.42
0.225778 	6127.83
0.226032 	6128.24
0.226286 	6128.61
0.226541 	6128.99
0.226795 	6129.36
0.227049 	6129.73
0.227303 	6130.11
0.227558 	6130.48
0.227812 	6130.85
0.228066 	6131.23
0.22832 	6131.57
0.228575 	6131.91
0.228829 	6132.21
0.229083 	6132.52
0.229337 	6132.82
0.229592 	6133.12
0.229846 	6133.43
0.2301 	6133.73
0.230354 	6134.03
0.230609 	6134.33
0.230863 	6134.61
0.231117 	6134.88
0.231371 	6135.12
0.231626 	6135.36
0.23188 	6135.59
0.232134 	6135.83
0.232388 	6136.06
0.232643 	6136.3
0.232897 	6136.53
0.233151 	6136.77
0.233405 	6136.99
0.23366 	6137.19
0.233914 	6137.36
0.234168 	6137.53
0.234422 	6137.7
0.234677 	6137.88
0.234931 	6138.05
0.235185 	6138.22
0.235439 	6138.39
0.235694 	6138.56
0.235948 	6138.72
0.236202 	6138.86
0.236456 	6138.97
0.236711 	6139.08
0.236965 	6139.19
0.237219 	6139.3
0.237473 	6139.41
0.237728 	6139.52
0.237982 	6139.63
0.238236 	6139.74
0.23849 	6139.84
0.238745 	6139.92
0.238999 	6139.98
0.239253 	6140.04
0.239508 	6140.09
0.239762 	6140.14
0.240016 	6140.19
0.24027 	6140.25
0.240525 	6140.3
0.240779 	6140.35
0.241033 	6140.4
0.241287 	6140.43
0.241542 	6140.43
0.241796 	6140.43
0.24205 	6140.43
0.242304 	6140.43
0.242559 	6140.43
0.242813 	6140.43
0.243067 	6140.43
0.243321 	6140.43
0.243576 	6140.43
0.24383 	6140.4
0.244084 	6140.36
0.244338 	6140.32
0.244593 	6140.27
0.244847 	6140.22
0.245101 	6140.17
0.245355 	6140.13
0.24561 	6140.08
0.245864 	6140.03
0.246118 	6139.98
0.246372 	6139.91
0.246627 	6139.83
0.246881 	6139.74
0.247135 	6139.66
0.247389 	6139.57
0.247644 	6139.48
0.247898 	6139.39
0.248152 	6139.3
0.248406 	6139.21
0.248661 	6139.12
0.248915 	6139.02
0.249169 	6138.91
0.249423 	6138.78
0.249678 	6138.66
0.249932 	6138.54
0.250186 	6138.42
0.25044 	6138.3
0.250695 	6138.18
0.250949 	6138.06
0.251203 	6137.94
0.251457 	6137.81
0.251712 	6137.67
0.251966 	6137.55
0.25222 	6137.42
0.252474 	6137.29
0.252729 	6137.16
0.252983 	6137.03
0.253237 	6136.9
0.253491 	6136.77
0.253746 	6136.64
0.254 	6136.52
