0 	6689.75
0.000254254 	6689.71
0.000508509 	6689.67
0.000762763 	6689.63
0.00101702 	6689.59
0.00127127 	6689.55
0.00152553 	6689.51
0.00177978 	6689.47
0.00203403 	6689.43
0.00228829 	6689.4
0.00254254 	6689.36
0.0027968 	6689.2
0.00305105 	6689.03
0.00330531 	6688.86
0.00355956 	6688.69
0.00381381 	6688.52
0.00406807 	6688.35
0.00432232 	6688.18
0.00457658 	6688
0.00483083 	6687.83
0.00508509 	6687.66
0.00533934 	6687.43
0.00559359 	6687.19
0.00584785 	6686.95
0.0061021 	6686.71
0.00635636 	6686.46
0.00661061 	6686.22
0.00686486 	6685.98
0.00711912 	6685.74
0.00737337 	6685.49
0.00762763 	6685.25
0.00788188 	6685
0.00813614 	6684.74
0.00839039 	6684.49
0.00864464 	6684.23
0.0088989 	6683.97
0.00915315 	6683.72
0.00940741 	6683.46
0.00966166 	6683.2
0.00991592 	6682.95
0.0101702 	6682.69
0.0104244 	6682.43
0.0106787 	6682.15
0.0109329 	6681.88
0.0111872 	6681.6
0.0114414 	6681.33
0.0116957 	6681.06
0.0119499 	6680.78
0.0122042 	6680.51
0.0124585 	6680.24
0.0127127 	6679.96
0.012967 	6679.67
0.0132212 	6679.36
0.0134755 	6679.05
0.0137297 	6678.74
0.013984 	6678.44
0.0142382 	6678.13
0.0144925 	6677.82
0.0147467 	6677.51
0.015001 	6677.2
0.0152553 	6676.89
0.0155095 	6676.57
0.0157638 	6676.21
0.016018 	6675.85
0.0162723 	6675.5
0.0165265 	6675.14
0.0167808 	6674.79
0.017035 	6674.43
0.0172893 	6674.07
0.0175435 	6673.72
0.0177978 	6673.36
0.0180521 	6672.99
0.0183063 	6672.58
0.0185606 	6672.17
0.0188148 	6671.76
0.0190691 	6671.34
0.0193233 	6670.93
0.0195776 	6670.52
0.0198318 	6670.11
0.0200861 	6669.7
0.0203403 	6669.29
0.0205946 	6668.86
0.0208488 	6668.39
0.0211031 	6667.92
0.0213574 	6667.45
0.0216116 	6666.98
0.0218659 	6666.51
0.0221201 	6666.04
0.0223744 	6665.57
0.0226286 	6665.1
0.0228829 	6664.63
0.0231371 	6664.14
0.0233914 	6663.61
0.0236456 	6663.07
0.0238999 	6662.54
0.0241542 	6662
0.0244084 	6661.47
0.0246627 	6660.93
0.0249169 	6660.4
0.0251712 	6659.86
0.0254254 	6659.33
0.0256797 	6658.78
0.0259339 	6658.18
0.0261882 	6657.58
0.0264424 	6656.97
0.0266967 	6656.37
0.026951 	6655.76
0.0272052 	6655.16
0.0274595 	6654.55
0.0277137 	6653.95
0.027968 	6653.35
0.0282222 	6652.74
0.0284765 	6652.06
0.0287307 	6651.39
0.028985 	6650.71
0.0292392 	6650.03
0.0294935 	6649.35
0.0297477 	6648.67
0.030002 	6647.99
0.0302563 	6647.32
0.0305105 	6646.64
0.0307648 	6645.96
0.031019 	6645.21
0.0312733 	6644.45
0.0315275 	6643.7
0.0317818 	6642.94
0.032036 	6642.18
0.0322903 	6641.42
0.0325445 	6640.67
0.0327988 	6639.91
0.0330531 	6639.15
0.0333073 	6638.39
0.0335616 	6637.57
0.0338158 	6636.72
0.0340701 	6635.88
0.0343243 	6635.04
0.0345786 	6634.2
0.0348328 	6633.36
0.0350871 	6632.51
0.0353413 	6631.67
0.0355956 	6630.83
0.0358498 	6629.99
0.0361041 	6629.08
0.0363584 	6628.14
0.0366126 	6627.21
0.0368669 	6626.28
0.0371211 	6625.34
0.0373754 	6624.41
0.0376296 	6623.48
0.0378839 	6622.54
0.0381381 	6621.61
0.0383924 	6620.67
0.0386466 	6619.68
0.0389009 	6618.65
0.0391552 	6617.62
0.0394094 	6616.58
0.0396637 	6615.55
0.0399179 	6614.52
0.0401722 	6613.49
0.0404264 	6612.46
0.0406807 	6611.42
0.0409349 	6610.39
0.0411892 	6609.3
0.0414434 	6608.16
0.0416977 	6607.03
0.041952 	6605.89
0.0422062 	6604.75
0.0424605 	6603.61
0.0427147 	6602.48
0.042969 	6601.34
0.0432232 	6600.2
0.0434775 	6599.06
0.0437317 	6597.87
0.043986 	6596.62
0.0442402 	6595.37
0.0444945 	6594.12
0.0447487 	6592.86
0.045003 	6591.61
0.0452573 	6590.36
0.0455115 	6589.11
0.0457658 	6587.86
0.04602 	6586.6
0.0462743 	6585.31
0.0465285 	6583.93
0.0467828 	6582.55
0.047037 	6581.18
0.0472913 	6579.8
0.0475455 	6578.43
0.0477998 	6577.05
0.0480541 	6575.68
0.0483083 	6574.3
0.0485626 	6572.92
0.0488168 	6571.51
0.0490711 	6570
0.0493253 	6568.49
0.0495796 	6566.98
0.0498338 	6565.48
0.0500881 	6563.97
0.0503423 	6562.46
0.0505966 	6560.95
0.0508509 	6559.44
0.0511051 	6557.93
0.0513594 	6556.39
0.0516136 	6554.74
0.0518679 	6553.09
0.0521221 	6551.43
0.0523764 	6549.78
0.0526306 	6548.12
0.0528849 	6546.47
0.0531391 	6544.82
0.0533934 	6543.16
0.0536476 	6541.51
0.0539019 	6539.84
0.0541562 	6538.03
0.0544104 	6536.22
0.0546647 	6534.41
0.0549189 	6532.6
0.0551732 	6530.79
0.0554274 	6528.98
0.0556817 	6527.17
0.0559359 	6525.36
0.0561902 	6523.55
0.0564444 	6521.74
0.0566987 	6519.76
0.056953 	6517.78
0.0572072 	6515.8
0.0574615 	6513.82
0.0577157 	6511.84
0.05797 	6509.86
0.0582242 	6507.88
0.0584785 	6505.91
0.0587327 	6503.93
0.058987 	6501.95
0.0592412 	6499.8
0.0594955 	6497.64
0.0597497 	6495.48
0.060004 	6493.32
0.0602583 	6491.15
0.0605125 	6488.99
0.0607668 	6486.83
0.061021 	6484.67
0.0612753 	6482.51
0.0615295 	6480.34
0.0617838 	6478.02
0.062038 	6475.66
0.0622923 	6473.3
0.0625465 	6470.94
0.0628008 	6468.59
0.0630551 	6466.23
0.0633093 	6463.87
0.0635636 	6461.51
0.0638178 	6459.15
0.0640721 	6456.79
0.0643263 	6454.28
0.0645806 	6451.71
0.0648348 	6449.14
0.0650891 	6446.57
0.0653433 	6444
0.0655976 	6441.43
0.0658519 	6438.86
0.0661061 	6436.28
0.0663604 	6433.71
0.0666146 	6431.14
0.0668689 	6428.43
0.0671231 	6425.63
0.0673774 	6422.83
0.0676316 	6420.04
0.0678859 	6417.24
0.0681401 	6414.44
0.0683944 	6411.65
0.0686486 	6408.85
0.0689029 	6406.05
0.0691572 	6403.26
0.0694114 	6400.33
0.0696657 	6397.28
0.0699199 	6394.24
0.0701742 	6391.2
0.0704284 	6388.16
0.0706827 	6385.12
0.0709369 	6382.08
0.0711912 	6379.04
0.0714454 	6375.99
0.0716997 	6372.95
0.071954 	6369.79
0.0722082 	6366.48
0.0724625 	6363.18
0.0727167 	6359.87
0.072971 	6356.56
0.0732252 	6353.26
0.0734795 	6349.95
0.0737337 	6346.64
0.073988 	6343.33
0.0742422 	6340.03
0.0744965 	6336.62
0.0747508 	6333.03
0.075005 	6329.44
0.0752593 	6325.85
0.0755135 	6322.26
0.0757678 	6318.67
0.076022 	6315.08
0.0762763 	6311.5
0.0765305 	6307.91
0.0767848 	6304.32
0.077039 	6300.65
0.0772933 	6296.77
0.0775475 	6292.89
0.0778018 	6289.01
0.0780561 	6285.13
0.0783103 	6281.25
0.0785646 	6277.37
0.0788188 	6273.48
0.0790731 	6269.6
0.0793273 	6265.72
0.0795816 	6261.79
0.0798358 	6257.6
0.0800901 	6253.42
0.0803443 	6249.23
0.0805986 	6245.05
0.0808529 	6240.86
0.0811071 	6236.68
0.0813614 	6232.5
0.0816156 	6228.31
0.0818699 	6224.13
0.0821241 	6219.91
0.0823784 	6215.41
0.0826326 	6210.92
0.0828869 	6206.42
0.0831411 	6201.92
0.0833954 	6197.42
0.0836496 	6192.92
0.0839039 	6188.42
0.0841582 	6183.92
0.0844124 	6179.42
0.0846667 	6174.93
0.0849209 	6170.1
0.0851752 	6165.28
0.0854294 	6160.46
0.0856837 	6155.64
0.0859379 	6150.82
0.0861922 	6146
0.0864464 	6141.18
0.0867007 	6136.36
0.086955 	6131.54
0.0872092 	6126.72
0.0874635 	6121.6
0.0877177 	6116.45
0.087972 	6111.3
0.0882262 	6106.15
0.0884805 	6101
0.0887347 	6095.85
0.088989 	6090.7
0.0892432 	6085.55
0.0894975 	6080.4
0.0897518 	6075.26
0.090006 	6069.83
0.0902603 	6064.35
0.0905145 	6058.87
0.0907688 	6053.39
0.091023 	6047.91
0.0912773 	6042.43
0.0915315 	6036.94
0.0917858 	6031.46
0.09204 	6025.98
0.0922943 	6020.5
0.0925485 	6014.78
0.0928028 	6008.97
0.0930571 	6003.17
0.0933113 	5997.36
0.0935656 	5991.56
0.0938198 	5985.75
0.0940741 	5979.94
0.0943283 	5974.14
0.0945826 	5968.33
0.0948368 	5962.52
0.0950911 	5956.52
0.0953453 	5950.41
0.0955996 	5944.3
0.0958539 	5938.19
0.0961081 	5932.08
0.0963624 	5925.97
0.0966166 	5919.86
0.0968709 	5913.76
0.0971251 	5907.65
0.0973794 	5901.54
0.0976336 	5895.28
0.0978879 	5888.89
0.0981421 	5882.51
0.0983964 	5876.12
0.0986507 	5869.74
0.0989049 	5863.35
0.0991592 	5856.97
0.0994134 	5850.58
0.0996677 	5844.2
0.0999219 	5837.81
0.100176 	5831.32
0.10043 	5824.71
0.100685 	5818.1
0.100939 	5811.49
0.101193 	5804.87
0.101447 	5798.26
0.101702 	5791.65
0.101956 	5785.04
0.10221 	5778.42
0.102464 	5771.81
0.102719 	5765.13
0.102973 	5758.35
0.103227 	5751.57
0.103481 	5744.78
0.103736 	5738
0.10399 	5731.21
0.104244 	5724.43
0.104498 	5717.64
0.104753 	5710.86
0.105007 	5704.07
0.105261 	5697.26
0.105516 	5690.39
0.10577 	5683.52
0.106024 	5676.65
0.106278 	5669.77
0.106533 	5662.9
0.106787 	5656.03
0.107041 	5649.16
0.107295 	5642.28
0.10755 	5635.41
0.107804 	5628.54
0.108058 	5621.67
0.108312 	5614.79
0.108567 	5607.92
0.108821 	5601.04
0.109075 	5594.17
0.109329 	5587.29
0.109584 	5580.42
0.109838 	5573.55
0.110092 	5566.67
0.110346 	5559.81
0.110601 	5553.02
0.110855 	5546.24
0.111109 	5539.46
0.111363 	5532.68
0.111618 	5525.89
0.111872 	5519.11
0.112126 	5512.33
0.11238 	5505.55
0.112635 	5498.76
0.112889 	5491.98
0.113143 	5485.4
0.113397 	5478.83
0.113652 	5472.25
0.113906 	5465.68
0.11416 	5459.1
0.114414 	5452.52
0.114669 	5445.95
0.114923 	5439.37
0.115177 	5432.79
0.115431 	5426.22
0.115686 	5419.94
0.11594 	5413.68
0.116194 	5407.43
0.116448 	5401.18
0.116703 	5394.92
0.116957 	5388.67
0.117211 	5382.42
0.117465 	5376.16
0.11772 	5369.91
0.117974 	5363.66
0.118228 	5357.78
0.118482 	5351.98
0.118737 	5346.19
0.118991 	5340.39
0.119245 	5334.6
0.119499 	5328.8
0.119754 	5323
0.120008 	5317.21
0.120262 	5311.41
0.120517 	5305.62
0.120771 	5300.25
0.121025 	5295.04
0.121279 	5289.83
0.121534 	5284.62
0.121788 	5279.42
0.122042 	5274.21
0.122296 	5269
0.122551 	5263.79
0.122805 	5258.58
0.123059 	5253.37
0.123313 	5248.61
0.123568 	5244.11
0.123822 	5239.61
0.124076 	5235.11
0.12433 	5230.6
0.124585 	5226.1
0.124839 	5221.6
0.125093 	5217.09
0.125347 	5212.59
0.125602 	5208.09
0.125856 	5204.02
0.12611 	5200.32
0.126364 	5196.62
0.126619 	5192.92
0.126873 	5189.22
0.127127 	5185.51
0.127381 	5181.81
0.127636 	5178.11
0.12789 	5174.41
0.128144 	5170.71
0.128398 	5167.4
0.128653 	5164.56
0.128907 	5161.72
0.129161 	5158.87
0.129415 	5156.03
0.12967 	5153.19
0.129924 	5150.35
0.130178 	5147.51
0.130432 	5144.67
0.130687 	5141.83
0.130941 	5139.31
0.131195 	5137.35
0.131449 	5135.39
0.131704 	5133.43
0.131958 	5131.46
0.132212 	5129.5
0.132466 	5127.54
0.132721 	5125.58
0.132975 	5123.61
0.133229 	5121.65
0.133483 	5119.92
0.133738 	5118.82
0.133992 	5117.71
0.134246 	5116.6
0.134501 	5115.5
0.134755 	5114.39
0.135009 	5113.28
0.135263 	5112.18
0.135518 	5111.07
0.135772 	5109.96
0.136026 	5109
0.13628 	5108.7
0.136535 	5108.39
0.136789 	5108.08
0.137043 	5107.78
0.137297 	5107.47
0.137552 	5107.16
0.137806 	5106.86
0.13806 	5106.55
0.138314 	5106.24
0.138569 	5106
0.138823 	5106.42
0.139077 	5106.84
0.139331 	5107.26
0.139586 	5107.68
0.13984 	5108.1
0.140094 	5108.52
0.140348 	5108.94
0.140603 	5109.36
0.140857 	5109.78
0.141111 	5110.2
0.141365 	5111.27
0.14162 	5112.34
0.141874 	5113.41
0.142128 	5114.48
0.142382 	5115.55
0.142637 	5116.62
0.142891 	5117.69
0.143145 	5118.76
0.143399 	5119.84
0.143654 	5120.91
0.143908 	5122.5
0.144162 	5124.14
0.144416 	5125.78
0.144671 	5127.43
0.144925 	5129.07
0.145179 	5130.71
0.145433 	5132.36
0.145688 	5134
0.145942 	5135.64
0.146196 	5137.29
0.14645 	5139.34
0.146705 	5141.48
0.146959 	5143.63
0.147213 	5145.77
0.147467 	5147.92
0.147722 	5150.06
0.147976 	5152.21
0.14823 	5154.35
0.148484 	5156.5
0.148739 	5158.64
0.148993 	5161.11
0.149247 	5163.69
0.149502 	5166.27
0.149756 	5168.85
0.15001 	5171.43
0.150264 	5174.01
0.150519 	5176.6
0.150773 	5179.18
0.151027 	5181.76
0.151281 	5184.34
0.151536 	5187.16
0.15179 	5190.12
0.152044 	5193.08
0.152298 	5196.04
0.152553 	5199
0.152807 	5201.96
0.153061 	5204.92
0.153315 	5207.88
0.15357 	5210.84
0.153824 	5213.8
0.154078 	5216.93
0.154332 	5220.21
0.154587 	5223.49
0.154841 	5226.77
0.155095 	5230.05
0.155349 	5233.33
0.155604 	5236.61
0.155858 	5239.89
0.156112 	5243.17
0.156366 	5246.45
0.156621 	5249.85
0.156875 	5253.4
0.157129 	5256.94
0.157383 	5260.48
0.157638 	5264.03
0.157892 	5267.57
0.158146 	5271.12
0.1584 	5274.66
0.158655 	5278.21
0.158909 	5281.75
0.159163 	5285.37
0.159417 	5289.12
0.159672 	5292.88
0.159926 	5296.63
0.16018 	5300.38
0.160434 	5304.13
0.160689 	5307.88
0.160943 	5311.64
0.161197 	5315.39
0.161451 	5319.14
0.161706 	5322.93
0.16196 	5326.84
0.162214 	5330.74
0.162468 	5334.65
0.162723 	5338.55
0.162977 	5342.45
0.163231 	5346.36
0.163485 	5350.26
0.16374 	5354.16
0.163994 	5358.07
0.164248 	5361.99
0.164503 	5365.99
0.164757 	5369.99
0.165011 	5373.99
0.165265 	5377.99
0.16552 	5382
0.165774 	5386
0.166028 	5390
0.166282 	5394
0.166537 	5398
0.166791 	5402.01
0.167045 	5406.06
0.167299 	5410.11
0.167554 	5414.16
0.167808 	5418.2
0.168062 	5422.25
0.168316 	5426.3
0.168571 	5430.35
0.168825 	5434.4
0.169079 	5438.45
0.169333 	5442.5
0.169588 	5446.55
0.169842 	5450.61
0.170096 	5454.66
0.17035 	5458.71
0.170605 	5462.76
0.170859 	5466.82
0.171113 	5470.87
0.171367 	5474.92
0.171622 	5478.98
0.171876 	5483.03
0.17213 	5487.05
0.172384 	5491.07
0.172639 	5495.09
0.172893 	5499.1
0.173147 	5503.12
0.173401 	5507.14
0.173656 	5511.16
0.17391 	5515.18
0.174164 	5519.19
0.174418 	5523.21
0.174673 	5527.17
0.174927 	5531.13
0.175181 	5535.08
0.175435 	5539.03
0.17569 	5542.98
0.175944 	5546.93
0.176198 	5550.88
0.176452 	5554.83
0.176707 	5558.78
0.176961 	5562.73
0.177215 	5566.61
0.177469 	5570.47
0.177724 	5574.33
0.177978 	5578.19
0.178232 	5582.04
0.178486 	5585.9
0.178741 	5589.76
0.178995 	5593.62
0.179249 	5597.47
0.179504 	5601.33
0.179758 	5605.12
0.180012 	5608.86
0.180266 	5612.61
0.180521 	5616.35
0.180775 	5620.09
0.181029 	5623.84
0.181283 	5627.58
0.181538 	5631.33
0.181792 	5635.07
0.182046 	5638.81
0.1823 	5642.49
0.182555 	5646.1
0.182809 	5649.72
0.183063 	5653.33
0.183317 	5656.95
0.183572 	5660.56
0.183826 	5664.18
0.18408 	5667.79
0.184334 	5671.4
0.184589 	5675.02
0.184843 	5678.57
0.185097 	5682.04
0.185351 	5685.52
0.185606 	5688.99
0.18586 	5692.47
0.186114 	5695.94
0.186368 	5699.42
0.186623 	5702.89
0.186877 	5706.36
0.187131 	5709.84
0.187385 	5713.26
0.18764 	5716.58
0.187894 	5719.91
0.188148 	5723.23
0.188402 	5726.56
0.188657 	5729.89
0.188911 	5733.21
0.189165 	5736.54
0.189419 	5739.86
0.189674 	5743.19
0.189928 	5746.47
0.190182 	5749.64
0.190436 	5752.81
0.190691 	5755.99
0.190945 	5759.16
0.191199 	5762.33
0.191453 	5765.5
0.191708 	5768.67
0.191962 	5771.85
0.192216 	5775.02
0.19247 	5778.16
0.192725 	5781.18
0.192979 	5784.19
0.193233 	5787.21
0.193487 	5790.22
0.193742 	5793.24
0.193996 	5796.25
0.19425 	5799.27
0.194505 	5802.28
0.194759 	5805.3
0.195013 	5808.3
0.195267 	5811.16
0.195522 	5814.02
0.195776 	5816.88
0.19603 	5819.74
0.196284 	5822.59
0.196539 	5825.45
0.196793 	5828.31
0.197047 	5831.17
0.197301 	5834.03
0.197556 	5836.89
0.19781 	5839.59
0.198064 	5842.29
0.198318 	5845
0.198573 	5847.7
0.198827 	5850.4
0.199081 	5853.1
0.199335 	5855.81
0.19959 	5858.51
0.199844 	5861.21
0.200098 	5863.91
0.200352 	5866.48
0.200607 	5869.02
0.200861 	5871.57
0.201115 	5874.12
0.201369 	5876.67
0.201624 	5879.22
0.201878 	5881.76
0.202132 	5884.31
0.202386 	5886.86
0.202641 	5889.41
0.202895 	5891.83
0.203149 	5894.23
0.203403 	5896.62
0.203658 	5899.02
0.203912 	5901.42
0.204166 	5903.81
0.20442 	5906.21
0.204675 	5908.6
0.204929 	5911
0.205183 	5913.4
0.205437 	5915.68
0.205692 	5917.93
0.205946 	5920.18
0.2062 	5922.42
0.206454 	5924.67
0.206709 	5926.92
0.206963 	5929.16
0.207217 	5931.41
0.207471 	5933.66
0.207726 	5935.91
0.20798 	5938.06
0.208234 	5940.16
0.208488 	5942.26
0.208743 	5944.37
0.208997 	5946.47
0.209251 	5948.57
0.209506 	5950.67
0.20976 	5952.77
0.210014 	5954.88
0.210268 	5956.98
0.210523 	5959
0.210777 	5960.96
0.211031 	5962.92
0.211285 	5964.88
0.21154 	5966.84
0.211794 	5968.81
0.212048 	5970.77
0.212302 	5972.73
0.212557 	5974.69
0.212811 	5976.65
0.213065 	5978.55
0.213319 	5980.37
0.213574 	5982.19
0.213828 	5984.02
0.214082 	5985.84
0.214336 	5987.66
0.214591 	5989.49
0.214845 	5991.31
0.215099 	5993.13
0.215353 	5994.96
0.215608 	5996.73
0.215862 	5998.42
0.216116 	6000.11
0.21637 	6001.81
0.216625 	6003.5
0.216879 	6005.19
0.217133 	6006.88
0.217387 	6008.57
0.217642 	6010.26
0.217896 	6011.95
0.21815 	6013.6
0.218404 	6015.16
0.218659 	6016.73
0.218913 	6018.29
0.219167 	6019.85
0.219421 	6021.41
0.219676 	6022.97
0.21993 	6024.53
0.220184 	6026.1
0.220438 	6027.66
0.220693 	6029.2
0.220947 	6030.63
0.221201 	6032.07
0.221455 	6033.51
0.22171 	6034.94
0.221964 	6036.38
0.222218 	6037.82
0.222472 	6039.25
0.222727 	6040.69
0.222981 	6042.12
0.223235 	6043.55
0.223489 	6044.87
0.223744 	6046.18
0.223998 	6047.5
0.224252 	6048.81
0.224507 	6050.13
0.224761 	6051.44
0.225015 	6052.76
0.225269 	6054.07
0.225524 	6055.39
0.225778 	6056.7
0.226032 	6057.9
0.226286 	6059.1
0.226541 	6060.3
0.226795 	6061.5
0.227049 	6062.69
0.227303 	6063.89
0.227558 	6065.09
0.227812 	6066.29
0.228066 	6067.48
0.22832 	6068.68
0.228575 	6069.78
0.228829 	6070.86
0.229083 	6071.94
0.229337 	6073.03
0.229592 	6074.11
0.229846 	6075.2
0.2301 	6076.28
0.230354 	6077.36
0.230609 	6078.45
0.230863 	6079.53
0.231117 	6080.53
0.231371 	6081.5
0.231626 	6082.47
0.23188 	6083.45
0.232134 	6084.42
0.232388 	6085.39
0.232643 	6086.37
0.232897 	6087.34
0.233151 	6088.32
0.233405 	6089.29
0.23366 	6090.19
0.233914 	6091.05
0.234168 	6091.92
0.234422 	6092.79
0.234677 	6093.65
0.234931 	6094.52
0.235185 	6095.39
0.235439 	6096.26
0.235694 	6097.12
0.235948 	6097.99
0.236202 	6098.79
0.236456 	6099.56
0.236711 	6100.32
0.236965 	6101.09
0.237219 	6101.85
0.237473 	6102.61
0.237728 	6103.38
0.237982 	6104.14
0.238236 	6104.91
0.23849 	6105.67
0.238745 	6106.38
0.238999 	6107.05
0.239253 	6107.71
0.239508 	6108.38
0.239762 	6109.05
0.240016 	6109.71
0.24027 	6110.38
0.240525 	6111.04
0.240779 	6111.71
0.241033 	6112.37
0.241287 	6113
0.241542 	6113.57
0.241796 	6114.14
0.24205 	6114.71
0.242304 	6115.28
0.242559 	6115.85
0.242813 	6116.43
0.243067 	6117
0.243321 	6117.57
0.243576 	6118.14
0.24383 	6118.68
0.244084 	6119.17
0.244338 	6119.65
0.244593 	6120.13
0.244847 	6120.62
0.245101 	6121.1
0.245355 	6121.58
0.24561 	6122.07
0.245864 	6122.55
0.246118 	6123.04
0.246372 	6123.5
0.246627 	6123.9
0.246881 	6124.31
0.247135 	6124.71
0.247389 	6125.11
0.247644 	6125.52
0.247898 	6125.92
0.248152 	6126.33
0.248406 	6126.73
0.248661 	6127.14
0.248915 	6127.53
0.249169 	6127.86
0.249423 	6128.19
0.249678 	6128.52
0.249932 	6128.86
0.250186 	6129.19
0.25044 	6129.52
0.250695 	6129.86
0.250949 	6130.19
0.251203 	6130.52
0.251457 	6130.86
0.251712 	6131.22
0.251966 	6131.57
0.25222 	6131.93
0.252474 	6132.29
0.252729 	6132.65
0.252983 	6133.01
0.253237 	6133.36
0.253491 	6133.72
0.253746 	6134.08
0.254 	6134.44
