0 	30.1378 	-2.57548e-07 	-9.77257e-19
0.000254254 	30.1432 	-2.5654e-07 	4.07363e-16
0.000508509 	30.1485 	-2.5654e-07 	4.07363e-16
0.000762763 	30.1539 	-2.5654e-07 	4.07362e-16
0.00101702 	30.1592 	-2.5654e-07 	4.07362e-16
0.00127127 	30.1646 	-2.5654e-07 	4.07362e-16
0.00152553 	30.17 	-2.5654e-07 	4.07361e-16
0.00177978 	30.1753 	-2.5654e-07 	4.07361e-16
0.00203403 	30.1807 	-2.5654e-07 	4.07361e-16
0.00228829 	30.186 	-2.5654e-07 	4.0736e-16
0.00254254 	30.1914 	-2.5654e-07 	4.0736e-16
0.0027968 	30.2041 	-2.61913e-07 	4.06399e-16
0.00305105 	30.2175 	-2.61913e-07 	4.06399e-16
0.00330531 	30.2308 	-2.61913e-07 	4.06398e-16
0.00355956 	30.2442 	-2.61913e-07 	4.06397e-16
0.00381381 	30.2576 	-2.61913e-07 	4.06396e-16
0.00406807 	30.271 	-2.61913e-07 	4.06395e-16
0.00432232 	30.2844 	-2.61913e-07 	4.06394e-16
0.00457658 	30.2978 	-2.61913e-07 	4.06393e-16
0.00483083 	30.3112 	-2.61913e-07 	4.06393e-16
0.00508509 	30.3246 	-2.61913e-07 	4.06392e-16
0.00533934 	30.3406 	-2.84435e-07 	4.47057e-16
0.00559359 	30.3571 	-2.84435e-07 	4.47056e-16
0.00584785 	30.3737 	-2.84435e-07 	4.47055e-16
0.0061021 	30.3902 	-2.84435e-07 	4.47054e-16
0.00635636 	30.4067 	-2.84435e-07 	4.47053e-16
0.00661061 	30.4233 	-2.84435e-07 	4.47052e-16
0.00686486 	30.4398 	-2.84435e-07 	4.47051e-16
0.00711912 	30.4563 	-2.84435e-07 	4.4705e-16
0.00737337 	30.4729 	-2.84435e-07 	4.47049e-16
0.00762763 	30.4894 	-2.84435e-07 	4.47048e-16
0.00788188 	30.5067 	-3.2306e-07 	4.44458e-16
0.00813614 	30.5243 	-3.2306e-07 	4.44457e-16
0.00839039 	30.5418 	-3.2306e-07 	4.44456e-16
0.00864464 	30.5594 	-3.2306e-07 	4.44455e-16
0.0088989 	30.577 	-3.2306e-07 	4.44454e-16
0.00915315 	30.5945 	-3.2306e-07 	4.44453e-16
0.00940741 	30.6121 	-3.2306e-07 	4.44452e-16
0.00966166 	30.6297 	-3.2306e-07 	4.44451e-16
0.00991592 	30.6472 	-3.2306e-07 	4.44449e-16
0.0101702 	30.6648 	-3.2306e-07 	4.44448e-16
0.0104244 	30.6835 	-3.73973e-07 	4.92351e-16
0.0106787 	30.7028 	-3.73973e-07 	4.9235e-16
0.0109329 	30.7222 	-3.73973e-07 	4.92348e-16
0.0111872 	30.7415 	-3.73973e-07 	4.92347e-16
0.0114414 	30.7608 	-3.73973e-07 	4.92346e-16
0.0116957 	30.7801 	-3.73973e-07 	4.92345e-16
0.0119499 	30.7994 	-3.73973e-07 	4.92343e-16
0.0122042 	30.8188 	-3.73973e-07 	4.92342e-16
0.0124585 	30.8381 	-3.73973e-07 	4.92341e-16
0.0127127 	30.8574 	-3.73973e-07 	4.9234e-16
0.012967 	30.8783 	-4.33869e-07 	5.36091e-16
0.0132212 	30.9004 	-4.33869e-07 	5.36089e-16
0.0134755 	30.9225 	-4.33869e-07 	5.36088e-16
0.0137297 	30.9446 	-4.33869e-07 	5.36087e-16
0.013984 	30.9667 	-4.33869e-07 	5.36085e-16
0.0142382 	30.9888 	-4.33869e-07 	5.36084e-16
0.0144925 	31.0109 	-4.33869e-07 	5.36082e-16
0.0147467 	31.033 	-4.33869e-07 	5.36081e-16
0.015001 	31.0551 	-4.33869e-07 	5.3608e-16
0.0152553 	31.0772 	-4.33869e-07 	5.36078e-16
0.0155095 	31.1009 	-5.00324e-07 	5.29403e-16
0.0157638 	31.1264 	-5.00324e-07 	5.29402e-16
0.016018 	31.152 	-5.00324e-07 	5.294e-16
0.0162723 	31.1775 	-5.00324e-07 	5.29399e-16
0.0165265 	31.203 	-5.00324e-07 	5.29397e-16
0.0167808 	31.2286 	-5.00324e-07 	5.29395e-16
0.017035 	31.2541 	-5.00324e-07 	5.29394e-16
0.0172893 	31.2796 	-5.00324e-07 	5.29392e-16
0.0175435 	31.3052 	-5.00324e-07 	5.2939e-16
0.0177978 	31.3307 	-5.00324e-07 	5.29389e-16
0.0180521 	31.3576 	-5.7167e-07 	5.28568e-16
0.0183063 	31.3869 	-5.7167e-07 	5.28566e-16
0.0185606 	31.4163 	-5.7167e-07 	5.28564e-16
0.0188148 	31.4456 	-5.7167e-07 	5.28563e-16
0.0190691 	31.4749 	-5.7167e-07 	5.28561e-16
0.0193233 	31.5042 	-5.7167e-07 	5.28559e-16
0.0195776 	31.5335 	-5.7167e-07 	5.28557e-16
0.0198318 	31.5628 	-5.7167e-07 	5.28555e-16
0.0200861 	31.5921 	-5.7167e-07 	5.28553e-16
0.0203403 	31.6214 	-5.7167e-07 	5.28551e-16
0.0205946 	31.6518 	-6.46863e-07 	5.30236e-16
0.0208488 	31.6851 	-6.46863e-07 	5.30233e-16
0.0211031 	31.7184 	-6.46863e-07 	5.30231e-16
0.0213574 	31.7517 	-6.46863e-07 	5.30229e-16
0.0216116 	31.7851 	-6.46863e-07 	5.30227e-16
0.0218659 	31.8184 	-6.46863e-07 	5.30225e-16
0.0221201 	31.8517 	-6.46863e-07 	5.30223e-16
0.0223744 	31.885 	-6.46863e-07 	5.30221e-16
0.0226286 	31.9183 	-6.46863e-07 	5.30218e-16
0.0228829 	31.9516 	-6.46863e-07 	5.30216e-16
0.0231371 	31.9856 	-7.25289e-07 	5.33067e-16
0.0233914 	32.0231 	-7.25289e-07 	5.33064e-16
0.0236456 	32.0606 	-7.25289e-07 	5.33062e-16
0.0238999 	32.098 	-7.25289e-07 	5.33059e-16
0.0241542 	32.1355 	-7.25289e-07 	5.33057e-16
0.0244084 	32.173 	-7.25289e-07 	5.33055e-16
0.0246627 	32.2104 	-7.25289e-07 	5.33052e-16
0.0249169 	32.2479 	-7.25289e-07 	5.3305e-16
0.0251712 	32.2854 	-7.25289e-07 	5.33047e-16
0.0254254 	32.3228 	-7.25289e-07 	5.33045e-16
0.0256797 	32.3607 	-8.06341e-07 	5.36612e-16
0.0259339 	32.4025 	-8.06341e-07 	5.36609e-16
0.0261882 	32.4443 	-8.06341e-07 	5.36607e-16
0.0264424 	32.4861 	-8.06341e-07 	5.36604e-16
0.0266967 	32.5279 	-8.06341e-07 	5.36601e-16
0.026951 	32.5697 	-8.06341e-07 	5.36599e-16
0.0272052 	32.6115 	-8.06341e-07 	5.36596e-16
0.0274595 	32.6533 	-8.06341e-07 	5.36593e-16
0.0277137 	32.6951 	-8.06341e-07 	5.36591e-16
0.027968 	32.7369 	-8.06341e-07 	5.36588e-16
0.0282222 	32.7787 	-9.37932e-07 	-2.48653e-18
0.0284765 	32.8251 	-8.88396e-07 	5.40661e-16
0.0287307 	32.8714 	-8.88396e-07 	5.40658e-16
0.028985 	32.9177 	-8.88396e-07 	5.40655e-16
0.0292392 	32.964 	-8.88396e-07 	5.40652e-16
0.0294935 	33.0103 	-8.88396e-07 	5.4065e-16
0.0297477 	33.0566 	-8.88396e-07 	5.40647e-16
0.030002 	33.1029 	-8.88396e-07 	5.40644e-16
0.0302563 	33.1492 	-8.88396e-07 	5.40641e-16
0.0305105 	33.1955 	-8.88396e-07 	5.40638e-16
0.0307648 	33.2418 	-8.88396e-07 	5.40635e-16
0.031019 	33.2924 	-9.69399e-07 	5.92843e-16
0.0312733 	33.3434 	-9.69399e-07 	5.9284e-16
0.0315275 	33.3944 	-9.69399e-07 	5.92837e-16
0.0317818 	33.4454 	-9.69399e-07 	5.92833e-16
0.032036 	33.4963 	-9.69399e-07 	5.9283e-16
0.0322903 	33.5473 	-9.69399e-07 	5.92827e-16
0.0325445 	33.5983 	-9.69399e-07 	5.92824e-16
0.0327988 	33.6493 	-9.69399e-07 	5.9282e-16
0.0330531 	33.7003 	-9.69399e-07 	5.92817e-16
0.0333073 	33.7513 	-9.69399e-07 	5.92814e-16
0.0335616 	33.8062 	-1.05166e-06 	5.54211e-16
0.0338158 	33.8621 	-1.05166e-06 	5.54207e-16
0.0340701 	33.9179 	-1.05166e-06 	5.54204e-16
0.0343243 	33.9737 	-1.05166e-06 	5.542e-16
0.0345786 	34.0296 	-1.05166e-06 	5.54197e-16
0.0348328 	34.0854 	-1.05166e-06 	5.54193e-16
0.0350871 	34.1413 	-1.05166e-06 	5.54189e-16
0.0353413 	34.1971 	-1.05166e-06 	5.54186e-16
0.0355956 	34.2529 	-1.05166e-06 	5.54182e-16
0.0358498 	34.3088 	-1.05166e-06 	5.54179e-16
0.0361041 	34.3683 	-1.13607e-06 	6.17103e-16
0.0363584 	34.4292 	-1.13607e-06 	6.17099e-16
0.0366126 	34.49 	-1.13607e-06 	6.17095e-16
0.0368669 	34.5509 	-1.13607e-06 	6.17091e-16
0.0371211 	34.6118 	-1.13607e-06 	6.17087e-16
0.0373754 	34.6727 	-1.13607e-06 	6.17083e-16
0.0376296 	34.7335 	-1.13607e-06 	6.17079e-16
0.0378839 	34.7944 	-1.13607e-06 	6.17075e-16
0.0381381 	34.8553 	-1.13607e-06 	6.17071e-16
0.0383924 	34.9162 	-1.13607e-06 	6.17067e-16
0.0386466 	34.9804 	-1.2243e-06 	6.71333e-16
0.0389009 	35.0465 	-1.2243e-06 	6.71328e-16
0.0391552 	35.1126 	-1.2243e-06 	6.71324e-16
0.0394094 	35.1787 	-1.2243e-06 	6.7132e-16
0.0396637 	35.2448 	-1.2243e-06 	6.71316e-16
0.0399179 	35.3109 	-1.2243e-06 	6.71311e-16
0.0401722 	35.377 	-1.2243e-06 	6.71307e-16
0.0404264 	35.4431 	-1.2243e-06 	6.71303e-16
0.0406807 	35.5092 	-1.2243e-06 	6.71299e-16
0.0409349 	35.5753 	-1.2243e-06 	6.71294e-16
0.0411892 	35.6444 	-1.31641e-06 	7.17748e-16
0.0414434 	35.7159 	-1.31641e-06 	7.17743e-16
0.0416977 	35.7874 	-1.31641e-06 	7.17739e-16
0.041952 	35.859 	-1.31641e-06 	7.17734e-16
0.0422062 	35.9305 	-1.31641e-06 	7.1773e-16
0.0424605 	36.002 	-1.31641e-06 	7.17725e-16
0.0427147 	36.0736 	-1.31641e-06 	7.1772e-16
0.042969 	36.1451 	-1.31641e-06 	7.17716e-16
0.0432232 	36.2166 	-1.31641e-06 	7.17711e-16
0.0434775 	36.2882 	-1.31641e-06 	7.17707e-16
0.0437317 	36.3623 	-1.412e-06 	7.29924e-16
0.043986 	36.4394 	-1.412e-06 	7.29919e-16
0.0442402 	36.5166 	-1.412e-06 	7.29914e-16
0.0444945 	36.5938 	-1.412e-06 	7.29909e-16
0.0447487 	36.6709 	-1.412e-06 	7.29904e-16
0.045003 	36.7481 	-1.412e-06 	7.29899e-16
0.0452573 	36.8253 	-1.412e-06 	7.29894e-16
0.0455115 	36.9025 	-1.412e-06 	7.29889e-16
0.0457658 	36.9796 	-1.412e-06 	7.29885e-16
0.04602 	37.0568 	-1.412e-06 	7.2988e-16
0.0462743 	37.1361 	-1.5109e-06 	6.92138e-16
0.0465285 	37.2191 	-1.5109e-06 	6.92133e-16
0.0467828 	37.3022 	-1.5109e-06 	6.92127e-16
0.047037 	37.3852 	-1.5109e-06 	6.92122e-16
0.0472913 	37.4682 	-1.5109e-06 	6.92117e-16
0.0475455 	37.5512 	-1.5109e-06 	6.92111e-16
0.0477998 	37.6343 	-1.5109e-06 	6.92106e-16
0.0480541 	37.7173 	-1.5109e-06 	6.92101e-16
0.0483083 	37.8003 	-1.5109e-06 	6.92095e-16
0.0485626 	37.8834 	-1.5109e-06 	6.9209e-16
0.0488168 	37.968 	-1.61291e-06 	6.65171e-16
0.0490711 	38.0572 	-1.61291e-06 	6.65166e-16
0.0493253 	38.1463 	-1.61291e-06 	6.6516e-16
0.0495796 	38.2354 	-1.61291e-06 	6.65154e-16
0.0498338 	38.3245 	-1.61291e-06 	6.65148e-16
0.0500881 	38.4136 	-1.61291e-06 	6.65143e-16
0.0503423 	38.5027 	-1.61291e-06 	6.65137e-16
0.0505966 	38.5918 	-1.61291e-06 	6.65131e-16
0.0508509 	38.6809 	-1.61291e-06 	6.65126e-16
0.0511051 	38.7701 	-1.61291e-06 	6.6512e-16
0.0513594 	38.8603 	-1.71771e-06 	6.82746e-16
0.0516136 	38.9557 	-1.71771e-06 	6.8274e-16
0.0518679 	39.0512 	-1.71771e-06 	6.82734e-16
0.0521221 	39.1466 	-1.71771e-06 	6.82728e-16
0.0523764 	39.242 	-1.71771e-06 	6.82722e-16
0.0526306 	39.3375 	-1.71771e-06 	6.82716e-16
0.0528849 	39.4329 	-1.71771e-06 	6.8271e-16
0.0531391 	39.5283 	-1.71771e-06 	6.82704e-16
0.0533934 	39.6237 	-1.71771e-06 	6.82697e-16
0.0536476 	39.7192 	-1.71771e-06 	6.82691e-16
0.0539019 	39.8152 	-1.82487e-06 	6.51415e-16
0.0541562 	39.9172 	-1.82487e-06 	6.51408e-16
0.0544104 	40.0191 	-1.82487e-06 	6.51402e-16
0.0546647 	40.1211 	-1.82487e-06 	6.51395e-16
0.0549189 	40.2231 	-1.82487e-06 	6.51389e-16
0.0551732 	40.3251 	-1.82487e-06 	6.51382e-16
0.0554274 	40.427 	-1.82487e-06 	6.51375e-16
0.0556817 	40.529 	-1.82487e-06 	6.51369e-16
0.0559359 	40.631 	-1.82487e-06 	6.51362e-16
0.0561902 	40.733 	-1.82487e-06 	6.51356e-16
0.0564444 	40.8349 	-2.19184e-06 	-2.32054e-18
0.0566987 	40.9437 	-1.93368e-06 	6.56654e-16
0.056953 	41.0524 	-1.93368e-06 	6.56647e-16
0.0572072 	41.1612 	-1.93368e-06 	6.5664e-16
0.0574615 	41.2699 	-1.93368e-06 	6.56633e-16
0.0577157 	41.3787 	-1.93368e-06 	6.56626e-16
0.05797 	41.4874 	-1.93368e-06 	6.56619e-16
0.0582242 	41.5962 	-1.93368e-06 	6.56612e-16
0.0584785 	41.7049 	-1.93368e-06 	6.56605e-16
0.0587327 	41.8137 	-1.93368e-06 	6.56598e-16
0.058987 	41.9224 	-1.93368e-06 	6.56591e-16
0.0592412 	42.0376 	-2.04309e-06 	6.68026e-16
0.0594955 	42.1533 	-2.04309e-06 	6.68018e-16
0.0597497 	42.2691 	-2.04309e-06 	6.68011e-16
0.060004 	42.3848 	-2.04309e-06 	6.68003e-16
0.0602583 	42.5006 	-2.04309e-06 	6.67996e-16
0.0605125 	42.6163 	-2.04309e-06 	6.67988e-16
0.0607668 	42.7321 	-2.04309e-06 	6.67981e-16
0.061021 	42.8478 	-2.04309e-06 	6.67973e-16
0.0612753 	42.9636 	-2.04309e-06 	6.67966e-16
0.0615295 	43.0793 	-2.04309e-06 	6.67959e-16
0.0617838 	43.201 	-2.15301e-06 	7.39359e-16
0.062038 	43.3239 	-2.15301e-06 	7.39351e-16
0.0622923 	43.4469 	-2.15301e-06 	7.39343e-16
0.0625465 	43.5699 	-2.15301e-06 	7.39335e-16
0.0628008 	43.6928 	-2.15301e-06 	7.39327e-16
0.0630551 	43.8158 	-2.15301e-06 	7.39319e-16
0.0633093 	43.9388 	-2.15301e-06 	7.39311e-16
0.0635636 	44.0617 	-2.15301e-06 	7.39303e-16
0.0638178 	44.1847 	-2.15301e-06 	7.39295e-16
0.0640721 	44.3077 	-2.15301e-06 	7.39287e-16
0.0643263 	44.436 	-2.263e-06 	7.07856e-16
0.0645806 	44.5664 	-2.263e-06 	7.07848e-16
0.0648348 	44.6968 	-2.263e-06 	7.07839e-16
0.0650891 	44.8271 	-2.263e-06 	7.07831e-16
0.0653433 	44.9575 	-2.263e-06 	7.07823e-16
0.0655976 	45.0879 	-2.263e-06 	7.07814e-16
0.0658519 	45.2182 	-2.263e-06 	7.07806e-16
0.0661061 	45.3486 	-2.263e-06 	7.07798e-16
0.0663604 	45.479 	-2.263e-06 	7.07789e-16
0.0666146 	45.6093 	-2.263e-06 	7.07781e-16
0.0668689 	45.7446 	-2.37163e-06 	7.14973e-16
0.0671231 	45.8825 	-2.37163e-06 	7.14964e-16
0.0673774 	46.0205 	-2.37163e-06 	7.14955e-16
0.0676316 	46.1585 	-2.37163e-06 	7.14946e-16
0.0678859 	46.2965 	-2.37163e-06 	7.14937e-16
0.0681401 	46.4344 	-2.37163e-06 	7.14928e-16
0.0683944 	46.5724 	-2.37163e-06 	7.14919e-16
0.0686486 	46.7104 	-2.37163e-06 	7.1491e-16
0.0689029 	46.8484 	-2.37163e-06 	7.14902e-16
0.0691572 	46.9864 	-2.37163e-06 	7.14893e-16
0.0694114 	47.1286 	-2.4782e-06 	7.29099e-16
0.0696657 	47.2744 	-2.4782e-06 	7.2909e-16
0.0699199 	47.4202 	-2.4782e-06 	7.29081e-16
0.0701742 	47.566 	-2.4782e-06 	7.29071e-16
0.0704284 	47.7118 	-2.4782e-06 	7.29062e-16
0.0706827 	47.8577 	-2.4782e-06 	7.29052e-16
0.0709369 	48.0035 	-2.4782e-06 	7.29043e-16
0.0711912 	48.1493 	-2.4782e-06 	7.29034e-16
0.0714454 	48.2951 	-2.4782e-06 	7.29024e-16
0.0716997 	48.4409 	-2.4782e-06 	7.29015e-16
0.071954 	48.5903 	-2.56758e-06 	7.44117e-16
0.0722082 	48.7441 	-2.56758e-06 	7.44107e-16
0.0724625 	48.8979 	-2.56758e-06 	7.44098e-16
0.0727167 	49.0517 	-2.56758e-06 	7.44088e-16
0.072971 	49.2055 	-2.56758e-06 	7.44078e-16
0.0732252 	49.3593 	-2.56758e-06 	7.44068e-16
0.0734795 	49.5131 	-2.56758e-06 	7.44058e-16
0.0737337 	49.6669 	-2.56758e-06 	7.44048e-16
0.073988 	49.8207 	-2.56758e-06 	7.44038e-16
0.0742422 	49.9745 	-2.56758e-06 	7.44028e-16
0.0744965 	50.1312 	-2.63792e-06 	7.59653e-16
0.0747508 	50.293 	-2.63792e-06 	7.59642e-16
0.075005 	50.4548 	-2.63792e-06 	7.59632e-16
0.0752593 	50.6166 	-2.63792e-06 	7.59622e-16
0.0755135 	50.7784 	-2.63792e-06 	7.59611e-16
0.0757678 	50.9402 	-2.63792e-06 	7.59601e-16
0.076022 	51.102 	-2.63792e-06 	7.5959e-16
0.0762763 	51.2638 	-2.63792e-06 	7.5958e-16
0.0765305 	51.4256 	-2.63792e-06 	7.5957e-16
0.0767848 	51.5874 	-2.63792e-06 	7.59559e-16
0.077039 	51.7513 	-2.69539e-06 	7.23641e-16
0.0772933 	51.9211 	-2.69539e-06 	7.23631e-16
0.0775475 	52.0908 	-2.69539e-06 	7.2362e-16
0.0778018 	52.2605 	-2.69539e-06 	7.23609e-16
0.0780561 	52.4302 	-2.69539e-06 	7.23598e-16
0.0783103 	52.5999 	-2.69539e-06 	7.23587e-16
0.0785646 	52.7697 	-2.69539e-06 	7.23576e-16
0.0788188 	52.9394 	-2.69539e-06 	7.23565e-16
0.0790731 	53.1091 	-2.69539e-06 	7.23554e-16
0.0793273 	53.2788 	-2.69539e-06 	7.23543e-16
0.0795816 	53.45 	-2.73516e-06 	7.0691e-16
0.0798358 	53.6275 	-2.73516e-06 	7.06899e-16
0.0800901 	53.8049 	-2.73516e-06 	7.06887e-16
0.0803443 	53.9824 	-2.73516e-06 	7.06876e-16
0.0805986 	54.1599 	-2.73516e-06 	7.06864e-16
0.0808529 	54.3374 	-2.73516e-06 	7.06853e-16
0.0811071 	54.5149 	-2.73516e-06 	7.06842e-16
0.0813614 	54.6924 	-2.73516e-06 	7.0683e-16
0.0816156 	54.8699 	-2.73516e-06 	7.06819e-16
0.0818699 	55.0474 	-2.73516e-06 	7.06807e-16
0.0821241 	55.2255 	-2.75056e-06 	7.24738e-16
0.0823784 	55.4106 	-2.75056e-06 	7.24726e-16
0.0826326 	55.5956 	-2.75056e-06 	7.24714e-16
0.0828869 	55.7806 	-2.75056e-06 	7.24702e-16
0.0831411 	55.9656 	-2.75056e-06 	7.2469e-16
0.0833954 	56.1506 	-2.75056e-06 	7.24678e-16
0.0836496 	56.3356 	-2.75056e-06 	7.24667e-16
0.0839039 	56.5207 	-2.75056e-06 	7.24655e-16
0.0841582 	56.7057 	-2.75056e-06 	7.24643e-16
0.0844124 	56.8907 	-2.75056e-06 	7.24631e-16
0.0846667 	57.0757 	-3.64684e-06 	-1.28871e-18
0.0849209 	57.2679 	-2.76153e-06 	7.44015e-16
0.0851752 	57.4601 	-2.76153e-06 	7.44003e-16
0.0854294 	57.6523 	-2.76153e-06 	7.43991e-16
0.0856837 	57.8445 	-2.76153e-06 	7.43978e-16
0.0859379 	58.0367 	-2.76153e-06 	7.43966e-16
0.0861922 	58.2289 	-2.76153e-06 	7.43953e-16
0.0864464 	58.4211 	-2.76153e-06 	7.43941e-16
0.0867007 	58.6133 	-2.76153e-06 	7.43929e-16
0.086955 	58.8055 	-2.76153e-06 	7.43916e-16
0.0872092 	58.9977 	-2.76153e-06 	7.43904e-16
0.0874635 	59.196 	-2.76022e-06 	7.64001e-16
0.0877177 	59.3949 	-2.76022e-06 	7.63988e-16
0.087972 	59.5938 	-2.76022e-06 	7.63975e-16
0.0882262 	59.7928 	-2.76022e-06 	7.63962e-16
0.0884805 	59.9917 	-2.76022e-06 	7.6395e-16
0.0887347 	60.1906 	-2.76022e-06 	7.63937e-16
0.088989 	60.3896 	-2.76022e-06 	7.63924e-16
0.0892432 	60.5885 	-2.76022e-06 	7.63911e-16
0.0894975 	60.7874 	-2.76022e-06 	7.63898e-16
0.0897518 	60.9863 	-2.76022e-06 	7.63886e-16
0.090006 	61.1903 	-2.74549e-06 	7.83728e-16
0.0902603 	61.3953 	-2.74549e-06 	7.83715e-16
0.0905145 	61.6004 	-2.74549e-06 	7.83702e-16
0.0907688 	61.8054 	-2.74549e-06 	7.83689e-16
0.091023 	62.0105 	-2.74549e-06 	7.83676e-16
0.0912773 	62.2155 	-2.74549e-06 	7.83662e-16
0.0915315 	62.4206 	-2.74549e-06 	7.83649e-16
0.0917858 	62.6256 	-2.74549e-06 	7.83636e-16
0.09204 	62.8307 	-2.74549e-06 	7.83623e-16
0.0922943 	63.0357 	-2.74549e-06 	7.8361e-16
0.0925485 	63.2446 	-2.7399e-06 	8.02703e-16
0.0928028 	63.455 	-2.7399e-06 	8.02689e-16
0.0930571 	63.6653 	-2.7399e-06 	8.02676e-16
0.0933113 	63.8757 	-2.7399e-06 	8.02662e-16
0.0935656 	64.086 	-2.7399e-06 	8.02649e-16
0.0938198 	64.2964 	-2.7399e-06 	8.02635e-16
0.0940741 	64.5067 	-2.7399e-06 	8.02622e-16
0.0943283 	64.7171 	-2.7399e-06 	8.02608e-16
0.0945826 	64.9274 	-2.7399e-06 	8.02595e-16
0.0948368 	65.1378 	-2.7399e-06 	8.02581e-16
0.0950911 	65.3508 	-2.70633e-06 	7.64892e-16
0.0953453 	65.5654 	-2.70633e-06 	7.64878e-16
0.0955996 	65.7799 	-2.70633e-06 	7.64864e-16
0.0958539 	65.9944 	-2.70633e-06 	7.6485e-16
0.0961081 	66.209 	-2.70633e-06 	7.64837e-16
0.0963624 	66.4235 	-2.70633e-06 	7.64823e-16
0.0966166 	66.6381 	-2.70633e-06 	7.64809e-16
0.0968709 	66.8526 	-2.70633e-06 	7.64795e-16
0.0971251 	67.0672 	-2.70633e-06 	7.64781e-16
0.0973794 	67.2817 	-2.70633e-06 	7.64768e-16
0.0976336 	67.4978 	-2.62785e-06 	8.53718e-16
0.0978879 	67.715 	-2.62785e-06 	8.53704e-16
0.0981421 	67.9323 	-2.62785e-06 	8.5369e-16
0.0983964 	68.1496 	-2.62785e-06 	8.53676e-16
0.0986507 	68.3669 	-2.62785e-06 	8.53662e-16
0.0989049 	68.5842 	-2.62785e-06 	8.53648e-16
0.0991592 	68.8015 	-2.62785e-06 	8.53634e-16
0.0994134 	69.0188 	-2.62785e-06 	8.5362e-16
0.0996677 	69.2361 	-2.62785e-06 	8.53606e-16
0.0999219 	69.4534 	-2.62785e-06 	8.53592e-16
0.100176 	69.6711 	-2.51199e-06 	9.07756e-16
0.10043 	69.8893 	-2.51199e-06 	9.07742e-16
0.100685 	70.1075 	-2.51199e-06 	9.07728e-16
0.100939 	70.3257 	-2.51199e-06 	9.07714e-16
0.101193 	70.5439 	-2.51199e-06 	9.077e-16
0.101447 	70.7621 	-2.51199e-06 	9.07686e-16
0.101702 	70.9803 	-2.51199e-06 	9.07671e-16
0.101956 	71.1986 	-2.51199e-06 	9.07657e-16
0.10221 	71.4168 	-2.51199e-06 	9.07643e-16
0.102464 	71.635 	-2.51199e-06 	9.07629e-16
0.102719 	71.8528 	-2.34662e-06 	9.26342e-16
0.102973 	72.0698 	-2.34662e-06 	9.26328e-16
0.103227 	72.2868 	-2.34662e-06 	9.26314e-16
0.103481 	72.5038 	-2.34662e-06 	9.263e-16
0.103736 	72.7208 	-2.34662e-06 	9.26286e-16
0.10399 	72.9379 	-2.34662e-06 	9.26272e-16
0.104244 	73.1549 	-2.34662e-06 	9.26258e-16
0.104498 	73.3719 	-2.34662e-06 	9.26244e-16
0.104753 	73.5889 	-2.34662e-06 	9.2623e-16
0.105007 	73.806 	-2.34662e-06 	9.26216e-16
0.105261 	74.022 	-2.15619e-06 	1.00006e-15
0.105516 	74.2355 	-2.15619e-06 	1.00004e-15
0.10577 	74.4491 	-2.15619e-06 	1.00003e-15
0.106024 	74.6626 	-2.15619e-06 	1.00002e-15
0.106278 	74.8761 	-2.15619e-06 	1e-15
0.106533 	75.0896 	-2.15619e-06 	9.9999e-16
0.106787 	75.3032 	-2.15619e-06 	9.99976e-16
0.107041 	75.5167 	-2.15619e-06 	9.99963e-16
0.107295 	75.7302 	-2.15619e-06 	9.99949e-16
0.10755 	75.9437 	-2.15619e-06 	9.99935e-16
0.107804 	76.1562 	-1.88536e-06 	1.07034e-15
0.108058 	76.3637 	-1.88536e-06 	1.07033e-15
0.108312 	76.5713 	-1.88536e-06 	1.07031e-15
0.108567 	76.7789 	-1.88536e-06 	1.0703e-15
0.108821 	76.9864 	-1.88536e-06 	1.07029e-15
0.109075 	77.194 	-1.88536e-06 	1.07027e-15
0.109329 	77.4016 	-1.88536e-06 	1.07026e-15
0.109584 	77.6091 	-1.88536e-06 	1.07025e-15
0.109838 	77.8167 	-1.88536e-06 	1.07023e-15
0.110092 	78.0243 	-1.88536e-06 	1.07022e-15
0.110346 	78.2311 	-1.63199e-06 	1.08504e-15
0.110601 	78.43 	-1.63199e-06 	1.08503e-15
0.110855 	78.6289 	-1.63199e-06 	1.08502e-15
0.111109 	78.8278 	-1.63199e-06 	1.085e-15
0.111363 	79.0267 	-1.63199e-06 	1.08499e-15
0.111618 	79.2257 	-1.63199e-06 	1.08498e-15
0.111872 	79.4246 	-1.63199e-06 	1.08496e-15
0.112126 	79.6235 	-1.63199e-06 	1.08495e-15
0.11238 	79.8224 	-1.63199e-06 	1.08494e-15
0.112635 	80.0213 	-1.63199e-06 	1.08493e-15
0.112889 	80.2202 	-2.69568e-06 	-3.74974e-19
0.113143 	80.4077 	-1.31075e-06 	1.09206e-15
0.113397 	80.5951 	-1.31075e-06 	1.09204e-15
0.113652 	80.7826 	-1.31075e-06 	1.09203e-15
0.113906 	80.97 	-1.31075e-06 	1.09202e-15
0.11416 	81.1574 	-1.31075e-06 	1.09201e-15
0.114414 	81.3449 	-1.31075e-06 	1.092e-15
0.114669 	81.5323 	-1.31075e-06 	1.09198e-15
0.114923 	81.7197 	-1.31075e-06 	1.09197e-15
0.115177 	81.9072 	-1.31075e-06 	1.09196e-15
0.115431 	82.0946 	-1.31075e-06 	1.09195e-15
0.115686 	82.2689 	-9.24923e-07 	1.09439e-15
0.11594 	82.4419 	-9.24923e-07 	1.09438e-15
0.116194 	82.6149 	-9.24923e-07 	1.09437e-15
0.116448 	82.7879 	-9.24923e-07 	1.09436e-15
0.116703 	82.9609 	-9.24923e-07 	1.09435e-15
0.116957 	83.1339 	-9.24923e-07 	1.09434e-15
0.117211 	83.3069 	-9.24923e-07 	1.09432e-15
0.117465 	83.4799 	-9.24923e-07 	1.09431e-15
0.11772 	83.6529 	-9.24923e-07 	1.0943e-15
0.117974 	83.8258 	-9.24923e-07 	1.09429e-15
0.118228 	83.9845 	-5.43806e-07 	1.09564e-15
0.118482 	84.14 	-5.43806e-07 	1.09563e-15
0.118737 	84.2955 	-5.43806e-07 	1.09562e-15
0.118991 	84.451 	-5.43806e-07 	1.09561e-15
0.119245 	84.6064 	-5.43806e-07 	1.0956e-15
0.119499 	84.7619 	-5.43806e-07 	1.09559e-15
0.119754 	84.9174 	-5.43806e-07 	1.09558e-15
0.120008 	85.0729 	-5.43806e-07 	1.09557e-15
0.120262 	85.2284 	-5.43806e-07 	1.09556e-15
0.120517 	85.3839 	-5.43806e-07 	1.09555e-15
0.120771 	85.5246 	-1.62863e-07 	1.09518e-15
0.121025 	85.6597 	-1.62863e-07 	1.09517e-15
0.121279 	85.7948 	-1.62863e-07 	1.09516e-15
0.121534 	85.93 	-1.62863e-07 	1.09515e-15
0.121788 	86.0651 	-1.62863e-07 	1.09514e-15
0.122042 	86.2003 	-1.62863e-07 	1.09513e-15
0.122296 	86.3354 	-1.62863e-07 	1.09512e-15
0.122551 	86.4705 	-1.62863e-07 	1.09512e-15
0.122805 	86.6057 	-1.62863e-07 	1.09511e-15
0.123059 	86.7408 	-1.62863e-07 	1.0951e-15
0.123313 	86.8615 	2.18212e-07 	1.09293e-15
0.123568 	86.974 	2.18212e-07 	1.09293e-15
0.123822 	87.0865 	2.18212e-07 	1.09292e-15
0.124076 	87.1989 	2.18212e-07 	1.09291e-15
0.12433 	87.3114 	2.18212e-07 	1.0929e-15
0.124585 	87.4239 	2.18212e-07 	1.0929e-15
0.124839 	87.5363 	2.18212e-07 	1.09289e-15
0.125093 	87.6488 	2.18212e-07 	1.09288e-15
0.125347 	87.7612 	2.18212e-07 	1.09288e-15
0.125602 	87.8737 	2.18212e-07 	1.09287e-15
0.125856 	87.9729 	5.62257e-07 	1.08857e-15
0.12611 	88.0611 	5.62257e-07 	1.08856e-15
0.126364 	88.1493 	5.62257e-07 	1.08856e-15
0.126619 	88.2375 	5.62257e-07 	1.08855e-15
0.126873 	88.3257 	5.62257e-07 	1.08855e-15
0.127127 	88.4139 	5.62257e-07 	1.08854e-15
0.127381 	88.5021 	5.62257e-07 	1.08853e-15
0.127636 	88.5903 	5.62257e-07 	1.08853e-15
0.12789 	88.6785 	5.62257e-07 	1.08852e-15
0.128144 	88.7667 	5.62257e-07 	1.08852e-15
0.128398 	88.8437 	8.72237e-07 	1.08083e-15
0.128653 	88.9071 	8.72237e-07 	1.08082e-15
0.128907 	88.9704 	8.72237e-07 	1.08082e-15
0.129161 	89.0338 	8.72237e-07 	1.08081e-15
0.129415 	89.0972 	8.72237e-07 	1.08081e-15
0.12967 	89.1606 	8.72237e-07 	1.08081e-15
0.129924 	89.224 	8.72237e-07 	1.0808e-15
0.130178 	89.2874 	8.72237e-07 	1.0808e-15
0.130432 	89.3508 	8.72237e-07 	1.08079e-15
0.130687 	89.4141 	8.72237e-07 	1.08079e-15
0.130941 	89.4687 	1.13265e-06 	1.07004e-15
0.131195 	89.5078 	1.13265e-06 	1.07004e-15
0.131449 	89.5469 	1.13265e-06 	1.07003e-15
0.131704 	89.586 	1.13265e-06 	1.07003e-15
0.131958 	89.6251 	1.13265e-06 	1.07003e-15
0.132212 	89.6641 	1.13265e-06 	1.07003e-15
0.132466 	89.7032 	1.13265e-06 	1.07002e-15
0.132721 	89.7423 	1.13265e-06 	1.07002e-15
0.132975 	89.7814 	1.13265e-06 	1.07002e-15
0.133229 	89.8205 	1.13265e-06 	1.07002e-15
0.133483 	89.8533 	1.33481e-06 	1.05724e-15
0.133738 	89.8695 	1.33481e-06 	1.05723e-15
0.133992 	89.8857 	1.33481e-06 	1.05723e-15
0.134246 	89.9019 	1.33481e-06 	1.05723e-15
0.134501 	89.9181 	1.33481e-06 	1.05723e-15
0.134755 	89.9343 	1.33481e-06 	1.05723e-15
0.135009 	89.9505 	1.33481e-06 	1.05723e-15
0.135263 	89.9667 	1.33481e-06 	1.05723e-15
0.135518 	89.9829 	1.33481e-06 	1.05723e-15
0.135772 	89.9991 	1.33481e-06 	1.05723e-15
0.136026 	90.0115 	1.51581e-06 	1.104e-15
0.13628 	90.0067 	1.51581e-06 	1.104e-15
0.136535 	90.002 	1.51581e-06 	1.104e-15
0.136789 	89.9973 	1.51581e-06 	1.104e-15
0.137043 	89.9926 	1.51581e-06 	1.104e-15
0.137297 	89.9878 	1.51581e-06 	1.104e-15
0.137552 	89.9831 	1.51581e-06 	1.104e-15
0.137806 	89.9784 	1.51581e-06 	1.104e-15
0.13806 	89.9736 	1.51581e-06 	1.104e-15
0.138314 	89.9689 	1.51581e-06 	1.104e-15
0.138569 	89.9625 	1.66254e-06 	1.02788e-15
0.138823 	89.939 	1.66254e-06 	1.02788e-15
0.139077 	89.9155 	1.66254e-06 	1.02788e-15
0.139331 	89.892 	1.66254e-06 	1.02788e-15
0.139586 	89.8685 	1.66254e-06 	1.02788e-15
0.13984 	89.8449 	1.66254e-06 	1.02789e-15
0.140094 	89.8214 	1.66254e-06 	1.02789e-15
0.140348 	89.7979 	1.66254e-06 	1.02789e-15
0.140603 	89.7744 	1.66254e-06 	1.02789e-15
0.140857 	89.7509 	1.66254e-06 	1.02789e-15
0.141111 	89.7274 	8.77978e-07 	-2.34827e-18
0.141365 	89.6872 	1.78418e-06 	1.01769e-15
0.14162 	89.647 	1.78418e-06 	1.0177e-15
0.141874 	89.6067 	1.78418e-06 	1.0177e-15
0.142128 	89.5665 	1.78418e-06 	1.0177e-15
0.142382 	89.5263 	1.78418e-06 	1.0177e-15
0.142637 	89.486 	1.78418e-06 	1.01771e-15
0.142891 	89.4458 	1.78418e-06 	1.01771e-15
0.143145 	89.4056 	1.78418e-06 	1.01771e-15
0.143399 	89.3654 	1.78418e-06 	1.01772e-15
0.143654 	89.3251 	1.78418e-06 	1.01772e-15
0.143908 	89.2714 	1.89637e-06 	9.56031e-16
0.144162 	89.2163 	1.89637e-06 	9.56034e-16
0.144416 	89.1613 	1.89637e-06 	9.56038e-16
0.144671 	89.1062 	1.89637e-06 	9.56041e-16
0.144925 	89.0511 	1.89637e-06 	9.56045e-16
0.145179 	88.996 	1.89637e-06 	9.56048e-16
0.145433 	88.941 	1.89637e-06 	9.56052e-16
0.145688 	88.8859 	1.89637e-06 	9.56055e-16
0.145942 	88.8308 	1.89637e-06 	9.56059e-16
0.146196 	88.7757 	1.89637e-06 	9.56063e-16
0.14645 	88.7098 	2.0009e-06 	8.80763e-16
0.146705 	88.6415 	2.0009e-06 	8.80767e-16
0.146959 	88.5732 	2.0009e-06 	8.80772e-16
0.147213 	88.5049 	2.0009e-06 	8.80776e-16
0.147467 	88.4366 	2.0009e-06 	8.8078e-16
0.147722 	88.3683 	2.0009e-06 	8.80785e-16
0.147976 	88.3 	2.0009e-06 	8.80789e-16
0.14823 	88.2317 	2.0009e-06 	8.80794e-16
0.148484 	88.1634 	2.0009e-06 	8.80798e-16
0.148739 	88.0951 	2.0009e-06 	8.80802e-16
0.148993 	88.0182 	2.10037e-06 	8.6817e-16
0.149247 	87.9381 	2.10037e-06 	8.68175e-16
0.149502 	87.858 	2.10037e-06 	8.6818e-16
0.149756 	87.7778 	2.10037e-06 	8.68185e-16
0.15001 	87.6977 	2.10037e-06 	8.6819e-16
0.150264 	87.6176 	2.10037e-06 	8.68196e-16
0.150519 	87.5375 	2.10037e-06 	8.68201e-16
0.150773 	87.4573 	2.10037e-06 	8.68206e-16
0.151027 	87.3772 	2.10037e-06 	8.68211e-16
0.151281 	87.2971 	2.10037e-06 	8.68216e-16
0.151536 	87.2103 	2.19363e-06 	8.54989e-16
0.15179 	87.1196 	2.19363e-06 	8.54994e-16
0.152044 	87.029 	2.19363e-06 	8.55e-16
0.152298 	86.9383 	2.19363e-06 	8.55006e-16
0.152553 	86.8477 	2.19363e-06 	8.55012e-16
0.152807 	86.757 	2.19363e-06 	8.55018e-16
0.153061 	86.6663 	2.19363e-06 	8.55024e-16
0.153315 	86.5757 	2.19363e-06 	8.55029e-16
0.15357 	86.485 	2.19363e-06 	8.55035e-16
0.153824 	86.3944 	2.19363e-06 	8.55041e-16
0.154078 	86.2987 	2.27781e-06 	8.38985e-16
0.154332 	86.1988 	2.27781e-06 	8.38992e-16
0.154587 	86.0988 	2.27781e-06 	8.38998e-16
0.154841 	85.9989 	2.27781e-06 	8.39004e-16
0.155095 	85.899 	2.27781e-06 	8.39011e-16
0.155349 	85.7991 	2.27781e-06 	8.39017e-16
0.155604 	85.6992 	2.27781e-06 	8.39024e-16
0.155858 	85.5992 	2.27781e-06 	8.3903e-16
0.156112 	85.4993 	2.27781e-06 	8.39037e-16
0.156366 	85.3994 	2.27781e-06 	8.39043e-16
0.156621 	85.2959 	2.35034e-06 	8.20809e-16
0.156875 	85.188 	2.35034e-06 	8.20815e-16
0.157129 	85.0801 	2.35034e-06 	8.20822e-16
0.157383 	84.9722 	2.35034e-06 	8.20829e-16
0.157638 	84.8643 	2.35034e-06 	8.20836e-16
0.157892 	84.7564 	2.35034e-06 	8.20843e-16
0.158146 	84.6486 	2.35034e-06 	8.2085e-16
0.1584 	84.5407 	2.35034e-06 	8.20857e-16
0.158655 	84.4328 	2.35034e-06 	8.20864e-16
0.158909 	84.3249 	2.35034e-06 	8.20871e-16
0.159163 	84.2146 	2.4099e-06 	8.52863e-16
0.159417 	84.1001 	2.4099e-06 	8.5287e-16
0.159672 	83.9856 	2.4099e-06 	8.52877e-16
0.159926 	83.8711 	2.4099e-06 	8.52885e-16
0.16018 	83.7566 	2.4099e-06 	8.52892e-16
0.160434 	83.6421 	2.4099e-06 	8.52899e-16
0.160689 	83.5276 	2.4099e-06 	8.52907e-16
0.160943 	83.4131 	2.4099e-06 	8.52914e-16
0.161197 	83.2986 	2.4099e-06 	8.52921e-16
0.161451 	83.1841 	2.4099e-06 	8.52929e-16
0.161706 	83.0681 	2.45625e-06 	8.96304e-16
0.16196 	82.9484 	2.45625e-06 	8.96312e-16
0.162214 	82.8286 	2.45625e-06 	8.9632e-16
0.162468 	82.7088 	2.45625e-06 	8.96327e-16
0.162723 	82.5891 	2.45625e-06 	8.96335e-16
0.162977 	82.4693 	2.45625e-06 	8.96343e-16
0.163231 	82.3495 	2.45625e-06 	8.9635e-16
0.163485 	82.2298 	2.45625e-06 	8.96358e-16
0.16374 	82.11 	2.45625e-06 	8.96366e-16
0.163994 	81.9902 	2.45625e-06 	8.96374e-16
0.164248 	81.8697 	2.48968e-06 	8.70115e-16
0.164503 	81.746 	2.48968e-06 	8.70123e-16
0.164757 	81.6223 	2.48968e-06 	8.70131e-16
0.165011 	81.4986 	2.48968e-06 	8.70139e-16
0.165265 	81.3749 	2.48968e-06 	8.70146e-16
0.16552 	81.2513 	2.48968e-06 	8.70154e-16
0.165774 	81.1276 	2.48968e-06 	8.70162e-16
0.166028 	81.0039 	2.48968e-06 	8.7017e-16
0.166282 	80.8802 	2.48968e-06 	8.70178e-16
0.166537 	80.7565 	2.48968e-06 	8.70186e-16
0.166791 	80.6325 	2.51069e-06 	8.52609e-16
0.167045 	80.5062 	2.51069e-06 	8.52617e-16
0.167299 	80.3798 	2.51069e-06 	8.52625e-16
0.167554 	80.2534 	2.51069e-06 	8.52633e-16
0.167808 	80.1271 	2.51069e-06 	8.52641e-16
0.168062 	80.0007 	2.51069e-06 	8.5265e-16
0.168316 	79.8744 	2.51069e-06 	8.52658e-16
0.168571 	79.748 	2.51069e-06 	8.52666e-16
0.168825 	79.6216 	2.51069e-06 	8.52674e-16
0.169079 	79.4953 	2.51069e-06 	8.52682e-16
0.169333 	79.3689 	1.88435e-06 	-2.9242e-18
0.169588 	79.2411 	2.51979e-06 	8.7992e-16
0.169842 	79.1132 	2.51979e-06 	8.79928e-16