/*--------------------------------*- C++ -*----------------------------------*\
| =========                 |                                                 |
| \\      /  F ield         | OpenFOAM: The Open Source CFD Toolbox           |
|  \\    /   O peration     | Version:  v3.0+                                 |
|   \\  /    A nd           | Web:      www.OpenFOAM.com                      |
|    \\/     M anipulation  |                                                 |
\*---------------------------------------------------------------------------*/
FoamFile
{
    version     2.0;
    format      ascii;
    class       volVectorField;
    location    "8000";
    object      D;
}
// * * * * * * * * * * * * * * * * * * * * * * * * * * * * * * * * * * * * * //

dimensions      [0 1 0 0 0 0 0];

internalField   nonuniform List<vector> 
24076
(
(4.33117e-06 4.2588e-06 0)
(4.88317e-09 5.43124e-08 0)
(3.81493e-11 7.6592e-10 0)
(3.86824e-11 7.43808e-10 0)
(1.1369e-06 3.32053e-06 0)
(6.2382e-09 6.45245e-08 0)
(4.71867e-09 5.46021e-08 0)
(4.4329e-06 4.28988e-06 0)
(-3.76941e-12 5.6868e-11 0)
(1.00449e-05 3.11583e-05 0)
(-1.33217e-06 2.83816e-06 0)
(1.02427e-05 3.14683e-05 0)
(1.75626e-06 1.82339e-06 0)
(1.04587e-06 3.30376e-06 0)
(1.09272e-05 2.54181e-05 0)
(1.8608e-06 2.39268e-05 0)
(-1.89384e-05 0.000158483 0)
(2.14438e-05 0.000158583 0)
(1.12441e-06 1.31463e-05 0)
(2.09428e-06 2.40597e-05 0)
(1.06521e-05 2.52268e-05 0)
(-1.29275e-06 5.60241e-06 0)
(6.10911e-09 8.72037e-08 0)
(-1.28199e-06 2.769e-06 0)
(3.53722e-07 1.43624e-06 0)
(9.46526e-07 1.30888e-05 0)
(-1.42398e-07 2.27989e-07 0)
(6.09591e-09 6.36157e-08 0)
(1.37603e-07 2.84136e-05 0)
(2.78441e-07 1.41391e-06 0)
(-2.64366e-07 2.83794e-05 0)
(1.30803e-10 1.31938e-08 0)
(3.93025e-06 1.58767e-05 0)
(2.26245e-06 6.51035e-06 0)
(4.12668e-06 1.59371e-05 0)
(7.5381e-06 2.30764e-05 0)
(1.83788e-06 1.9e-06 0)
(-1.88538e-05 0.000159665 0)
(2.13886e-05 0.000159778 0)
(3.54986e-06 2.1092e-06 0)
(-6.90181e-07 4.20571e-07 0)
(-8.36528e-07 5.82353e-05 0)
(1.62346e-06 2.35791e-06 0)
(2.16044e-06 6.51767e-06 0)
(7.25543e-06 2.2955e-05 0)
(-7.32446e-06 2.16403e-05 0)
(8.36869e-10 5.89162e-08 0)
(3.52001e-06 3.11283e-05 0)
(-1.51467e-07 2.32774e-07 0)
(-5.29921e-06 2.30413e-05 0)
(1.26174e-10 1.97028e-09 0)
(-1.26548e-07 2.07395e-07 0)
(-1.03237e-11 7.3414e-11 0)
(5.99854e-09 7.00059e-08 0)
(-3.77081e-12 6.08807e-11 0)
(1.02176e-05 8.47893e-05 0)
(1.53832e-06 5.73441e-06 0)
(6.43437e-06 9.33884e-06 0)
(4.47647e-06 0.000423078 0)
(1.09914e-05 8.49032e-05 0)
(-7.37163e-06 2.19261e-05 0)
(-1.22933e-09 2.64246e-08 0)
(-5.02304e-06 9.34541e-06 0)
(-5.01981e-06 2.29007e-05 0)
(-8.5932e-07 3.079e-06 0)
(6.307e-06 9.3369e-06 0)
(1.95428e-06 5.23658e-06 0)
(-7.75284e-07 3.06864e-06 0)
(2.24111e-09 3.9699e-08 0)
(1.9806e-06 5.1482e-06 0)
(3.11549e-06 0.000419887 0)
(-4.39363e-09 1.14634e-07 0)
(-1.07871e-05 6.08155e-05 0)
(-5.73321e-10 6.18494e-09 0)
(-6.81703e-07 4.15203e-07 0)
(3.22581e-06 3.10559e-05 0)
(-1.39262e-06 5.67516e-06 0)
(-1.11834e-05 6.12968e-05 0)
(3.89747e-06 6.37985e-06 0)
(-4.91347e-06 9.20264e-06 0)
(1.25883e-09 5.93437e-08 0)
(4.91859e-06 5.4228e-05 0)
(-3.87296e-07 7.45524e-06 0)
(3.82384e-08 2.32674e-06 0)
(-4.10696e-07 3.51612e-07 0)
(-9.05895e-12 6.33264e-11 0)
(1.30601e-05 0.000263399 0)
(-1.16065e-05 8.9945e-05 0)
(4.83179e-07 0.000419235 0)
(1.09161e-05 0.000263583 0)
(4.5048e-06 5.4574e-05 0)
(2.95345e-06 0.000425446 0)
(-2.04075e-06 9.92971e-06 0)
(1.62981e-06 5.78527e-06 0)
(-3.85353e-10 2.39403e-06 0)
(-1.1548e-06 1.20681e-06 0)
(-2.19776e-06 0.000178584 0)
(8.05414e-06 0.000271912 0)
(3.18426e-11 1.27943e-08 0)
(1.79036e-06 3.92181e-06 0)
(-4.51147e-07 7.58969e-06 0)
(-9.83379e-07 1.97168e-06 0)
(-5.34921e-07 5.87765e-05 0)
(3.82355e-06 6.2739e-06 0)
(-9.76541e-07 4.02317e-05 0)
(-7.4849e-07 5.17155e-07 0)
(-1.72752e-10 2.58323e-09 0)
(-6.33508e-10 1.08992e-07 0)
(-2.95272e-06 7.85805e-06 0)
(-3.1251e-06 4.33955e-05 0)
(-2.47824e-06 0.000180108 0)
(2.78672e-06 3.15293e-05 0)
(-2.91112e-12 1.70943e-10 0)
(-1.36615e-09 2.58765e-08 0)
(1.88286e-05 0.000342064 0)
(1.08286e-10 1.92142e-09 0)
(-1.15149e-06 2.94793e-06 0)
(-2.72185e-06 4.32348e-05 0)
(7.69925e-06 0.000273651 0)
(-3.58713e-06 4.32778e-05 0)
(6.64621e-07 3.52749e-05 0)
(-6.0075e-06 3.49291e-05 0)
(-7.24273e-07 5.28808e-07 0)
(3.45296e-06 2.0525e-06 0)
(7.29778e-06 2.67562e-05 0)
(-1.18497e-05 9.0734e-05 0)
(-2.9863e-06 7.98748e-06 0)
(8.40591e-06 4.44713e-05 0)
(-1.29477e-06 3.9912e-05 0)
(5.07595e-10 9.23211e-09 0)
(-5.98931e-06 3.4565e-05 0)
(-3.82899e-06 4.29609e-05 0)
(-4.22035e-06 8.24271e-05 0)
(5.67378e-09 8.80437e-08 0)
(-1.98709e-06 1.00611e-05 0)
(-1.70999e-07 2.26962e-07 0)
(1.38798e-06 9.48295e-06 0)
(1.54071e-06 2.29293e-06 0)
(3.33963e-06 0.000241605 0)
(1.70258e-06 1.02955e-05 0)
(1.85106e-06 1.03263e-05 0)
(-3.57697e-12 1.61141e-10 0)
(-1.172e-08 2.80544e-08 0)
(-2.8801e-06 0.000202156 0)
(1.6322e-05 0.000208963 0)
(2.91191e-06 3.122e-05 0)
(-4.47939e-06 8.31093e-05 0)
(1.06944e-05 0.000122744 0)
(1.31224e-06 1.13205e-05 0)
(1.9031e-10 4.34461e-09 0)
(-5.15977e-06 1.94097e-05 0)
(-3.64858e-13 2.81921e-12 0)
(1.64384e-06 5.71541e-07 0)
(1.66664e-06 3.04119e-06 0)
(4.53419e-06 9.0449e-06 0)
(2.73424e-06 5.56429e-05 0)
(3.66213e-06 2.62521e-06 0)
(-6.84041e-07 3.55745e-05 0)
(1.30175e-06 9.58325e-06 0)
(-2.64569e-11 9.39563e-10 0)
(1.92899e-08 -4.61309e-08 0)
(-3.77324e-12 4.56109e-11 0)
(1.27454e-05 3.31887e-05 0)
(-3.37061e-06 6.64058e-06 0)
(1.30507e-06 8.71895e-05 0)
(2.5653e-05 0.000242634 0)
(-2.34321e-05 0.000242638 0)
(-1.93576e-06 1.43424e-05 0)
(-1.32089e-06 4.27261e-06 0)
(-5.31678e-07 2.68905e-07 0)
(3.12753e-06 9.05675e-06 0)
(2.09875e-09 1.04457e-07 0)
(3.0894e-07 1.65119e-05 0)
(3.09775e-06 1.36022e-05 0)
(-3.34449e-06 1.43736e-05 0)
(5.57051e-06 1.43765e-05 0)
(-1.16469e-05 8.49794e-05 0)
(1.38347e-05 8.49845e-05 0)
(1.21424e-05 3.59128e-05 0)
(-5.76459e-06 1.79549e-05 0)
(-4.75799e-06 9.18869e-06 0)
(-9.23539e-10 6.77013e-09 0)
(2.89243e-06 6.20684e-06 0)
(-1.79898e-07 -1.86375e-08 0)
(-1.97135e-07 -8.65204e-09 0)
(-1.04069e-07 4.19e-06 0)
(-1.34054e-06 4.3791e-06 0)
(-6.14992e-07 5.24777e-07 0)
(-1.7339e-06 3.36512e-06 0)
(1.06766e-06 5.61998e-07 0)
(1.22697e-09 1.66028e-08 0)
(-3.52473e-06 1.96461e-05 0)
(-1.35173e-05 0.00023473 0)
(-7.10306e-06 5.46656e-05 0)
(6.44648e-06 5.13943e-05 0)
(7.8014e-06 1.5154e-05 0)
(5.95024e-09 6.67201e-08 0)
(1.25006e-05 8.40145e-05 0)
(-1.03032e-05 8.40016e-05 0)
(-5.58078e-06 1.5152e-05 0)
(2.88875e-06 6.09263e-06 0)
(-5.61821e-07 4.78156e-07 0)
(-2.38587e-05 0.000269295 0)
(2.60832e-05 0.000269295 0)
(3.95667e-06 0.000210071 0)
(1.48011e-06 3.42079e-06 0)
(-6.48124e-06 2.04577e-05 0)
(-1.26884e-05 0.000116864 0)
(3.13281e-06 2.1363e-06 0)
(6.30585e-08 1.65844e-05 0)
(-2.65012e-09 7.03616e-08 0)
(1.66986e-06 1.87867e-05 0)
(-4.86337e-08 1.57275e-07 0)
(-5.26504e-06 1.91074e-05 0)
(-4.01066e-12 4.52481e-11 0)
(5.0919e-07 1.37144e-05 0)
(-1.77364e-07 2.3045e-07 0)
(-5.11133e-06 1.22337e-05 0)
(-2.70307e-05 0.000408597 0)
(2.92556e-05 0.000408597 0)
(-5.42974e-07 0.000150761 0)
(1.12919e-05 2.53287e-05 0)
(5.05256e-06 4.26246e-06 0)
(-1.10747e-06 6.76178e-06 0)
(8.26983e-06 1.7821e-05 0)
(-6.266e-11 3.94228e-10 0)
(-4.72106e-11 8.61867e-10 0)
(-7.49528e-06 4.58713e-05 0)
(-7.98443e-11 5.44082e-10 0)
(9.46377e-06 0.000261014 0)
(-3.41842e-11 8.76906e-10 0)
(-3.603e-06 1.98904e-05 0)
(-9.00729e-11 1.56882e-09 0)
(-1.03506e-09 7.7181e-09 0)
(1.66156e-06 7.45119e-06 0)
(6.30622e-06 9.53264e-05 0)
(-8.58201e-07 7.57289e-07 0)
(8.49211e-07 1.99059e-07 0)
(-7.21247e-06 8.55289e-05 0)
(-1.39539e-05 6.12208e-05 0)
(1.6223e-05 6.12382e-05 0)
(-4.24168e-07 3.56091e-07 0)
(-9.38372e-06 0.000108896 0)
(-8.45852e-06 0.000108059 0)
(2.04252e-05 0.000113179 0)
(-1.83015e-05 0.000113207 0)
(-7.14619e-06 6.2033e-05 0)
(8.06605e-06 1.52519e-05 0)
(-5.84595e-06 1.52499e-05 0)
(-1.17298e-06 2.52461e-06 0)
(-1.82817e-05 0.000203835 0)
(5.91914e-06 0.000175907 0)
(6.29671e-08 -5.24706e-08 0)
(5.51654e-06 7.28564e-06 0)
(2.13164e-05 0.000113669 0)
(-1.90926e-05 0.000113669 0)
(2.2424e-09 3.40861e-08 0)
(-5.83448e-11 1.13094e-08 0)
(-7.13579e-08 1.62289e-07 0)
(8.32279e-06 0.000248149 0)
(1.57216e-06 2.97531e-06 0)
(5.84352e-06 5.74488e-06 0)
(6.01792e-06 1.71091e-05 0)
(-2.51086e-12 4.83979e-11 0)
(-1.89542e-06 8.74912e-06 0)
(4.57851e-07 1.41015e-06 0)
(-6.37609e-06 2.02233e-05 0)
(2.1129e-06 5.06178e-05 0)
(-6.76978e-06 5.50149e-05 0)
(3.47208e-11 5.11994e-10 0)
(-1.44153e-05 0.000193707 0)
(1.67376e-05 0.000193746 0)
(5.38603e-06 7.21686e-06 0)
(2.29213e-06 3.22437e-05 0)
(-2.23057e-07 2.69698e-07 0)
(-7.82085e-06 7.65088e-05 0)
(-1.21028e-05 9.27471e-05 0)
(2.21229e-09 1.03515e-07 0)
(-6.06845e-06 2.22709e-05 0)
(1.30049e-05 3.35113e-05 0)
(1.4569e-10 3.16327e-09 0)
(-2.40554e-07 0.000215641 0)
(1.23077e-06 9.18762e-05 0)
(-1.33472e-07 1.96511e-07 0)
(1.01365e-06 8.46468e-06 0)
(-8.2802e-07 7.09564e-07 0)
(-1.28337e-09 1.26717e-08 0)
(6.51393e-06 1.71552e-05 0)
(-2.34077e-06 3.37671e-06 0)
(2.77301e-06 5.38548e-06 0)
(-4.31098e-06 0.000201827 0)
(4.52143e-06 5.17676e-06 0)
(3.02049e-06 1.3763e-05 0)
(1.6453e-06 4.00885e-06 0)
(2.66057e-05 0.000244556 0)
(-2.43811e-05 0.000244556 0)
(-3.87697e-06 2.03559e-05 0)
(1.56438e-11 7.90617e-10 0)
(-2.83845e-10 3.07505e-09 0)
(6.12934e-06 3.71976e-05 0)
(-7.45807e-06 6.26885e-05 0)
(9.76168e-06 6.27335e-05 0)
(-1.05912e-05 0.00012467 0)
(1.28515e-05 0.000124766 0)
(-8.39196e-07 6.8883e-07 0)
(-4.39408e-12 1.17368e-10 0)
(-7.06283e-07 0.000153788 0)
(-7.27823e-06 4.54462e-05 0)
(-1.47754e-07 6.69303e-06 0)
(-4.12263e-06 0.000182361 0)
(-1.29325e-06 2.92068e-05 0)
(1.60595e-06 5.04797e-05 0)
(3.22204e-12 9.40923e-11 0)
(-4.88434e-06 2.76955e-05 0)
(-2.24671e-06 1.90966e-05 0)
(6.90518e-06 9.12392e-06 0)
(5.17826e-06 2.7608e-05 0)
(-2.51225e-10 1.48577e-09 0)
(-1.68624e-06 2.03286e-06 0)
(5.721e-07 1.35291e-05 0)
(1.02086e-05 6.8043e-05 0)
(-6.05744e-06 1.7847e-05 0)
(-4.547e-06 2.76201e-05 0)
(-1.37392e-09 2.01065e-08 0)
(5.57834e-09 6.95585e-08 0)
(5.74788e-06 1.72336e-05 0)
(2.47857e-05 0.000184395 0)
(-2.25686e-05 0.000184386 0)
(3.21649e-06 2.23659e-06 0)
(-1.84174e-07 3.0064e-06 0)
(-3.57198e-07 8.59485e-06 0)
(1.45105e-05 8.43794e-05 0)
(-1.22905e-05 8.43779e-05 0)
(2.12052e-06 9.21837e-05 0)
(6.63645e-06 4.20732e-05 0)
(6.80281e-06 1.60851e-05 0)
(-1.21322e-06 2.9146e-06 0)
(6.79178e-09 7.51811e-08 0)
(-3.78752e-06 1.11886e-05 0)
(1.07452e-06 8.36819e-07 0)
(-4.08427e-06 7.31137e-06 0)
(-3.71725e-07 0.000163282 0)
(2.10312e-09 3.13297e-08 0)
(-7.1104e-06 9.35648e-05 0)
(1.10698e-06 3.53274e-05 0)
(-8.82324e-07 7.7088e-07 0)
(-7.41393e-08 1.69124e-07 0)
(1.0368e-07 4.7743e-06 0)
(2.70063e-06 5.64699e-05 0)
(9.31114e-06 3.0847e-05 0)
(-1.1156e-06 4.43977e-06 0)
(4.00811e-07 3.12464e-06 0)
(-7.27288e-06 4.37714e-05 0)
(1.7993e-06 1.41013e-05 0)
(5.17829e-06 6.04368e-06 0)
(6.08554e-06 5.09495e-05 0)
(4.98067e-06 1.52588e-05 0)
(1.5347e-06 1.1839e-05 0)
(-1.51896e-05 0.000233534 0)
(4.89949e-07 1.17467e-06 0)
(1.13199e-06 3.40723e-05 0)
(5.13925e-06 9.0827e-06 0)
(2.27097e-06 5.30788e-06 0)
(-1.28715e-09 3.16148e-08 0)
(-5.06028e-06 1.00764e-05 0)
(7.65504e-08 4.94494e-09 0)
(-9.30386e-07 2.93499e-05 0)
(8.84064e-06 3.08386e-05 0)
(3.63682e-06 6.32302e-06 0)
(1.54453e-06 1.85984e-05 0)
(5.29442e-06 6.09023e-06 0)
(8.80497e-07 1.48097e-06 0)
(1.07653e-05 2.66597e-05 0)
(-2.88381e-08 1.33124e-07 0)
(7.72867e-06 1.49265e-05 0)
(-5.5082e-06 1.4924e-05 0)
(-9.67188e-11 3.68402e-09 0)
(-1.62656e-05 0.000163484 0)
(1.84721e-05 0.000163289 0)
(-1.28962e-07 2.1108e-07 0)
(-6.80811e-07 5.85259e-07 0)
(-1.01157e-06 3.59128e-05 0)
(1.52425e-06 8.9021e-07 0)
(-4.94111e-07 1.84193e-06 0)
(-8.20266e-06 6.12544e-05 0)
(1.3103e-09 2.40158e-08 0)
(-1.63079e-06 1.36678e-05 0)
(2.37539e-09 1.04071e-07 0)
(9.66556e-12 5.61209e-10 0)
(4.25266e-06 5.45118e-06 0)
(2.73754e-07 2.8216e-06 0)
(-2.54512e-05 0.000268173 0)
(2.76756e-05 0.000268173 0)
(9.93298e-06 0.000249218 0)
(-1.3541e-05 0.000116157 0)
(-5.31305e-06 1.47679e-05 0)
(7.53384e-06 1.47706e-05 0)
(-2.31143e-06 4.94482e-06 0)
(-7.60766e-06 6.12019e-05 0)
(1.74663e-06 3.99884e-06 0)
(-5.95767e-06 2.78705e-05 0)
(1.10724e-05 9.28833e-05 0)
(-6.35123e-12 4.33798e-10 0)
(-7.52524e-07 2.57072e-06 0)
(9.68544e-06 2.17879e-05 0)
(-1.37408e-05 0.0001953 0)
(1.6122e-05 0.000195335 0)
(4.41225e-06 3.65641e-05 0)
(1.65237e-06 1.53793e-05 0)
(-2.81579e-06 0.0002156 0)
(-8.71604e-06 2.25359e-05 0)
(1.29881e-05 4.859e-05 0)
(5.05185e-12 5.36806e-10 0)
(8.20008e-07 1.59105e-05 0)
(6.80224e-06 0.000177658 0)
(1.02816e-06 6.01638e-07 0)
(1.42932e-05 0.000206688 0)
(6.04939e-12 1.43791e-10 0)
(-2.35279e-06 3.43528e-06 0)
(-1.01689e-05 0.000123648 0)
(1.24277e-05 0.000123737 0)
(-1.89328e-06 8.87593e-06 0)
(2.55651e-06 2.67985e-06 0)
(-6.70253e-07 1.27865e-06 0)
(7.36545e-06 0.000266844 0)
(-1.16247e-06 4.36907e-06 0)
(1.57455e-06 3.42443e-06 0)
(3.20005e-06 5.41224e-06 0)
(-3.6218e-07 8.72015e-06 0)
(-6.97221e-08 1.6175e-07 0)
(4.72314e-06 7.55948e-06 0)
(-2.54261e-06 2.72956e-05 0)
(-5.90751e-08 4.26511e-06 0)
(1.38935e-06 6.6396e-06 0)
(1.36501e-05 0.00019745 0)
(-1.36051e-06 2.14167e-05 0)
(8.06222e-09 6.9931e-08 0)
(5.47718e-06 0.000168327 0)
(-7.11847e-07 5.90224e-07 0)
(2.13758e-06 3.57218e-06 0)
(4.48975e-10 1.67128e-08 0)
(-9.47047e-08 1.654e-07 0)
(-1.56017e-06 2.5753e-06 0)
(2.74541e-06 5.29825e-06 0)
(9.34232e-07 8.79802e-05 0)
(5.68192e-06 5.84746e-06 0)
(5.10596e-09 5.91069e-08 0)
(1.24375e-05 4.8825e-05 0)
(-5.2898e-06 5.98751e-05 0)
(2.69333e-06 1.18975e-05 0)
(1.36681e-06 6.53586e-06 0)
(-7.07055e-06 8.64676e-05 0)
(1.54228e-05 0.000293909 0)
(1.14586e-05 5.53811e-05 0)
(2.40701e-06 3.09839e-06 0)
(-2.17643e-10 5.97021e-09 0)
(1.6258e-05 0.00034228 0)
(1.59724e-09 3.7562e-08 0)
(-7.03363e-10 4.6169e-09 0)
(2.59804e-07 2.16702e-06 0)
(-4.25867e-09 6.72378e-06 0)
(1.29083e-05 4.25917e-05 0)
(3.68918e-06 6.2466e-06 0)
(-1.86753e-10 2.20581e-09 0)
(-5.47714e-12 3.89014e-11 0)
(-1.72082e-05 0.000135999 0)
(1.96812e-05 0.000136073 0)
(8.8799e-06 4.46908e-05 0)
(-1.52177e-09 1.88941e-08 0)
(-1.27733e-06 1.40241e-06 0)
(-4.35308e-12 1.41649e-10 0)
(8.1733e-07 1.16031e-05 0)
(-1.72997e-06 8.16069e-06 0)
(-1.02214e-05 4.8847e-05 0)
(-1.49098e-05 0.000163244 0)
(1.71172e-05 0.00016305 0)
(3.92953e-06 4.20632e-06 0)
(6.67862e-06 3.95297e-05 0)
(-1.1788e-10 1.33231e-09 0)
(2.99653e-06 6.60944e-06 0)
(1.81927e-06 2.47462e-06 0)
(-6.52386e-06 6.19062e-05 0)
(-5.26292e-06 5.03087e-05 0)
(6.99683e-06 9.2989e-06 0)
(3.37295e-06 8.49983e-06 0)
(1.4266e-06 1.44156e-06 0)
(5.395e-06 3.40243e-05 0)
(-3.41222e-06 6.56233e-06 0)
(1.01995e-05 0.000114085 0)
(9.88208e-06 6.89113e-05 0)
(2.36769e-05 0.000183149 0)
(-2.14598e-05 0.00018314 0)
(-1.98507e-08 1.33891e-07 0)
(1.0956e-05 2.25489e-05 0)
(-1.8529e-06 8.14066e-06 0)
(8.60111e-06 0.000133858 0)
(-7.90654e-10 6.39128e-09 0)
(-1.70233e-05 0.000179537 0)
(-3.04314e-10 2.6889e-09 0)
(1.21532e-05 0.000105952 0)
(-1.4932e-06 1.37661e-05 0)
(8.92453e-06 1.94416e-05 0)
(-1.05094e-11 4.24947e-10 0)
(6.8779e-07 0.000261294 0)
(-6.75769e-09 6.14469e-08 0)
(-5.77603e-07 1.58129e-05 0)
(-4.89915e-07 1.21745e-05 0)
(6.18338e-06 1.66833e-05 0)
(-3.67445e-06 6.32823e-06 0)
(-6.79175e-06 3.18272e-05 0)
(-1.23666e-05 5.59091e-05 0)
(-1.81374e-07 2.47815e-07 0)
(1.45023e-05 0.000198962 0)
(1.22424e-05 5.65204e-05 0)
(6.0231e-13 5.25598e-11 0)
(2.79986e-06 1.31823e-06 0)
(1.33679e-05 0.000231658 0)
(-1.01122e-08 6.66125e-08 0)
(-2.05229e-06 5.27144e-06 0)
(6.92461e-06 9.9961e-05 0)
(2.07802e-07 2.09807e-06 0)
(2.11844e-06 0.000137804 0)
(-1.67605e-06 3.27854e-06 0)
(-5.82477e-10 5.66294e-09 0)
(-6.22769e-07 6.65738e-07 0)
(5.21092e-10 1.1765e-08 0)
(1.7954e-06 1.55645e-05 0)
(-1.81955e-05 0.000297519 0)
(2.02886e-05 0.00029747 0)
(-3.48453e-06 2.71501e-05 0)
(-1.56316e-09 1.9573e-08 0)
(4.81081e-06 4.37069e-06 0)
(-1.24449e-09 1.00857e-08 0)
(8.79687e-06 3.29843e-05 0)
(2.66759e-05 0.000425425 0)
(-2.44722e-05 0.000425404 0)
(-1.11665e-11 1.68725e-10 0)
(-8.78269e-09 1.21244e-07 0)
(4.93046e-06 4.17573e-06 0)
(-3.74278e-06 3.60069e-05 0)
(-2.32661e-06 4.84731e-06 0)
(2.8165e-07 2.74629e-06 0)
(9.69339e-06 0.000266682 0)
(-1.49563e-06 4.5553e-05 0)
(6.52724e-11 8.18845e-10 0)
(1.17911e-06 5.4086e-05 0)
(2.17821e-05 0.000281632 0)
(-1.94109e-05 0.000281743 0)
(-1.17694e-11 7.35968e-10 0)
(1.21691e-10 3.07992e-09 0)
(6.68171e-06 4.53072e-05 0)
(-1.53971e-05 0.000297858 0)
(1.74981e-05 0.000298017 0)
(5.06758e-06 1.04223e-05 0)
(3.94763e-07 7.55397e-06 0)
(-1.12938e-10 1.26657e-09 0)
(1.02411e-05 0.000284406 0)
(5.82568e-06 1.58775e-05 0)
(5.20246e-07 5.56499e-06 0)
(1.82178e-05 0.000108476 0)
(-1.5994e-05 0.000108475 0)
(-5.71202e-06 1.58342e-05 0)
(7.94079e-06 1.5832e-05 0)
(5.35779e-06 5.33191e-06 0)
(-1.42028e-12 8.3936e-12 0)
(1.04235e-10 2.15946e-08 0)
(9.84306e-07 1.89889e-05 0)
(3.66834e-06 3.67851e-05 0)
(-2.16371e-10 1.46083e-09 0)
(5.58573e-06 6.37958e-06 0)
(1.42446e-06 2.31248e-06 0)
(3.18038e-12 6.29037e-10 0)
(1.23107e-05 6.95723e-05 0)
(-2.05692e-05 0.000272186 0)
(2.27937e-05 0.000272186 0)
(-7.25487e-07 1.2765e-06 0)
(-2.64628e-06 3.31756e-05 0)
(5.64771e-06 1.59067e-05 0)
(1.50405e-05 0.000296151 0)
(1.09497e-06 1.4186e-05 0)
(-1.05735e-10 2.01728e-09 0)
(4.62205e-06 5.18313e-06 0)
(-2.48674e-11 1.50538e-09 0)
(-3.68472e-09 6.41247e-08 0)
(-5.94729e-06 5.95994e-05 0)
(-5.32439e-07 4.26015e-07 0)
(-7.82923e-07 1.59333e-05 0)
(-1.92893e-06 2.45536e-06 0)
(2.3164e-05 0.000283607 0)
(-2.08577e-05 0.00028367 0)
(5.17597e-06 0.000166922 0)
(1.13115e-05 0.000286845 0)
(-2.7276e-06 3.3534e-05 0)
(-3.45422e-07 3.24206e-07 0)
(2.91512e-06 6.66436e-06 0)
(-4.0008e-08 1.42682e-07 0)
(5.30272e-06 3.43484e-05 0)
(-1.87011e-10 2.42991e-09 0)
(-3.42205e-06 7.67805e-06 0)
(-7.25688e-06 3.20429e-05 0)
(-3.78357e-06 1.66844e-05 0)
(1.73302e-06 1.42723e-05 0)
(-1.39171e-06 2.1739e-05 0)
(2.01898e-06 3.07708e-06 0)
(-1.90572e-07 4.75534e-06 0)
(1.57393e-05 0.000207475 0)
(2.83521e-06 1.82711e-06 0)
(4.91761e-06 1.04669e-05 0)
(-5.02113e-06 1.23618e-05 0)
(6.47388e-06 3.99439e-05 0)
(6.71352e-07 3.25464e-06 0)
(3.28702e-06 1.26646e-05 0)
(-2.19191e-06 9.68444e-05 0)
(-5.51238e-07 4.35147e-07 0)
(1.15531e-05 5.60574e-05 0)
(1.16014e-05 2.56553e-05 0)
(-7.05466e-07 6.09776e-07 0)
(-1.06599e-05 0.000217023 0)
(1.29654e-05 0.000216976 0)
(4.76595e-09 6.97368e-08 0)
(-3.1774e-06 0.000254116 0)
(-1.16849e-06 6.88269e-06 0)
(4.17652e-11 1.40014e-09 0)
(6.77326e-06 1.72679e-05 0)
(-1.45699e-05 9.19786e-05 0)
(2.63421e-05 0.00032719 0)
(-2.41539e-05 0.00032722 0)
(-6.72968e-06 3.80062e-05 0)
(-2.23665e-12 6.30286e-10 0)
(4.26729e-07 1.18713e-05 0)
(-6.24009e-06 2.39106e-05 0)
(1.64774e-06 5.92182e-06 0)
(-7.99541e-06 7.72407e-05 0)
(-3.21627e-06 2.73448e-05 0)
(1.1859e-09 3.58452e-08 0)
(-6.94847e-11 5.64292e-10 0)
(1.53787e-06 1.99006e-05 0)
(1.06546e-05 0.000116986 0)
(2.89999e-06 0.000138879 0)
(-5.89238e-07 1.23492e-05 0)
(-2.43096e-11 1.45321e-09 0)
(-2.53587e-11 1.71294e-10 0)
(-5.93645e-06 2.38899e-05 0)
(-5.02654e-07 2.52367e-07 0)
(-1.60485e-05 0.000178369 0)
(1.61439e-06 5.96308e-07 0)
(3.01092e-06 5.5224e-06 0)
(-2.00649e-06 1.91448e-05 0)
(-2.46826e-10 1.6558e-09 0)
(-6.30714e-07 5.01432e-07 0)
(1.29378e-05 5.62873e-05 0)
(1.40487e-05 5.46664e-05 0)
(1.20839e-05 3.55236e-05 0)
(1.28807e-05 0.000207047 0)
(-6.28796e-06 0.00027289 0)
(7.69564e-06 0.000100851 0)
(2.01997e-06 7.57225e-06 0)
(2.59023e-06 1.20561e-05 0)
(1.08465e-05 2.7063e-05 0)
(-1.07748e-05 4.86087e-05 0)
(-4.01542e-06 1.18863e-05 0)
(-8.06296e-06 3.18887e-05 0)
(-1.87611e-12 4.83325e-11 0)
(1.72695e-09 3.84222e-08 0)
(3.99152e-07 1.95725e-06 0)
(-4.37235e-06 8.88338e-06 0)
(-4.13866e-09 1.13829e-07 0)
(-3.85112e-06 3.63805e-05 0)
(2.16902e-06 7.40563e-06 0)
(1.629e-06 5.38433e-05 0)
(-1.04871e-10 1.92716e-09 0)
(-2.32115e-06 2.28832e-05 0)
(1.92821e-06 7.64734e-06 0)
(-1.91206e-06 4.1225e-05 0)
(-1.13497e-06 1.164e-06 0)
(2.815e-05 0.000287354 0)
(-2.59255e-05 0.000287354 0)
(1.38948e-05 0.000234114 0)
(2.00432e-05 9.91569e-05 0)
(-1.78193e-05 9.9157e-05 0)
(-5.95117e-06 2.25264e-05 0)
(-1.62209e-06 1.96849e-06 0)
(1.14209e-09 2.58599e-08 0)
(-3.7649e-06 1.50625e-05 0)
(1.08856e-05 2.33184e-05 0)
(-2.25719e-07 2.70194e-07 0)
(-9.41748e-10 6.81135e-09 0)
(-2.41934e-05 0.000259183 0)
(2.64189e-05 0.000259183 0)
(3.49256e-06 8.56499e-06 0)
(-1.93796e-06 1.14438e-05 0)
(1.02996e-06 8.59562e-06 0)
(5.99717e-06 1.5076e-05 0)
(4.84814e-06 3.25708e-05 0)
(5.83861e-09 6.75527e-08 0)
(2.61007e-06 2.04387e-06 0)
(-3.67539e-06 6.43866e-06 0)
(9.07119e-07 8.6945e-06 0)
(-8.94917e-07 6.85449e-06 0)
(1.80937e-05 0.000109493 0)
(-1.58728e-05 0.000109477 0)
(-5.64098e-09 5.68633e-08 0)
(5.58818e-06 6.47616e-06 0)
(-8.21726e-12 8.51649e-11 0)
(5.06246e-06 6.28038e-06 0)
(-6.87169e-11 7.2744e-10 0)
(3.6474e-06 1.45531e-05 0)
(4.39211e-06 3.25844e-05 0)
(1.27183e-07 -9.64154e-08 0)
(-8.66655e-06 2.33077e-05 0)
(-9.59016e-11 1.63128e-09 0)
(1.28578e-06 6.70234e-07 0)
(-8.06882e-07 6.40623e-07 0)
(3.78044e-06 1.44287e-05 0)
(1.30129e-09 5.7882e-08 0)
(-9.91891e-06 0.000218322 0)
(1.21782e-05 0.000218316 0)
(-4.64746e-06 9.03661e-06 0)
(8.8566e-06 2.34186e-05 0)
(1.45493e-06 1.97063e-06 0)
(-4.01162e-06 7.23465e-05 0)
(5.76127e-06 6.9566e-06 0)
(-1.42432e-06 1.54286e-06 0)
(4.71785e-09 9.07944e-08 0)
(1.14943e-06 1.92759e-05 0)
(8.70558e-07 0.000103745 0)
(1.93466e-10 7.27993e-09 0)
(-5.88528e-08 1.72344e-07 0)
(-2.31063e-06 5.76376e-06 0)
(-1.96016e-05 0.000247737 0)
(2.18263e-05 0.000247736 0)
(-6.98811e-07 2.50293e-06 0)
(-4.04101e-12 3.92243e-11 0)
(8.75192e-06 0.00024002 0)
(-4.66796e-07 9.49931e-06 0)
(-3.6349e-06 2.3842e-05 0)
(-9.08674e-07 6.97205e-06 0)
(6.8916e-06 4.49139e-05 0)
(-6.04733e-07 5.13708e-07 0)
(-5.58389e-06 1.35729e-05 0)
(7.80167e-06 1.35794e-05 0)
(-1.95239e-06 5.17664e-06 0)
(-2.30343e-08 -1.08575e-08 0)
(2.14966e-09 4.7783e-08 0)
(-7.3295e-06 3.2559e-05 0)
(3.45705e-06 1.28039e-05 0)
(5.64975e-06 6.92664e-06 0)
(4.60193e-06 3.56487e-06 0)
(1.4512e-05 8.92444e-05 0)
(9.12127e-08 -6.78768e-08 0)
(-5.78524e-07 4.90986e-07 0)
(-1.83861e-06 1.57976e-05 0)
(-8.2524e-07 1.1687e-05 0)
(-5.85177e-06 5.88721e-05 0)
(-7.16287e-06 3.83689e-05 0)
(4.28747e-07 5.56363e-06 0)
(-7.1025e-07 5.12328e-07 0)
(4.93986e-07 0.00026727 0)
(-1.12485e-07 2.94509e-06 0)
(6.12332e-06 1.0144e-05 0)
(3.33023e-07 4.17704e-06 0)
(-1.10307e-07 1.83514e-07 0)
(-1.81822e-12 1.21752e-10 0)
(-1.10898e-06 3.89498e-06 0)
(-1.58593e-11 1.66294e-09 0)
(-3.63841e-06 1.64844e-05 0)
(-2.03355e-06 7.79558e-06 0)
(7.20963e-06 6.14957e-05 0)
(-6.74052e-08 1.60363e-07 0)
(-6.07167e-08 1.23701e-07 0)
(-2.59475e-05 0.000295049 0)
(2.81723e-05 0.000295049 0)
(-2.28629e-06 3.30726e-06 0)
(-5.42011e-07 6.80872e-07 0)
(-1.0461e-11 4.17032e-11 0)
(5.35111e-10 2.78449e-08 0)
(2.0605e-05 0.000115636 0)
(-1.84717e-05 0.000115645 0)
(-7.58377e-06 0.000133431 0)
(1.40274e-10 7.30131e-09 0)
(3.87951e-06 1.30358e-05 0)
(-8.66018e-07 7.53043e-07 0)
(-5.18596e-06 1.01902e-05 0)
(4.71082e-06 1.59928e-05 0)
(-8.8705e-07 6.55026e-07 0)
(-2.71217e-06 2.2463e-05 0)
(2.0111e-07 -4.42877e-08 0)
(-2.63537e-07 1.75258e-07 0)
(-2.23371e-07 2.42017e-07 0)
(-1.66126e-06 2.13308e-06 0)
(4.90017e-07 1.34684e-06 0)
(3.03383e-06 5.68051e-06 0)
(4.01722e-06 1.45093e-05 0)
(-1.12787e-11 1.56231e-10 0)
(-9.51823e-07 1.90693e-06 0)
(-1.67336e-06 2.03442e-06 0)
(-2.02409e-06 4.53067e-06 0)
(2.25162e-06 7.48914e-06 0)
(3.2882e-09 9.1925e-08 0)
(-1.54901e-05 9.17847e-05 0)
(5.18535e-08 6.17257e-05 0)
(7.28869e-06 0.000261495 0)
(-3.09766e-07 1.31743e-07 0)
(1.0868e-06 2.51182e-05 0)
(2.19608e-09 3.52797e-08 0)
(4.4036e-10 9.17381e-09 0)
(1.13195e-06 7.97877e-07 0)
(2.1129e-06 3.08625e-06 0)
(6.39837e-06 1.67014e-05 0)
(5.14008e-06 0.000172539 0)
(7.86185e-06 0.00035341 0)
(5.39999e-06 0.000400301 0)
(1.82951e-06 9.14386e-06 0)
(3.24574e-06 6.26266e-06 0)
(1.68508e-09 2.89806e-08 0)
(-1.33144e-06 1.3998e-06 0)
(5.67331e-06 5.96289e-06 0)
(4.06842e-06 1.3107e-05 0)
(-6.70541e-12 4.64322e-11 0)
(-1.23674e-07 3.07114e-05 0)
(1.76603e-06 9.02102e-06 0)
(-1.68791e-07 2.40434e-07 0)
(4.46624e-06 6.32827e-05 0)
(5.41582e-06 8.66813e-05 0)
(5.5468e-07 1.57793e-05 0)
(1.06197e-05 2.71923e-05 0)
(2.92278e-06 5.47264e-06 0)
(-3.4387e-10 3.09178e-09 0)
(-3.88414e-06 2.40593e-05 0)
(-3.55437e-10 3.21208e-09 0)
(1.34836e-05 0.000108429 0)
(2.79013e-06 6.2728e-06 0)
(-2.69523e-06 4.08921e-05 0)
(4.57225e-06 9.72e-05 0)
(1.31353e-10 4.47748e-09 0)
(-1.1892e-11 4.09469e-11 0)
(1.59751e-06 1.09786e-05 0)
(-1.27053e-09 1.0993e-07 0)
(2.66193e-06 5.1281e-06 0)
(-2.05356e-06 1.13571e-05 0)
(-2.9582e-06 1.21665e-05 0)
(-5.82502e-06 2.31902e-05 0)
(-1.87147e-05 0.000362778 0)
(2.10883e-05 0.000362797 0)
(3.94445e-06 5.72681e-06 0)
(6.74655e-09 6.12066e-08 0)
(-1.61621e-06 3.62745e-06 0)
(6.23656e-06 1.00782e-05 0)
(-9.40056e-09 1.21729e-07 0)
(4.53264e-06 1.60007e-05 0)
(-1.44268e-06 1.55029e-06 0)
(-7.35366e-07 4.99163e-07 0)
(-1.5746e-06 1.54249e-05 0)
(5.37364e-07 0.000104672 0)
(-2.56038e-10 5.90275e-09 0)
(-5.29433e-06 1.04293e-05 0)
(-8.90198e-06 9.09933e-05 0)
(-2.72318e-07 2.93609e-07 0)
(1.63159e-06 1.82383e-06 0)
(-4.65128e-06 1.50415e-05 0)
(2.05956e-07 -8.34844e-08 0)
(6.87416e-06 1.50434e-05 0)
(-5.22716e-12 3.3717e-11 0)
(-8.30714e-06 2.13365e-05 0)
(1.76185e-06 5.72838e-06 0)
(-9.96972e-06 0.000309203 0)
(1.29805e-05 4.80815e-05 0)
(1.56721e-06 7.3827e-06 0)
(-2.28947e-07 2.48936e-07 0)
(-7.53473e-06 0.000365688 0)
(-2.0243e-12 1.94054e-11 0)
(4.97652e-09 4.42439e-08 0)
(-3.83253e-07 3.11693e-07 0)
(2.10187e-07 5.18416e-06 0)
(2.25579e-06 1.07647e-05 0)
(-4.39182e-06 9.59045e-05 0)
(7.73603e-06 1.24608e-05 0)
(4.50418e-12 1.41277e-10 0)
(-1.17089e-05 0.000128636 0)
(-1.2239e-09 3.34927e-08 0)
(-1.96519e-06 1.16426e-05 0)
(7.67171e-07 3.40667e-05 0)
(9.16549e-06 3.62961e-05 0)
(1.48626e-05 0.00010183 0)
(-1.26387e-05 0.00010183 0)
(1.37932e-05 0.000144372 0)
(-1.15423e-05 0.000144354 0)
(-7.77966e-12 7.76858e-11 0)
(-4.21624e-06 0.000180795 0)
(5.85143e-11 7.97638e-10 0)
(8.4848e-06 0.000173511 0)
(-1.30538e-06 2.54224e-05 0)
(5.28143e-06 5.11014e-06 0)
(6.46776e-06 3.70288e-05 0)
(2.4633e-09 1.03653e-07 0)
(4.88525e-06 4.33476e-06 0)
(1.45428e-06 8.22128e-07 0)
(4.25697e-06 7.21305e-06 0)
(9.36082e-06 4.35337e-05 0)
(2.64877e-05 0.000286366 0)
(-2.42631e-05 0.000286365 0)
(1.77029e-06 5.63696e-06 0)
(1.72988e-11 4.26848e-10 0)
(3.58751e-11 6.98526e-10 0)
(1.62879e-07 -8.38654e-08 0)
(5.54562e-06 5.73715e-06 0)
(-1.57876e-05 9.82486e-05 0)
(1.80116e-05 9.82485e-05 0)
(-2.41948e-06 6.05577e-05 0)
(4.48013e-07 3.05495e-06 0)
(-8.50983e-07 8.09707e-07 0)
(2.06799e-05 0.00011664 0)
(-1.84582e-05 0.000116669 0)
(1.45768e-05 0.000106973 0)
(6.77093e-07 1.16978e-05 0)
(2.67227e-06 9.65553e-06 0)
(1.48696e-05 0.000144059 0)
(-1.26183e-05 0.000144042 0)
(-2.73511e-06 0.000110901 0)
(5.24586e-13 5.16742e-11 0)
(1.60841e-06 1.89827e-06 0)
(1.80619e-06 2.00438e-06 0)
(-3.57881e-10 4.0446e-09 0)
(2.7106e-06 0.000272083 0)
(-3.15346e-06 7.72994e-06 0)
(5.96977e-06 8.2783e-05 0)
(-4.55258e-06 9.99799e-05 0)
(1.40546e-05 0.000160916 0)
(-1.18252e-05 0.000160988 0)
(-1.621e-12 1.08062e-11 0)
(6.93859e-06 4.57776e-05 0)
(1.20306e-05 5.72702e-05 0)
(-1.48663e-06 2.51817e-06 0)
(-2.37554e-06 2.25365e-05 0)
(1.39536e-06 2.86493e-05 0)
(-6.63979e-11 6.59643e-10 0)
(9.39973e-06 2.181e-05 0)
(-5.11072e-06 9.94015e-06 0)
(6.19416e-07 3.18017e-06 0)
(-2.94447e-10 3.22033e-09 0)
(-8.91709e-07 7.78159e-07 0)
(-1.39985e-06 3.76034e-06 0)
(-6.13319e-08 1.75486e-07 0)
(-4.67878e-06 0.000127634 0)
(1.95365e-06 1.92585e-06 0)
(-1.36373e-07 1.94262e-07 0)
(1.94437e-09 3.05637e-08 0)
(3.60171e-06 3.71769e-05 0)
(-3.92756e-06 1.11521e-05 0)
(-2.51262e-06 5.12819e-06 0)
(-4.41132e-11 8.37063e-10 0)
(2.431e-06 3.01974e-06 0)
(-8.61855e-10 4.96464e-08 0)
(-2.38168e-06 5.05196e-06 0)
(3.30243e-06 6.35961e-06 0)
(6.61092e-06 0.000174123 0)
(-1.22261e-11 1.3838e-10 0)
(5.12201e-06 5.18523e-06 0)
(-2.49095e-05 0.000296841 0)
(2.71344e-05 0.00029684 0)
(3.75852e-10 1.20767e-08 0)
(-6.11096e-06 2.31861e-05 0)
(7.71107e-07 1.54889e-07 0)
(6.58743e-06 0.00035082 0)
(4.06062e-07 1.20527e-06 0)
(-6.19193e-09 6.05139e-08 0)
(-4.66471e-06 9.68406e-05 0)
(-1.61271e-09 2.38225e-08 0)
(-2.41107e-11 1.51534e-10 0)
(4.05402e-06 2.92547e-05 0)
(9.14331e-06 3.29484e-05 0)
(4.76297e-07 -2.49523e-08 0)
(4.11942e-06 2.52651e-05 0)
(-8.11161e-06 3.43047e-05 0)
(1.31244e-05 5.55993e-05 0)
(-8.17286e-07 1.00154e-06 0)
(-7.82949e-06 3.3231e-05 0)
(7.43656e-12 4.31445e-10 0)
(5.36238e-06 9.80514e-05 0)
(-1.08693e-06 2.50521e-05 0)
(-1.05174e-05 3.31667e-05 0)
(9.15501e-07 1.4176e-06 0)
(4.96722e-06 2.92238e-05 0)
(-9.61483e-08 4.76318e-06 0)
(1.84612e-10 4.49339e-09 0)
(-1.14475e-05 8.76091e-05 0)
(-3.02995e-06 7.73823e-06 0)
(2.95597e-06 5.71671e-06 0)
(7.77714e-07 3.29969e-06 0)
(9.3888e-06 2.70903e-05 0)
(1.33651e-05 5.43021e-05 0)
(-5.61289e-06 2.78221e-05 0)
(1.47222e-05 5.45154e-05 0)
(-2.29021e-08 1.26626e-07 0)
(-2.76196e-06 1.5245e-05 0)
(6.30092e-06 4.17507e-05 0)
(-1.33936e-10 8.14173e-10 0)
(-1.68888e-06 0.000163935 0)
(-6.50176e-08 7.27936e-08 0)
(1.44313e-05 0.000107859 0)
(9.10687e-06 3.66701e-05 0)
(1.06264e-06 2.55202e-05 0)
(2.03166e-11 4.45473e-10 0)
(-8.00095e-07 3.80388e-05 0)
(-5.46618e-06 5.39898e-05 0)
(1.12097e-05 6.78316e-05 0)
(-8.0567e-08 1.58618e-07 0)
(-5.33274e-06 1.159e-05 0)
(-4.63945e-07 2.9987e-07 0)
(-8.1029e-06 9.02654e-05 0)
(-1.47972e-07 -3.7021e-08 0)
(-2.04629e-07 8.48375e-06 0)
(-5.37727e-06 6.176e-05 0)
(-8.46403e-10 2.85121e-08 0)
(-1.32525e-06 9.72509e-05 0)
(-9.07725e-06 5.51139e-05 0)
(-1.60678e-06 1.98019e-06 0)
(-3.64552e-12 3.17905e-11 0)
(-3.6148e-06 8.53875e-06 0)
(-9.51101e-06 4.10155e-05 0)
(-7.93142e-07 1.02584e-06 0)
(2.00653e-09 3.93926e-08 0)
(-1.76903e-06 3.7123e-06 0)
(2.72387e-06 2.10619e-06 0)
(-2.16326e-05 0.000156736 0)
(2.38562e-05 0.000156737 0)
(4.59035e-06 2.35293e-05 0)
(2.91547e-06 1.92225e-05 0)
(1.4905e-06 1.1345e-05 0)
(1.67215e-06 1.20777e-05 0)
(3.94555e-06 3.19654e-06 0)