/*--------------------------------*- C++ -*----------------------------------*\
| =========                 |                                                 |
| \\      /  F ield         | OpenFOAM: The Open Source CFD Toolbox           |
|  \\    /   O peration     | Version:  v3.0+                                 |
|   \\  /    A nd           | Web:      www.OpenFOAM.com                      |
|    \\/     M anipulation  |                                                 |
\*---------------------------------------------------------------------------*/
FoamFile
{
    version     2.0;
    format      ascii;
    class       volSymmTensorField;
    location    "8000";
    object      sigma;
}
// * * * * * * * * * * * * * * * * * * * * * * * * * * * * * * * * * * * * * //

dimensions      [1 -1 -2 0 0 0 0];

internalField   nonuniform List<symmTensor> 
24076
(
(-7.87203e+07 2.46384e+06 -5.0359e-12 725207 1.37448e-13 -1.93522e+07)
(-7576.76 -89005.7 4.24132e-15 1.04244e+06 -7.4812e-15 256772)
(-195.934 -1958.45 -6.01859e-17 15416.6 1.54684e-16 3776.56)
(348.325 -1473.89 -1.76237e-17 15924.3 1.21592e-16 4037.57)
(-1.17308e+07 4.47514e+06 2.72317e-12 6.12849e+06 -9.91233e-13 -1.39006e+06)
(-3789.87 -68152.4 1.40848e-15 1.21121e+06 4.45894e-14 299585)
(7213.91 -103142 -1.05338e-16 1.08074e+06 -1.41734e-14 269944)
(-8.395e+07 1.48872e+06 -6.38723e-12 443251 1.60261e-12 -2.07197e+07)
(261.269 -962.355 -1.25211e-18 1162.02 5.06665e-17 353.148)
(-7.16521e+07 -1.22808e+06 5.41297e-12 91312.6 -1.2636e-11 -1.77557e+07)
(5.58348e+07 -8.30969e+06 -1.11037e-12 1.2492e+07 2.09496e-12 1.69533e+07)
(-6.96594e+07 -1.13379e+06 -2.15631e-12 -20004.1 6.36908e-12 -1.72889e+07)
(-3.46137e+07 9.62083e+06 -2.14837e-12 2.25997e+06 -1.9906e-12 -8.02762e+06)
(-7.48761e+06 4.99781e+06 -2.9159e-12 5.98186e+06 -7.34758e-13 -373607)
(-8.60487e+07 -1.052e+06 1.05781e-12 -408477 -9.31103e-12 -2.14518e+07)
(-6.68763e+06 -1.88145e+06 -6.09818e-12 -254138 -1.52651e-11 -1.72239e+06)
(4.56653e+07 -833751 8.25294e-12 -51610.1 -3.40874e-11 1.13177e+07)
(-4.63937e+07 -1.14664e+06 -1.02971e-11 43977.7 2.72003e-11 -1.15003e+07)
(-587754 -3.20591e+06 -1.11936e-11 403778 6.27915e-12 -45648.3)
(-8.6726e+06 -3.42441e+06 -2.01938e-11 -173154 1.82357e-11 -2.19481e+06)
(-8.47138e+07 206697 5.48295e-13 -371147 -2.83091e-12 -2.11113e+07)
(4.8557e+07 -4.17823e+06 1.34662e-12 6.72211e+06 -3.4744e-12 1.37159e+07)
(-7508.98 -64043.9 1.78368e-15 1.52722e+06 -1.80489e-16 377072)
(5.66927e+07 -7.5293e+06 1.97789e-12 1.20565e+07 -4.47632e-13 1.70581e+07)
(1.85241e+06 7.63678e+06 3.31176e-13 3.84014e+06 -3.50417e-13 1.41244e+06)
(3.11458e+06 -2.07645e+06 -9.3529e-12 325941 5.69606e-12 853663)
(2.3565e+06 -3.84384e+06 -3.30631e-14 6.02441e+06 1.91413e-14 2.07947e+06)
(5226.39 -83247.6 -2.08627e-15 1.21581e+06 1.10197e-14 302963)
(6.00119e+06 -2.76989e+06 -1.1226e-11 -311466 -9.85347e-13 1.41174e+06)
(4.70194e+06 9.02341e+06 -6.52078e-12 3.9818e+06 -1.97272e-12 2.15461e+06)
(1.3348e+07 -2.21301e+06 4.55454e-12 -324837 8.04808e-12 3.23131e+06)
(13851.8 -73946.7 -1.24781e-15 286529 -3.84792e-15 74530.5)
(-3.12944e+07 -2.18575e+06 1.79755e-11 134287 2.291e-12 -7.73145e+06)
(-2.54449e+07 -348754 2.68309e-12 3.24057e+06 -7.61331e-12 -5.50935e+06)
(-3.63201e+07 -3.12963e+06 1.51532e-11 -209460 -1.79246e-12 -9.06374e+06)
(-6.14334e+07 -2.35566e+06 8.84657e-12 46460 3.17685e-12 -1.52314e+07)
(-3.38723e+07 8.93424e+06 -4.24835e-12 1.65475e+06 -1.42831e-12 -7.99383e+06)
(4.68838e+07 501867 8.99177e-12 192185 -1.95782e-11 1.16805e+07)
(-4.733e+07 356956 -1.90001e-12 -229874 4.11371e-11 -1.18006e+07)
(-8.62029e+07 50568.2 -2.4687e-12 -283385 -2.92938e-13 -2.1459e+07)
(2.59344e+07 -9.27898e+06 6.75354e-13 3.49499e+06 -7.12069e-13 7.30204e+06)
(8.90504e+06 -2.19994e+06 -1.54211e-11 343003 -3.17037e-12 2.29463e+06)
(-2.58733e+07 7.20223e+06 -9.05577e-12 3.39291e+06 -3.41924e-12 -5.57783e+06)
(-2.19458e+07 -680240 -4.28244e-12 3.02471e+06 -2.34311e-12 -4.69471e+06)
(-5.75426e+07 -1.03857e+06 4.66802e-12 89975.5 3.94255e-12 -1.42552e+07)
(8.29856e+07 -1.41189e+06 -7.74357e-12 -32181.9 9.77395e-13 2.05824e+07)
(57289.6 -426782 3.37919e-15 1.32884e+06 9.12247e-15 343928)
(-2.07121e+07 -2.59391e+06 5.24109e-14 -8636.38 4.44188e-12 -5.14124e+06)
(3.16693e+06 -4.24342e+06 8.82042e-14 6.22294e+06 -4.99824e-14 2.32982e+06)
(6.11506e+07 -2.47859e+06 1.38207e-11 -136077 4.23864e-12 1.51389e+07)
(620.769 -2502.49 -4.11864e-16 41955.7 -1.09576e-15 10564.1)
(605879 -1.83459e+06 9.18025e-14 5.93299e+06 -1.44802e-13 1.62243e+06)
(1160.72 -2951.34 1.56802e-17 1768.64 -1.99548e-16 726.835)
(4143.59 -111871 5.78846e-15 1.32001e+06 1.36076e-14 328549)
(190.79 -935.601 -3.01644e-18 1116.58 -5.30374e-17 324.384)
(-3.49833e+07 -1.62945e+06 0 -282147 0 -8.75006e+06)
(-1.31104e+07 730745 9.71217e-13 4.21272e+06 1.21668e-12 -2.2077e+06)
(-8.82017e+07 -226402 6.93453e-12 58500.1 5.87374e-12 -2.18701e+07)
(-151857 -2.88959e+06 1.87478e-11 -43645.8 8.13407e-12 -48508.2)
(-4.08149e+07 -2.44353e+06 5.57189e-12 -265283 1.41516e-11 -1.01928e+07)
(8.31699e+07 206621 2.35396e-11 -209482 -3.22732e-11 2.05842e+07)
(70147.5 -414151 1.66927e-15 579069 1.94841e-14 161084)
(9.92237e+07 -233529 -3.44878e-13 -127294 1.23072e-11 2.45878e+07)
(5.72679e+07 -979265 -3.39946e-13 23536.3 -7.93855e-12 1.42152e+07)
(4.17699e+07 -3.06938e+06 -4.12464e-12 1.10713e+07 -3.3503e-12 1.3111e+07)
(-8.34668e+07 -865710 9.79007e-12 265302 1.13698e-11 -2.0644e+07)
(-2.33815e+07 1.63426e+06 -5.81297e-12 4.2865e+06 -3.14163e-12 -4.73785e+06)
(3.67921e+07 -2.31246e+06 -2.7505e-13 1.12037e+07 1.65585e-12 1.19087e+07)
(6108.97 -148992 3.19357e-15 808154 -1.62338e-15 202035)
(-2.17737e+07 1.086e+06 2.9127e-12 3.94704e+06 -5.76394e-13 -4.42315e+06)
(-294162 -2.99613e+06 -3.9741e-11 -27088.9 -1.09134e-13 -79708.9)
(60665.8 -228271 -1.66072e-14 2.20808e+06 2.86996e-14 562923)
(6.22459e+07 -1.12967e+06 -2.74036e-12 -123688 -1.34908e-12 1.54138e+07)
(42996.9 -123397 -1.17245e-16 143097 -1.80107e-14 46173.7)
(2.40198e+07 -9.21764e+06 1.14105e-12 3.6454e+06 -1.11681e-12 6.86429e+06)
(-1.49552e+07 -1.9036e+06 -2.55243e-11 487123 1.03101e-11 -3.58981e+06)
(5.06445e+07 -5.86942e+06 3.28226e-12 7.3903e+06 -2.4048e-12 1.43996e+07)
(6.00837e+07 -1.69246e+06 -4.06573e-11 50519.5 2.35931e-11 1.49205e+07)
(-5.49503e+07 834938 0 1.27952e+06 0 -1.33168e+07)
(1.00594e+08 -605082 -3.08985e-12 -221089 8.31694e-12 2.49045e+07)
(19295.1 -395947 -2.23293e-15 1.24932e+06 -3.24399e-14 314768)
(-1.98235e+07 -1.93683e+06 -7.62969e-12 -54179.2 -1.29566e-12 -4.93206e+06)
(2.68811e+07 -3.48188e+06 -5.16327e-12 3.66138e+06 2.60947e-12 7.5782e+06)
(1.49224e+07 3.89194e+06 0 7.51135e+06 0 5.56628e+06)
(9.37135e+06 -9.50554e+06 1.16306e-13 9.56775e+06 -9.82314e-15 4.69917e+06)
(1425.85 -2953.52 1.06228e-17 2006.46 -1.0323e-16 851.626)
(-1.5727e+07 -2.10723e+06 8.27352e-12 160666 -1.05365e-12 -3.86232e+06)
(4.97574e+07 -1.99125e+06 -1.43135e-11 -229132 1.82205e-11 1.2289e+07)
(216392 -2.85021e+06 -2.24898e-11 5988.42 1.52873e-11 55177.1)
(-1.00805e+07 -2.53521e+06 4.487e-11 106333 -1.09661e-11 -2.4748e+06)
(-1.8869e+07 -3.50493e+06 9.11686e-12 266654 -7.64257e-12 -4.61561e+06)
(-235724 -2.96317e+06 -1.77083e-11 43599.9 2.7536e-11 -47669.8)
(4.79253e+07 -2.76459e+06 4.28642e-12 1.09315e+06 -4.14526e-12 1.21625e+07)
(-1.42337e+07 -532357 7.52655e-12 4.23055e+06 4.97436e-12 -2.48199e+06)
(1.39423e+07 3.98002e+06 2.68802e-12 8.33192e+06 2.53464e-12 5.5267e+06)
(4.54414e+07 -1.38377e+07 -1.10494e-12 1.16801e+07 1.53525e-12 1.4173e+07)
(7.48261e+06 -3.552e+06 3.90863e-12 -398773 -2.12294e-11 1.75764e+06)
(-6.75773e+06 -3.07019e+06 0 84250.9 0 -1.65583e+06)
(6478.56 -79843.7 1.51341e-16 260750 2.83897e-15 66304.9)
(-2.3141e+07 4.4179e+06 2.41421e-12 4.75284e+06 3.26217e-12 -4.56246e+06)
(2.54192e+07 -3.05442e+06 1.08495e-11 3.45801e+06 3.84746e-12 7.16502e+06)
(4.30207e+07 -4.67324e+06 -2.43517e-12 1.03494e+07 4.9517e-13 1.32422e+07)
(1.04076e+07 -2.95682e+06 1.32539e-11 105834 -2.21261e-11 2.6086e+06)
(-5.61577e+07 680173 2.26054e-12 1.68067e+06 2.90331e-12 -1.35169e+07)
(1.5126e+07 -3.07476e+06 4.77926e-12 75439 1.27628e-11 3.77179e+06)
(2.47003e+07 -1.39734e+07 4.80512e-13 1.06725e+07 -7.8095e-13 8.7767e+06)
(11100.3 -37446 1.67403e-17 58541.6 -3.96628e-15 17279.6)
(-5312.56 -79806.3 2.12933e-15 1.82951e+06 -9.72703e-15 452621)
(7.42633e+07 -4.46982e+06 -7.6291e-12 1.83224e+06 -1.69981e-12 1.88808e+07)
(2.76566e+07 -3.29323e+06 -1.72871e-11 91088.8 1.98058e-12 6.88476e+06)
(6.57407e+06 -1.82697e+06 1.24782e-11 61899.4 -3.02992e-12 1.64652e+06)
(-1.47262e+07 -2.39109e+06 1.40331e-11 459620 -1.70609e-11 -3.53983e+06)
(165.033 -1285.8 -2.58138e-17 3486.29 2.29238e-17 905.966)
(110290 -441593 7.35766e-16 642248 1.00919e-14 186720)
(-1.18015e+07 -1.55137e+06 -1.12245e-11 143169 3.41518e-11 -2.89266e+06)
(-339.319 -3780.99 -4.2212e-16 38761.1 -1.67076e-15 9533.21)
(4.98899e+07 -6.1926e+06 1.92027e-12 1.21276e+07 -1.01437e-12 1.53878e+07)
(2.33534e+07 -1.67618e+06 -7.14393e-12 -397360 -9.81443e-13 5.69586e+06)
(-7.99249e+06 -2.28922e+06 -4.05481e-12 -23662.3 -4.85168e-11 -1.98897e+06)
(3.10435e+07 -2.62974e+06 7.78147e-12 -173311 7.39536e-12 7.65953e+06)
(4.74834e+06 -3.02204e+06 2.63929e-12 -332430 7.07925e-12 1.09568e+06)
(5.21524e+07 -855660 5.3103e-12 12715.2 2.34929e-12 1.29432e+07)
(2.13016e+07 -1.5138e+07 -4.58791e-13 1.40076e+07 6.3999e-13 8.76094e+06)
(-8.25142e+07 1.87631e+06 -2.39788e-12 937684 -1.30896e-12 -2.02408e+07)
(-5.42131e+07 -2.39239e+06 0 216458 0 -1.33977e+07)
(4.75564e+07 -910465 4.37581e-12 -367142 6.90461e-14 1.17086e+07)
(7.4059e+07 -2.61564e+06 2.02693e-12 1.44461e+06 2.43604e-12 1.8734e+07)
(-4.41737e+07 -1.17827e+06 -4.42222e-12 138294 4.23315e-12 -1.09261e+07)
(1.6085e+07 -1.85153e+06 4.83137e-13 69823.1 1.78899e-13 4.00835e+06)
(913.775 -18591.7 7.87235e-17 193110 -1.5544e-15 48141.3)
(5.16902e+07 -2.35153e+06 -6.62952e-12 -106702 -1.0067e-12 1.27989e+07)
(3.01507e+07 -1.82707e+06 9.33363e-12 247220 2.62119e-11 7.54234e+06)
(2.28925e+07 -2.60844e+06 6.28569e-12 -163962 -4.40539e-11 5.63941e+06)
(12546.7 -99205 4.06559e-15 1.58262e+06 -2.76937e-14 395794)
(4.93375e+07 -2.67972e+06 -4.65418e-12 972814 5.47715e-12 1.2483e+07)
(960647 -2.27543e+06 -1.49777e-13 7.9989e+06 1.67282e-13 2.22305e+06)
(-3.97944e+06 -1.98942e+06 1.17626e-11 1.24411e+06 -1.40464e-12 -678691)
(-2.62138e+07 8.43921e+06 -5.73918e-12 3.8173e+06 -4.45345e-12 -5.55702e+06)
(-3.374e+06 -1.69912e+06 -3.43198e-11 -123098 1.31688e-12 -867700)
(-8.36168e+06 -1.82696e+06 -7.39177e-13 1.12868e+06 -3.03209e-12 -1.79465e+06)
(-1.27258e+07 -2.27893e+06 2.51402e-12 1.23312e+06 -4.57467e-12 -2.85156e+06)
(351.187 -1429.6 1.18703e-17 3506.48 1.04469e-16 957.166)
(4.31245e+06 -3.64191e+06 4.31134e-14 1.96014e+06 -1.28034e-13 1.55636e+06)
(5.46104e+06 -2.79631e+06 -2.70351e-11 13296.3 -1.25197e-11 1.35829e+06)
(-2.43966e+07 -1.5362e+06 -3.54342e-11 -252423 5.27991e-12 -6.11592e+06)
(-1.29679e+07 -2.87016e+06 -2.32999e-12 161622 -4.54903e-13 -3.1775e+06)
(2.12193e+07 -1.84409e+06 1.21063e-12 311015 -8.31862e-12 5.34211e+06)
(-2.98128e+07 -2.44575e+06 -3.45766e-11 -6947.9 -3.09406e-12 -7.39889e+06)
(-1.07e+06 -2.51697e+06 -8.73721e-12 1.07452e+06 -5.42949e-12 1121.56)
(1928.86 -11357.4 6.23732e-16 93311.8 1.82997e-15 23631.1)
(6.75394e+07 -1.60432e+06 -5.65213e-12 246585 -1.86628e-12 1.68191e+07)
(294.574 -690.625 5.83022e-18 186.461 -4.56493e-17 119.355)
(-4.5275e+07 7.80391e+06 -8.58028e-13 131336 -2.13064e-13 -1.12011e+07)
(-2.33221e+07 5.35902e+06 3.78192e-12 4.2673e+06 2.63557e-12 -4.72788e+06)
(-5.5031e+07 -1.23468e+06 2.6618e-12 439883 -2.38013e-12 -1.35452e+07)
(-7.89432e+06 -3.25826e+06 3.29283e-11 579927 -2.70274e-11 -1.81485e+06)
(-8.23729e+07 1.55914e+06 3.47409e-13 -246973 5.31932e-13 -2.04997e+07)
(1.45932e+07 -2.23126e+06 -7.76714e-12 110986 3.52674e-13 3.64842e+06)
(-4.56075e+06 -2.88942e+06 8.84203e-12 1.68767e+06 -1.03324e-11 -712868)
(1853.03 -8426 9.98384e-17 20644.2 8.36211e-16 5582.01)
(2.16029e+06 6.15903e+06 -9.93593e-14 -4.01724e+06 1.81009e-13 -460747)
(237.733 -927.866 0 877.28 0 276.657)
(-8.89858e+07 18319.6 8.77314e-12 -82961.6 -1.31469e-13 -2.20998e+07)
(9.54581e+07 -5.03893e+06 9.36822e-13 2.30172e+06 -1.7087e-12 2.42562e+07)
(977059 -3.08114e+06 6.05303e-12 -318660 -1.28879e-11 163362)
(-3.49273e+07 -799517 -3.48923e-11 115666 -2.86961e-11 -8.63747e+06)
(3.48888e+07 -819544 -8.72412e-12 -122896 3.06866e-11 8.62613e+06)
(3.70589e+07 -1.9323e+06 -1.39484e-13 169463 6.99856e-13 9.23712e+06)
(5.24568e+07 -5.95704e+06 -4.98312e-12 1.04157e+07 2.7298e-12 1.55999e+07)
(2.12518e+07 -5.82286e+06 -1.78904e-13 -829618 1.07295e-13 5.06717e+06)
(-3.43079e+07 -1.09817e+06 -7.87163e-12 1.48854e+06 -2.44077e-12 -8.14316e+06)
(3641.72 -29062.7 -2.35747e-14 1.67711e+06 4.64339e-14 417028)
(7.89464e+06 -2.2544e+06 -3.71499e-12 92318.6 -2.99026e-12 1.98173e+06)
(-2.43913e+07 -2.19371e+06 3.26795e-12 398224 -6.77519e-12 -5.95318e+06)
(5.49737e+07 -1.39466e+06 -3.93837e-12 -29462.8 -5.79352e-12 1.36328e+07)
(-5.48178e+07 -1.40844e+06 6.93123e-12 150365 -1.04917e-11 -1.35641e+07)
(5.23196e+07 -1.95524e+06 6.36501e-12 -89532.6 -1.29093e-11 1.29593e+07)
(-5.18341e+07 -1.98134e+06 7.83973e-12 -19227.9 -5.34142e-12 -1.28659e+07)
(-7.92581e+07 253557 -1.27919e-12 69164.4 2.71213e-11 -1.96484e+07)
(7.45985e+07 -1.88111e+06 -1.06224e-11 -94313.5 7.79366e-12 1.8486e+07)
(9.61656e+07 -583859 8.63743e-12 -118662 -7.49329e-13 2.38312e+07)
(128814 -326152 -8.00022e-16 175397 9.82123e-15 75481)
(-3.77633e+07 1.34549e+06 5.52802e-12 2.52385e+06 -1.08262e-12 -8.74363e+06)
(1.11792e+07 1.73233e+06 -2.08649e-13 -4.02355e+06 1.56699e-13 1.77546e+06)
(1.17406e+07 1.84496e+06 3.71891e-13 -4.67537e+06 -2.3845e-13 1.75303e+06)
(1.93862e+07 -430903 -1.75196e-12 8.97824e+06 1.83338e-12 7.03779e+06)
(5.29762e+07 -4.67212e+06 5.6336e-13 9.9507e+06 -3.07445e-12 1.56134e+07)
(8.39256e+06 -1.55452e+07 0 2.9215e+07 0 9.33119e+06)
(6.94417e+07 -1.14984e+07 -4.32423e-13 1.22119e+07 2.61995e-12 2.02599e+07)
(-2.46848e+07 1.14329e+07 -6.25843e-13 -414405 6.05769e-13 -6.22763e+06)
(-3107 -14671.4 -1.32078e-15 339020 1.30105e-15 83346.8)
(4.88391e+07 -2.60576e+06 -1.33616e-12 -37577.1 -1.43451e-12 1.21086e+07)
(2.06642e+07 -2.6616e+06 -1.56696e-11 287285 -1.12291e-11 5.19849e+06)
(4.4453e+07 -1.16301e+06 -2.23517e-11 -60498 -8.93748e-12 1.10147e+07)
(-2.8247e+07 -2.44098e+06 3.79593e-12 -16288.4 2.31152e-11 -7.01269e+06)
(-8.09029e+07 -274313 -5.51065e-12 177694 -2.02152e-12 -2.00296e+07)
(-330.328 -89619.8 -2.53161e-15 1.26369e+06 1.94431e-14 313466)
(-4.72585e+07 -2.09317e+06 2.98211e-12 25814 -2.1271e-11 -1.17194e+07)
(4.751e+07 -2.0155e+06 -1.8303e-11 -90990.1 1.18903e-11 1.17656e+07)
(8.06143e+07 -200951 5.52219e-12 -165475 -2.02333e-12 1.9961e+07)
(-3.72231e+07 346004 -2.75034e-12 2.52304e+06 -2.50263e-12 -8.60979e+06)
(6.53023e+06 -1.33021e+07 2.35851e-13 2.75711e+07 -3.56945e-13 8.46123e+06)
(2.82397e+07 -1.24622e+06 8.68539e-12 -359059 7.84477e-12 6.91776e+06)
(-2.82789e+07 -1.24992e+06 0 361518 0 -6.92686e+06)
(-2.62637e+06 -2.80579e+06 -1.72453e-11 -110408 -9.08375e-13 -679050)
(-1.73271e+07 4.74717e+06 -3.47969e-12 4.69269e+06 -5.71901e-13 -3.13485e+06)
(7.6111e+07 -902877 -8.8607e-12 -43577.8 7.89536e-12 1.88739e+07)
(4.35096e+07 -2.21122e+06 6.3822e-12 62591.8 -2.22412e-11 1.08111e+07)
(-7.24936e+07 3.8484e+06 -4.39454e-12 106957 -1.88605e-12 -1.79606e+07)
(1.34093e+07 -3.06331e+06 -1.22014e-12 66648 7.56284e-12 3.34365e+06)
(169532 -733760 0 1.73588e+06 0 472770)
(-4.85884e+06 -3.04872e+06 -5.03628e-12 -16105.8 3.89446e-12 -1.20957e+06)
(139815 -587126 -2.39691e-15 3.53388e+06 -6.72308e-14 911517)
(6.56367e+07 -1.37842e+06 -3.64054e-12 -298179 7.43008e-12 1.62118e+07)
(309.474 -1031.67 0 940.428 0 310.126)
(6.91272e+06 -2.45381e+06 2.99484e-12 192106 -9.88782e-12 1.76285e+06)
(724693 -2.28854e+06 7.40242e-14 7.56058e+06 -2.5126e-13 2.05574e+06)
(8.46111e+07 -360285 3.35772e-12 -75300.9 2.94751e-12 2.0975e+07)
(5.33003e+06 -70795 -2.02314e-11 105453 3.1124e-14 1.34865e+06)
(-5.33706e+06 -71969.4 2.04067e-11 -104674 -5.13912e-14 -1.35021e+06)
(6.56873e+06 -2.4714e+06 1.61308e-11 145493 2.71439e-12 1.66594e+06)
(-9.32351e+07 75916.1 1.19784e-11 -297871 2.84726e-12 -2.32074e+07)
(-9.83512e+07 2568.07 -1.83431e-13 -603953 -5.53866e-13 -2.45528e+07)
(4.24465e+07 -4.12923e+06 2.16554e-12 5.03239e+06 2.03315e-12 1.17805e+07)
(-8.07518e+07 -489561 -4.23713e-12 285747 3.34158e-13 -1.99653e+07)
(11498.4 -24748.6 -9.31936e-17 10606.7 7.36191e-16 5484.73)
(2461.7 -10840.3 -4.13177e-17 18226.8 -5.18088e-16 5133.24)
(5.10549e+07 -1.29651e+06 -1.00475e-11 263603 1.85102e-11 1.27332e+07)
(10812.8 -23901.3 -6.16107e-17 15053.6 8.66752e-16 6417.98)
(-1.16318e+07 -2.08331e+06 3.41199e-11 -122986 8.60843e-12 -2.9166e+06)
(1682.29 -9216.92 -1.46561e-17 18151.2 -4.60635e-16 4921.08)
(4.74631e+07 -1.38694e+06 1.11434e-11 -35739.3 -9.95762e-12 1.17677e+07)
(4977.75 -19333.2 6.68102e-17 35116.1 2.75203e-16 9948.1)
(145604 -406806 1.16709e-15 180926 -1.3755e-14 81018.6)
(-1.09369e+07 -2.08191e+06 -4.63352e-12 2.76701e+06 9.63837e-13 -2.02712e+06)
(-2.01978e+07 -1.71793e+06 1.74792e-11 -198399 -1.04048e-11 -5.06071e+06)
(3.2735e+07 -6.38781e+06 4.24152e-13 5.05392e+06 1.44798e-13 9.37619e+06)
(-2.30749e+07 1.00572e+07 -1.81928e-12 -988621 -5.15079e-13 -5.97065e+06)
(3.20325e+07 -3.20017e+06 -9.41763e-12 293554 -7.77428e-12 8.02075e+06)
(7.66202e+07 -1.48563e+06 -6.88762e-12 153924 2.01664e-11 1.90492e+07)
(-7.61496e+07 -1.64941e+06 1.0593e-11 90178.1 -2.15652e-11 -1.88719e+07)
(1.08805e+07 -1.00123e+07 3.67577e-13 9.79943e+06 6.60326e-14 5.1311e+06)
(3.28222e+07 -2.85345e+06 1.82361e-11 -37086.5 1.70128e-11 8.13464e+06)
(3.32496e+07 -1.30219e+06 2.15044e-11 505593 -3.32839e-11 8.37535e+06)
(-6.23693e+07 914116 1.13161e-12 -195486 1.79972e-11 -1.55236e+07)
(6.19769e+07 845801 2.9461e-12 33236.5 -1.67502e-11 1.5386e+07)
(4.27617e+07 -2.18746e+06 0 69046.9 0 1.06272e+07)
(-8.51451e+07 -1.61775e+06 2.95539e-12 500902 3.93295e-12 -2.10019e+07)
(8.47796e+07 -1.51978e+06 -6.72258e-12 -478674 1.06102e-12 2.09168e+07)
(5.23961e+07 -7.13011e+06 9.17008e-13 1.24759e+07 6.07134e-13 1.6096e+07)
(3.43415e+07 -320367 -1.84525e-11 -55262.6 -3.41438e-12 8.50711e+06)
(-1.19064e+07 -2.45599e+06 2.35182e-11 2281.89 5.02817e-11 -2.95366e+06)
(-1.60981e+06 6.43282e+06 8.49564e-13 -4.08958e+06 -1.12184e-13 -1.41414e+06)
(-8.25516e+07 -649766 1.61205e-12 337318 3.43651e-12 -2.0399e+07)
(-6.13723e+07 -137228 0 -253164 0 -1.52905e+07)
(6.15043e+07 -119771 -2.7224e-12 279781 -2.27169e-12 1.53299e+07)
(-2897.78 -87468 1.43242e-15 683416 1.73961e-14 168850)
(7035.27 -78578.6 2.03204e-15 229847 3.14667e-15 58775.4)
(-49781.2 -298796 -6.40585e-14 3.36639e+06 -1.00743e-13 822917)
(-9.90441e+06 -1.86321e+06 -1.50117e-11 -94525.9 3.89137e-12 -2.48094e+06)
(-2.26453e+07 6.82277e+06 -7.38161e-12 4.51728e+06 -2.75904e-12 -4.49793e+06)
(-1.01294e+08 43330.4 3.94712e-12 -682908 3.71921e-13 -2.53027e+07)
(-5.6109e+07 -957409 0 -110532 0 -1.39492e+07)
(-9.61198 -5.5057 1.23064e-18 175.474 5.55034e-18 41.1538)
(4.95242e+07 -3.77187e+06 1.01972e-13 1.63876e+06 5.84232e-12 1.26946e+07)
(-2.31846e+06 9.25469e+06 2.5616e-12 3.93159e+06 -6.15324e-13 400250)
(7.72699e+07 -1.48262e+06 5.90716e-12 -60282.9 8.56114e-12 1.91573e+07)
(-7.52583e+06 -2.81876e+06 1.86963e-11 83467.1 2.16421e-11 -1.8466e+06)
(4.4279e+07 -2.48203e+06 8.36388e-12 -257999 -9.6691e-12 1.09225e+07)
(260.616 -545.889 2.73477e-18 11155.9 1.82199e-16 2832.68)
(2.67514e+07 -1.67171e+06 -2.96523e-11 -528280 -1.05173e-11 6.50649e+06)
(-2.7126e+07 -1.6595e+06 5.37228e-12 479293 5.12021e-11 -6.61159e+06)
(-7.9874e+07 743442 1.79507e-12 264432 6.22972e-12 -1.97527e+07)
(-6.9623e+06 -2.58206e+06 -4.3767e-12 86660.7 6.95441e-12 -1.70599e+06)
(4.39514e+06 -5.71635e+06 1.64324e-13 8.02194e+06 -7.32939e-14 3.08093e+06)
(3.93913e+07 -2.89972e+06 8.82751e-12 -249170 -2.18566e-11 9.71195e+06)
(4.86427e+07 -2.12526e+06 8.69508e-12 -237270 2.73282e-11 1.20104e+07)
(3896.52 -70522 -2.78988e-14 1.70897e+06 6.26983e-14 424997)
(6.74749e+07 -1.19473e+06 -1.05257e-11 157203 1.21824e-11 1.67809e+07)
(-8.73455e+07 -21553.5 0 -696786 0 -2.18451e+07)
(1145.85 -7921.16 0 67881.2 0 17127)
(-63308.8 -2.27365e+06 -2.60403e-11 307783 4.73939e-11 60659.1)
(480190 -1.73511e+06 -1.42328e-11 3693.07 1.03451e-11 120061)
(103873 -834188 2.24677e-13 5.53328e+06 -2.11688e-13 1.39869e+06)
(356675 -2.94772e+06 -5.9493e-12 2.5346e+06 2.79272e-12 717383)
(3.38299e+07 -6.39365e+06 1.19339e-13 4.9446e+06 4.70918e-13 9.62075e+06)
(136065 -356522 -4.40521e-16 342758 1.76503e-14 118806)
(-6.17956e+07 -857133 3.88634e-12 69875.3 -2.0253e-12 -1.53154e+07)
(1.01589e+08 -2.76502e+07 6.69629e-13 1.09648e+07 -5.44792e-13 2.79268e+07)
(-3.79221e+07 1.64018e+06 0 2.75205e+06 0 -8.72641e+06)
(1.06895e+07 -1.96675e+06 4.88291e-12 300840 2.53239e-11 2.72692e+06)
(-7.55833e+07 1.47286e+06 -7.93217e-12 557656 -5.88875e-12 -1.86154e+07)
(-2.59239e+07 -2.28167e+06 3.40967e-12 191604 -7.12656e-12 -6.3847e+06)
(-1.85949e+07 3.06935e+06 3.06626e-12 4.73721e+06 4.97114e-12 -3.43838e+06)
(-3.29736e+07 -51941.6 -2.11751e-11 -992922 -6.45337e-13 -8.42779e+06)
(3.2924e+07 -52413.9 -9.35234e-12 994742 -4.30472e-12 8.41592e+06)
(5.2262e+07 -2.05738e+06 4.92274e-12 -109361 -8.387e-12 1.29401e+07)
(694.095 -3697.41 6.27252e-17 17127.1 4.90377e-18 4421.81)
(21304.7 -58706.1 2.40926e-17 74655.9 2.56164e-15 23809.8)
(-3.37598e+07 -2.88023e+06 9.52964e-12 -95592.6 -4.76911e-12 -8.40022e+06)
(4.08044e+07 -2.20061e+06 8.36487e-12 129878 1.2817e-12 1.01566e+07)
(-4.123e+07 -2.69794e+06 -3.12396e-12 -78524.2 -2.24983e-11 -1.02495e+07)
(3.25348e+07 -1.3877e+06 -8.27636e-12 262576 -3.94806e-11 8.13769e+06)
(-3.25863e+07 -1.28817e+06 2.19094e-11 -174875 2.26394e-11 -8.12872e+06)
(3.11651e+07 -6.60381e+06 -9.97397e-13 4.91474e+06 3.84378e-13 8.95213e+06)
(253.242 -1177.87 -7.7499e-19 2441.17 -5.4268e-17 668.539)
(6.21838e+06 -2.35126e+06 -1.65533e-11 -159469 3.71545e-11 1.50334e+06)
(5.29439e+07 -1.95316e+06 -3.20483e-12 56253.3 2.25597e-11 1.31504e+07)
(2.29247e+07 -2.48036e+06 1.41949e-11 4.28411e+06 -5.23873e-12 6.75105e+06)
(1.09332e+07 -1.85583e+06 2.862e-11 146171 -2.35383e-12 2.74902e+06)
(2.08112e+07 -1.98523e+06 5.89625e-12 -258628 2.08281e-11 5.09951e+06)
(-1.32778e+06 -1.84125e+06 2.67161e-11 92031.9 -1.97008e-12 -306615)
(-21.6031 -329.199 1.12277e-17 1668.23 1.21372e-17 408.563)
(5.18277e+07 -2.21547e+06 -2.26864e-11 -28263.7 -7.03442e-13 1.28525e+07)
(3.70988e+07 -2.21877e+06 -1.09023e-11 50711.9 -6.52337e-12 9.21754e+06)
(-9.67002e+07 -959930 3.80263e-12 -162216 2.01203e-12 -2.40335e+07)
(-3.30232e+07 -2.87548e+06 -5.75466e-12 71088.7 -6.18647e-13 -8.17608e+06)
(180925 -325330 3.28776e-15 121597 -1.99893e-14 75061.8)
(7.38627e+07 -3.28918e+07 1.76149e-12 1.8994e+07 -2.70619e-12 2.30396e+07)
(7.92092e+06 -3.13311e+06 6.97915e-12 379.728 6.91109e-12 1.96544e+06)
(-4.05715e+07 -2.18502e+06 7.98439e-12 -129970 -5.07015e-12 -1.00989e+07)
(8.02513e+07 -286885 -3.952e-12 -102832 -1.44126e-12 1.98865e+07)
(4.68382e+07 -1.34102e+06 -8.99482e-12 20244.9 -5.05599e-12 1.16265e+07)
(111848 -384259 -3.06554e-16 494637 -2.91049e-14 150481)
(-5719.63 -116096 3.69081e-15 1.3162e+06 6.50105e-15 325156)
(-5.11018e+07 -2.77864e+06 3.93981e-12 81558.8 8.98378e-12 -1.26591e+07)
(-4.46798e+07 -135072 -3.94006e-11 -942502 -5.83857e-12 -1.13198e+07)
(4.46873e+07 -132787 -2.17149e-11 937826 1.56264e-11 1.13205e+07)
(-7.10473e+07 5.39371e+06 -1.04382e-13 338551 -1.38093e-13 -1.75443e+07)
(2.12677e+07 965712 2.70856e-12 9.34862e+06 -4.59165e-12 7.59653e+06)
(2.37991e+07 -3.72295e+06 -4.86995e-12 2.41613e+06 -2.85811e-12 6.50452e+06)
(-5.18657e+07 -516755 -1.2822e-11 -41986.9 6.72481e-12 -1.28793e+07)
(5.19177e+07 -562157 0 23762 0 1.28877e+07)
(-5.05078e+06 -3.42521e+06 -2.18611e-11 243358 1.2471e-11 -1.19282e+06)
(-3.54578e+07 -3.00107e+06 -6.66736e-12 317191 -7.52093e-12 -8.71911e+06)
(-6.83111e+07 -1.35242e+06 -3.66234e-12 53173.7 -6.13813e-12 -1.69362e+07)
(5.10274e+07 -5.25745e+06 8.50852e-13 1.10846e+07 1.84475e-12 1.54113e+07)
(-3303.09 -75570.1 -1.36292e-14 1.35559e+06 -2.73909e-14 335529)
(7.01804e+07 -1.81519e+06 7.39507e-12 168118 -9.84087e-12 1.74549e+07)
(-2.38715e+07 1.04192e+07 -1.52584e-12 93936.1 -2.65258e-13 -5.89971e+06)
(1.02534e+08 -1.05619e+06 1.91416e-12 409377 2.42685e-13 2.55422e+07)
(4.08607e+06 -1.96014e+06 1.29137e-11 -151995 8.91522e-12 976124)
(-287.505 -68973 -3.96897e-15 635651 -4.02023e-15 157647)
(3.24199e+07 -1.76827e+06 3.07484e-11 41825.4 -6.3439e-12 8.0544e+06)
(-887554 -3.50314e+06 -1.18427e-11 54892.5 -8.14775e-12 -206600)
(2.30376e+07 -2.52516e+07 -2.50132e-12 2.98386e+07 2.36148e-12 1.31197e+07)
(2.89682e+06 -3.36242e+06 -5.01545e-14 4.3354e+06 6.70325e-14 1.79446e+06)
(1.75478e+07 -1.25683e+06 3.25278e-13 7.66344e+06 3.37465e-12 6.25543e+06)
(-8.73006e+06 -1.48867e+06 -1.96281e-11 320664 1.55959e-12 -2.08654e+06)
(-6.612e+07 -1.28139e+06 -3.21297e-12 102264 8.48613e-12 -1.63803e+07)
(4.74154e+07 -4.74992e+06 8.72157e-13 9.97916e+06 1.77202e-12 1.42408e+07)
(4.90698e+06 4.11431e+06 3.74191e-13 7.89696e+06 -5.94327e-13 3.17692e+06)
(5.10339e+07 -1.50871e+06 -1.67422e-11 -90044.4 1.10701e-11 1.26402e+07)
(-7.10812e+06 -3.04621e+06 2.61208e-12 66850.5 -6.7191e-12 -1.74708e+06)
(-8.34299e+07 1.04332e+06 -5.24378e-12 402329 -2.42103e-12 -2.06008e+07)
(-3.00443e+07 -1.86125e+06 1.60993e-11 58139.5 -3.34497e-11 -7.44016e+06)
(-4.59516e+07 -1.39054e+06 -7.29835e-12 163054 -5.40684e-12 -1.13611e+07)
(-7.317e+06 -2.93715e+06 3.70727e-12 625666 6.42718e-12 -1.66025e+06)
(2.28581e+07 -925802 -1.25755e-11 212530 -2.6325e-11 5.7243e+06)
(-3.00081e+06 1.05235e+07 -3.35156e-12 2.46934e+06 1.98966e-14 -131869)
(-2.20695e+06 -2.56134e+06 -1.43428e-11 -329510 1.49069e-11 -629347)
(-6.58839e+07 -1.56848e+06 -3.82532e-12 474809 -2.63088e-12 -1.62293e+07)
(-2.82213e+07 2.12727e+06 3.25899e-12 3.33435e+06 -1.48227e-12 -6.17496e+06)
(121899 -479446 2.14207e-15 792365 4.1026e-14 226848)
(9.77447e+07 -336482 0 87276.4 0 2.42741e+07)
(-2.81876e+07 1.08895e+06 1.33202e-14 -4.23855e+06 -3.58471e-13 -8.04558e+06)
(1.61521e+07 -3.60656e+06 -7.56308e-12 -210263 -3.00094e-12 3.9555e+06)
(-5.94596e+07 -1.44077e+06 -5.16181e-12 -366390 1.47231e-11 -1.48441e+07)
(-5.22505e+07 266103 -3.33028e-14 1.86468e+06 1.2345e-12 -1.25018e+07)
(-5.96336e+06 -2.467e+06 1.18228e-11 -41676.1 1.29256e-11 -1.48997e+06)
(-8.73572e+07 -77066 -6.1106e-12 274335 -5.70061e-13 -2.1607e+07)
(-1.36131e+07 9.6267e+06 2.94251e-12 3.19703e+06 1.39143e-12 -2.58443e+06)
(-8.28847e+07 -1.35107e+06 -5.92695e-12 217026 -7.71558e-12 -2.05115e+07)
(886015 -1.61239e+06 8.64094e-14 3.17578e+06 -9.48674e-14 1.00781e+06)
(-8.15059e+07 -1.75532e+06 5.77723e-12 131852 4.63577e-12 -2.01905e+07)
(8.12101e+07 -1.65479e+06 -5.26252e-12 -107168 -4.64973e-12 2.01233e+07)
(5428.06 -32985.9 -2.31197e-16 76687.6 1.1855e-16 20374.6)
(4.01266e+07 -2.00097e+06 -2.54843e-11 175287 -2.11463e-11 9.99972e+06)
(-4.02548e+07 -2.08351e+06 -1.9692e-11 -262727 -2.95308e-11 -1.00532e+07)
(684779 -2.05878e+06 1.97164e-13 6.33617e+06 -1.42827e-13 1.74204e+06)
(2.75944e+07 -2.93062e+06 -1.14585e-13 2.48091e+06 -5.25516e-13 7.46229e+06)
(1.36101e+07 -3.19516e+06 -1.74435e-12 18121.9 -8.9407e-12 3.38145e+06)
(-3.44443e+07 1.01766e+07 3.24485e-13 490688 -6.08945e-13 -8.42459e+06)
(2.88328e+07 1.32675e+06 7.1199e-13 8.13238e+06 -2.24287e-12 9.17182e+06)
(4.88652e+07 -2.37854e+06 -1.06972e-12 312949 -1.76663e-11 1.22021e+07)
(4952.4 -68027.6 -2.65378e-15 501233 -5.51147e-15 125595)
(3.60932e+07 -1.65862e+06 -2.58526e-12 248881 1.40903e-11 9.01722e+06)
(12105.8 -35376.2 -2.02667e-15 1.61238e+06 1.61956e-15 403068)
(378.068 -2547.17 7.34949e-17 12033 2.5254e-16 3079.44)
(-6.94363e+07 1.8927e+06 6.77318e-12 1.34252e+06 3.18053e-12 -1.68954e+07)
(8.53885e+06 4.83263e+06 3.46236e-12 7.75579e+06 -1.22523e-12 4.04303e+06)
(2.97978e+07 -9307.32 2.55733e-11 246483 -2.40505e-12 7.45459e+06)
(-2.98281e+07 -8560.12 -4.90949e-12 -248536 -2.81325e-12 -7.46262e+06)
(-1.06428e+07 -2.98608e+06 -2.0057e-11 123507 4.22379e-12 -2.61006e+06)
(4.55124e+07 -470003 -1.28164e-11 -56959.1 -8.25631e-12 1.12784e+07)
(8.06334e+07 -563292 1.2344e-11 -15602.1 -3.6363e-12 2.00029e+07)
(-8.09194e+07 -636299 -7.46203e-12 46787.3 4.63936e-12 -2.00661e+07)
(8.24635e+07 -9.17336e+06 -2.13436e-12 9.16572e+06 6.31002e-12 2.27351e+07)
(4.12121e+07 -2.282e+06 -6.58872e-12 -103997 5.9747e-12 1.01998e+07)
(-2.31538e+07 3.62601e+06 -4.63102e-12 5.19876e+06 3.71787e-12 -4.45502e+06)
(6.09922e+07 -1.7542e+06 6.48456e-12 -42373 -5.03524e-13 1.51229e+07)
(-3.58301e+07 -2.96177e+06 -9.85412e-12 306110 -2.243e-11 -8.81422e+06)
(398.37 -3373.29 4.81985e-17 8949.48 9.67945e-17 2319.39)
(3.58811e+07 -1.32593e+06 2.95789e-12 1.03838e+07 1.05978e-12 1.14793e+07)
(-8.56227e+07 -427539 1.53153e-12 13408.2 -3.8372e-12 -2.12414e+07)
(2.93603e+07 -1.50791e+06 8.24867e-12 -60967.8 4.60482e-11 7.26977e+06)
(-2.96034e+07 -1.45196e+06 -2.41616e-12 -172940 3.48242e-11 -7.38813e+06)
(-2.52668e+07 -2.59434e+06 -2.80871e-11 -282325 8.828e-12 -6.33925e+06)
(-7.21587e+06 -2.23493e+06 3.94017e-12 -44238.4 1.37597e-13 -1.80138e+06)
(8.51123e+06 -2.2945e+06 -1.02949e-11 -316878 -1.81926e-11 2.03318e+06)
(9.2348e+07 684.362 -2.70839e-11 767251 -1.35944e-12 2.31038e+07)
(-7.05361e+07 -59787.6 -1.12323e-11 122325 3.45014e-12 -1.74711e+07)
(359.923 -2994.75 5.15309e-17 11262 5.24406e-16 2883.62)
(3.67369e+06 -3.61682e+06 0 205365 0 962474)
(-9.64652e+06 -2.53785e+06 -2.40244e-11 -11759.5 -2.37846e-11 -2.39642e+06)
(-2.57625e+07 1.05831e+07 1.0175e-12 -739953 9.60514e-13 -6.57579e+06)
(-2.3758e+07 -1.4462e+06 3.70207e-11 -328519 -2.92077e-11 -5.97636e+06)
(60.195 -424.232 -1.29249e-17 2920.59 5.18749e-17 739.593)
(1.05173e+08 -2.60902e+07 -1.62389e-12 1.11314e+07 2.12349e-12 2.88574e+07)
(3.48249e+07 -2.21012e+06 -5.70635e-13 114953 3.01172e-11 8.66928e+06)
(-3.48246e+07 -1.99315e+06 2.75112e-12 197682 5.79803e-12 -8.59164e+06)
(5.08269e+07 -2.61861e+06 4.00979e-12 1.71307e+06 2.82568e-12 1.30362e+07)
(-4.66245e+07 6.84151e+06 -2.6568e-12 1.95812e+06 -5.29763e-13 -1.10826e+07)