/*--------------------------------*- C++ -*----------------------------------*\
| =========                 |                                                 |
| \\      /  F ield         | OpenFOAM: The Open Source CFD Toolbox           |
|  \\    /   O peration     | Version:  v3.0+                                 |
|   \\  /    A nd           | Web:      www.OpenFOAM.com                      |
|    \\/     M anipulation  |                                                 |
\*---------------------------------------------------------------------------*/
FoamFile
{
    version     2.0;
    format      ascii;
    class       volScalarField;
    location    "8000";
    object      sigmaEq;
}
// * * * * * * * * * * * * * * * * * * * * * * * * * * * * * * * * * * * * * //

dimensions      [1 -1 -2 0 0 0 0];

internalField   nonuniform List<scalar> 
24076
(
7.16787e+07
958447
14457.5
14327.4
1.73577e+07
1.10163e+06
985574
7.60968e+07
1874.95
6.47283e+07
4.37297e+07
6.2842e+07
3.69302e+07
1.45309e+07
7.7319e+07
6.68724e+06
4.12506e+07
4.19235e+07
5.619e+06
9.71208e+06
7.61228e+07
3.94824e+07
1.38758e+06
4.43196e+07
1.34157e+07
4.41796e+06
7.67279e+06
1.10205e+06
7.41336e+06
1.57936e+07
1.2871e+07
279094
2.85789e+07
2.54713e+07
3.30459e+07
5.55928e+07
3.53828e+07
4.21478e+07
4.25171e+07
7.75318e+07
2.62848e+07
8.65602e+06
2.88108e+07
2.21754e+07
5.19979e+07
7.49101e+07
1.37148e+06
1.92068e+07
8.16199e+06
5.54225e+07
37619.5
5.83895e+06
5191.61
1.20308e+06
1837.74
3.14641e+07
1.52215e+07
7.95956e+07
5.00603e+06
3.68535e+07
7.51723e+07
857644
8.95888e+07
5.16604e+07
3.02029e+07
7.54966e+07
2.46025e+07
2.55591e+07
768842
2.28006e+07
5.19524e+06
1.9853e+06
5.62685e+07
235356
2.47949e+07
1.42478e+07
4.14756e+07
5.4231e+07
5.05588e+07
9.09011e+07
1.30658e+06
1.81505e+07
2.23589e+07
1.08887e+07
1.71421e+07
5212.5
1.47651e+07
4.51831e+07
4.94039e+06
1.01697e+07
1.82603e+07
5.13828e+06
4.26651e+07
1.6214e+07
1.01295e+07
4.04514e+07
9.3606e+06
8.13715e+06
268600
2.57595e+07
2.10384e+07
3.2354e+07
1.06224e+07
5.19483e+07
1.45915e+07
2.85086e+07
78754.8
1.65987e+06
6.60454e+07
2.55201e+07
6.67934e+06
1.42486e+07
3752.16
912785
1.10837e+07
35821.4
3.77962e+07
2.15624e+07
8.21127e+06
2.84969e+07
6.92792e+06
4.70505e+07
2.83986e+07
7.52058e+07
4.9235e+07
4.32003e+07
6.58547e+07
3.99982e+07
1.48056e+07
176437
4.68785e+07
2.71901e+07
2.12576e+07
1.42822e+06
4.40055e+07
7.6012e+06
5.7282e+06
3.03625e+07
4.16691e+06
8.99348e+06
1.30422e+07
3813.44
6.81446e+06
6.90056e+06
2.19734e+07
1.28221e+07
1.91697e+07
2.72149e+07
4.73862e+06
85003.4
6.07905e+07
1205.96
4.3108e+07
2.60782e+07
5.00141e+07
9.43942e+06
7.41543e+07
1.36365e+07
7.40621e+06
22581.7
1.19433e+07
1722.92
8.01942e+07
8.48002e+07
5.45591e+06
3.16197e+07
3.15921e+07
3.34627e+07
4.10224e+07
2.22232e+07
3.21402e+07
1.51067e+06
8.05924e+06
2.26241e+07
4.96626e+07
4.96153e+07
4.7377e+07
4.68609e+07
7.15377e+07
6.74317e+07
8.68291e+07
571511
3.60764e+07
1.36233e+07
1.46796e+07
1.15258e+07
4.12929e+07
3.3762e+07
5.7237e+07
2.95617e+07
309181
4.43076e+07
1.89873e+07
4.01893e+07
2.58125e+07
7.31041e+07
1.15051e+06
4.27964e+07
4.30608e+07
7.28338e+07
3.55186e+07
3.06048e+07
2.5834e+07
2.58715e+07
5.37029e+06
2.10092e+07
6.86963e+07
3.93808e+07
6.58027e+07
1.31602e+07
1.9198e+06
6.85426e+06
3.24501e+06
5.94736e+07
1894.92
7.4257e+06
7.4239e+06
7.63715e+07
4.72881e+06
4.73579e+06
7.2199e+06
8.38633e+07
8.82448e+07
3.52708e+07
7.30535e+07
43232.8
23792.8
4.59014e+07
42068.4
1.10057e+07
21982.5
4.2902e+07
43641.1
710052
1.25732e+07
1.83092e+07
2.80658e+07
2.65713e+07
2.91983e+07
6.90355e+07
6.88082e+07
1.81314e+07
3.00403e+07
2.96901e+07
5.61252e+07
5.58916e+07
3.87006e+07
7.72258e+07
7.68734e+07
4.01837e+07
3.102e+07
1.1552e+07
1.14375e+07
7.47196e+07
5.51603e+07
5.5259e+07
636870
243552
3.11743e+06
9.43043e+06
2.6718e+07
9.08394e+07
5.05484e+07
165.919
4.39148e+07
1.69237e+07
6.97838e+07
8.41287e+06
4.03619e+07
9909.28
2.47012e+07
2.4997e+07
7.22521e+07
7.76314e+06
1.08479e+07
3.60687e+07
4.42056e+07
1.54321e+06
6.07719e+07
7.82482e+07
61892.9
3.95164e+06
3.03595e+06
5.11982e+06
5.49135e+06
2.90481e+07
654150
5.5807e+07
9.62124e+07
3.64326e+07
1.00105e+07
6.86419e+07
2.38567e+07
2.11834e+07
2.89876e+07
2.89414e+07
4.73532e+07
16238.7
114272
3.07826e+07
3.69005e+07
3.7419e+07
2.92428e+07
2.93419e+07
2.70227e+07
2865.84
7.03008e+06
4.78276e+07
1.80562e+07
1.0266e+07
1.92763e+07
3.43212e+06
1624.44
4.69226e+07
3.36414e+07
8.71074e+07
3.02509e+07
570933
7.77854e+07
8.97114e+06
3.66887e+07
7.24595e+07
4.22924e+07
759077
1.2083e+06
4.64016e+07
3.9583e+07
3.95934e+07
6.5011e+07
1.29929e+07
2.06907e+07
4.67548e+07
4.68172e+07
7.59496e+06
3.26382e+07
6.16955e+07
3.90417e+07
1.23211e+06
6.32468e+07
2.8148e+07
9.21828e+07
5.09699e+06
585830
2.93681e+07
6.12585e+06
4.60977e+07
6.22801e+06
1.08784e+07
8.5189e+06
5.97534e+07
3.64387e+07
8.23945e+06
4.61706e+07
8.34229e+06
7.55745e+07
2.73323e+07
4.16381e+07
8.71984e+06
2.05172e+07
1.88333e+07
4.76794e+06
5.9845e+07
2.82788e+07
1.03912e+06
8.80925e+07
2.23703e+07
1.59982e+07
5.3407e+07
4.85553e+07
6.8444e+06
7.89974e+07
2.22899e+07
7.49564e+07
3.57468e+06
7.36742e+07
7.33819e+07
86605.2
3.62235e+07
3.62864e+07
6.30847e+06
2.35832e+07
1.34524e+07
3.6044e+07
2.03311e+07
4.40273e+07
463530
3.24909e+07
1.44632e+06
11450.5
6.3735e+07
9.34709e+06
2.66876e+07
2.67134e+07
1.09866e+07
4.10996e+07
7.27425e+07
7.3026e+07
6.93869e+07
3.7458e+07
2.57449e+07
5.51256e+07
3.29507e+07
9722.25
2.5073e+07
7.72378e+07
2.66551e+07
2.66869e+07
2.30168e+07
7.54341e+06
8.86036e+06
8.27064e+07
6.37105e+07
11163.1
7.01576e+06
9.7397e+06
2.91575e+07
2.13258e+07
2690.72
9.76376e+07
3.15545e+07
3.17476e+07
4.47754e+07
4.51354e+07
2.27089e+07
7.03221e+06
3.52533e+07
2.46353e+07
4.41375e+07
2.02926e+07
5.8331e+06
6.09885e+07
2.78677e+07
1.2933e+07
9.58256e+06
2.21123e+07
2.29285e+07
1.12214e+06
8.47989e+06
2.52077e+07
3.29992e+07
330966
3.49728e+06
5.7336e+07
3.71886e+07
4.42347e+06
8.62811e+07
1.05422e+06
6.07735e+07
2.96659e+07
1.96166e+07
1.10365e+07
2.99102e+07
1.24214e+07
5.05874e+07
4.22012e+07
145246
8.34013e+06
762471
904859
1.12905e+07
1.35764e+07
6.8449e+07
4.81901e+07
77660.9
3191.44
4.24282e+07
4.31209e+07
4.3984e+07
816978
4.88322e+07
3297.66
5.06439e+06
4.18781e+07
6.08531e+07
3.16532e+07
3.1077e+07
6.57862e+07
3.28935e+07
48216.2
3.56316e+07
3.4274e+07
3.4043e+07
3.50504e+07
8.68571e+07
3.52827e+07
2.95893e+07
2.78213e+07
8.5629e+07
2.62844e+07
3.84848e+07
4.2521e+07
4.25347e+07
2.94496e+06
8.30363e+07
4.62044e+07
1.83017e+07
351283
3.28731e+07
122663
3.14633e+07
3.06893e+07
7.49138e+07
9928.77
4.7392e+06
2.47092e+06
1.88697e+07
2.13911e+07
5.12464e+07
9.41853e+07
5.51062e+07
6.36061e+07
8.62377e+06
2.05889e+07
5.20945e+07
686.515
6.6086e+07
1.74011e+07
2.91371e+06
5.66601e+07
2.05993e+07
1.14399e+07
6.20906e+06
5.82417e+07
234375
2.13666e+07
228249
7.38021e+06
1.73465e+07
1.73986e+07
3.49709e+07
864351
8.29794e+07
797908
5.17345e+07
3.01111e+06
3.02125e+06
4929.73
1.91344e+06
8.85548e+07
3.31497e+07
6.78375e+07
7.64749e+06
1.11071e+07
1.52568e+07
15891.1
6.06084e+06
2.0836e+07
2.08777e+07
16351.3
59722.1
3.29127e+07
1.3087e+07
1.32632e+07
5.4722e+07
1.02131e+07
44624.5
1.07579e+07
5.08406e+07
3.62713e+06
4.98009e+07
4.96258e+07
7.335e+07
7.36454e+07
8.4701e+07
861.33
464443
4.07494e+06
1.67546e+07
117987
8.06531e+07
2.50303e+07
12819.4
4.62577e+07
2.03393e+07
2.03764e+07
2.59152e+07
2.69844e+07
4.69514e+07
1.29225e+07
5.10126e+06
53256.9
7.27125e+07
33119.7
2.03753e+06
3.23761e+07
2.1916e+07
2.10405e+07
9.33261e+07
1.88746e+07
1.8791e+07
1.11474e+07
8.97917e+06
2.55902e+07
1.53467e+07
3.40625e+07
2.22945e+06
2.91411e+07
76754
7.49149e+07
5.84879e+07
4.91767e+07
9.32943e+06
2.21507e+07
3.21241e+07
1.66279e+07
2.36702e+07
6.24107e+07
5.11848e+07
7.64502e+07
3.43567e+07
8.96088e+06
2.70339e+07
1.2263e+07
2.29812e+07
5.04548e+07
8.16988e+07
3.97692e+07
1.60622e+07
1.60338e+07
1.25021e+06
7.71593e+06
3.40247e+07
28272.3
5.87853e+07
5.2321e+07
1.78004e+07
1.77354e+07
4.91656e+07
13940.7
8.44989e+06
6.26193e+07
1.56445e+07
3.39817e+07
3.36565e+07
749300
29595.3
5.69027e+06
2.79413e+07
5.77471e+06
2.00199e+07
33841
14161
5.71673e+07
2.00053e+07
3.38041e+07
4.38978e+07
4.04428e+07
2.8712e+07
130847
2.70468e+07
5.85298e+07
6.36981e+07
7.12709e+07
1.70956e+07
9.43173e+06
1.98901e+07
1.82262e+07
2.08538e+07
7.5131e+07
6.37055e+07
6.63091e+07
6.54116e+07
199.408
757513
1.34524e+07
8.4744e+07
1.92082e+06
3.10605e+07
2.16555e+07
3.86077e+06
53104.9
3.02356e+07
1.66036e+07
1.7133e+07
4.15602e+07
2.27067e+07
2.26844e+07
1.6011e+07
5.75764e+07
5.75779e+07
6.28025e+07
6.89539e+07
511856
5.26778e+07
8.33847e+07
1.08473e+07
630929
2.85052e+07
2.84871e+07
3.70763e+07
3.93807e+07
3.39507e+06
5.27137e+07
2.78012e+07
1.163e+06
5.36655e+07
9.51407e+07
4.98192e+06
3.04506e+07
5.10453e+07
5.08519e+07
2.35013e+06
8.23768e+07
3334.36
7.18198e+07
27019.4
2.87957e+07
2.12413e+07
1.29256e+07
8.32766e+07
45481.7
3.26865e+07
2.86326e+07
2.92683e+07
1.29241e+06
1.752e+07
1.72679e+07
8.81842e+07
6.64488e+07
3.06545e+07
2.03137e+07
8.19891e+07
7.79961e+07
1.5202e+06
4.98345e+06
6.44077e+06
141534
3.99666e+06
6.4107e+07
2.32272e+07
2.33944e+07
2.56339e+07
1938.8
1.10337e+07
2.11542e+07
4.03787e+07
3.01137e+07
3.09244e+07
3.3582e+07
7.95837e+07
7.99929e+07
5.61056e+07
7.70246e+06
977761
5.74046e+07
2.81043e+07
7.83561e+07
8.48557e+07
4.45825e+07
1.29091e+07
3.14418e+07
3.08042e+07
2.61811e+07
3.31049e+07
5.03928e+07
6.30919e+06
2.77232e+07
5.65879e+06
1.3528e+07
6.96862e+07
6.16733e+06
4.56223e+06
2647.33
3.66659e+07
37138.5
5.10272e+07
4.83109e+07
2.99709e+07
3.16892e+06
6.68665e+06
2.1751e+07
2.18031e+07
9.61243e+07
1.96536e+07
83.3959
580753
5.50673e+07
5.51442e+07
2.08185e+07
150040
3.27797e+07
4.64129e+07
8.68632e+07
3.96934e+07
3.2868e+07
3.45627e+07
2.45352e+07
1.60254e+07
1.20385e+07
6.73863e+07
1.58152e+07
4.05242e+07
3.40811e+07
5016.26
3.34576e+07
7.61803e+07
6.06576e+07
2.05552e+07
1.59468e+06
5.74255e+07
5.97874e+06
7.82811e+06
1.79879e+07
6.16833e+06
661309
176324
2.93164e+07
3.62095e+07
5.60834e+07
9.6506e+06
4.9805e+06
4.70356e+06
1.17568e+07
4.22873e+07
547910
7.36194e+07
8.82758e+07
3.66667e+07
3930.43
1.06127e+07
1.31567e+07
8.1289e+06
1.49812e+07
1.40253e+07
7.54597e+06
7.31428e+07
3.89691e+07
134398
4.15653e+07
145283
3.78089e+07
3.4325e+07
2.28876e+07
1.21383e+07
89998.9
96.2283
9.55443e+06
1.77682e+06
3.49771e+07
4.03286e+07
5.06549e+07
5.75676e+07
9.26502e+06
9.35395e+06
5.51995e+07
1.03156e+06
5.38129e+07
7.29273e+07
1.96995e+06
3.53512e+07
7.33662e+07
2.69316e+07
2.96341e+07
4.15872e+06
150587
8.85051e+07
3.26886e+07
1.26358e+07
3.19615e+07
6.45557e+07
1.37378e+07
6.47242e+07
3997.43
8.43939e+07
1.92395e+07
9.57925e+06
6.30191e+07
1.11438e+07
9.89025e+06
5.61385e+06
1330.2
792352
1.76235e+07
8.29646e+06
1.79326e+07
1.99572e+07
8.25095e+07
2643.97
3.1656e+07
1.03008e+06
3.92831e+07
6.36666e+06
5.06242e+07
4.31422e+07
4.31285e+07
2.83043e+07
2.83353e+07
3312.4
1.14159e+07
14657.3
1.45937e+07
1.86841e+07
8.51591e+07
3.29049e+07
1.47602e+06
8.54561e+07
3.73094e+07
5.46208e+07
4.79031e+07
2.34997e+07
2.3524e+07
1.8438e+07
8344.99
13366.8
1.29006e+07
8.69959e+07
5.14994e+07
5.14928e+07
1.50144e+07
7.48296e+06
2.79702e+07
5.51794e+07
5.54913e+07
3.99613e+07
7.01504e+06
2.49812e+07
3.35758e+07
3.35803e+07
1.39592e+07
655.626
3.37887e+07
3.72749e+07
145951
5.62064e+06
7.16481e+07
1.97342e+07
1.95738e+07
2.82502e+07
2.7983e+07
878.047
3.10371e+07
5.35896e+07
5.25419e+07
2.93828e+07
6.65553e+06
27598.4
7.13145e+07
8.65994e+07
9.886e+06
118092
3.12717e+07
4.43988e+07
4.64646e+06
1.7362e+07
3.88402e+07
5.60348e+06
586980
1.70264e+07
6.74129e+07
7.30419e+07
22716.3
4.07656e+07
1.37875e+06
6.79999e+07
4.07543e+07
1.01292e+07
4906.17
8.04608e+07
2.25621e+07
2.26317e+07
240398
6.24038e+07
2.74385e+07
5.61012e+06
1.50184e+07
2.31193e+06
1.80582e+07
977837
17203.3
2.22813e+07
5.61129e+07
2.2215e+07
2.27977e+07
6.21981e+07
5.68552e+07
2.69696e+07
5.98694e+07
8662.29
1.28825e+07
1.9968e+07
8.03678e+07
2.23905e+07
2.71875e+07
1.26674e+07
85768.8
4.38807e+07
6.63399e+07
3.83505e+07
9.29206e+06
6.33488e+07
6.00935e+07
4.99582e+07
6.85984e+07
3.27478e+06
4.18853e+07
3.20739e+07
95140.9
8.69513e+06
1.40002e+07
4.06804e+07
5.23046e+07
3.25521e+06
8318.68
1.29662e+07
3.32693e+07
4.42402e+07
3.08873e+06
8.28102e+07
1.9353e+07
3.18129e+07
1.20583e+07
1.8763e+07
3.10335e+07
804975
1.10414e+07
4.84071e+07
6.94251e+07
1978.33
7.48246e+07
6.13965e+07
2.74505e+07
775743
5.66138e+07
5.46057e+07
4.67977e+07
4.67115e+07
3.05643e+07
1.75886e+07
8.72365e+06
7.27785e+06
7.57823e+07
4.98246e+07
2.75143e+07
2.75168e+07
989614
2.71852e+07
8.96258e+06
119024
5.99515e+07
66490.7
5.63317e+06
19220
2.91297e+07
4.81281e+06
6.00711e+07
5.56124e+06
3.84117e+07
4.02604e+07
1.74912e+07
721198
27789
7.35832e+07
7.49585e+06
5.08553e+06
1.76965e+07
1.36253e+07
6.04672e+07
5.76325e+07
6.46188e+07
718796
7.24743e+06
1.51086e+07
1.78694e+07
6.66896e+06
2.00285e+07
1.44587e+07
1.98949e+07
4.51271e+06
9397.72
5.56643e+07
2.48042e+07
2.53012e+07
2.48452e+07
5.146e+06
3.96887e+07
1.13086e+07
4.85921e+07
8.35247e+07
1.2927e+07
5913.42
8.24008e+06
4.40723e+06
6.03428e+07
6.90176e+07
2.70844e+07
5.04726e+07
4.1522e+07
3.79294e+07
75723.9
2.61584e+07
1.38185e+07
639883
313814
5.52381e+06
6.4015e+07
122169
1.11094e+07
6.31617e+07
4.61188e+07
8.66261e+06
2851.2
2.48374e+07
3.01323e+07
4.38813e+07
3.40207e+07
29484.8
4.13433e+07
1.77576e+07
2.49504e+07
1.11499e+07
4.49114e+07
5.62556e+07
4.41188e+07
6.05342e+07
2.41871e+07
76612.7
1.00763e+07
2096.23
1.68998e+07
2.06484e+07
5.34464e+06
6.20332e+07
8.18892e+07
3.75543e+07
7.8339e+07
1.11169e+06
1.26461e+07
793225
4.89919e+07
6.3319e+07
3.20069e+07
1.58033e+07
1.59391e+07
5.1004e+07
9725.72
1.71702e+07
356297
2.36173e+07
2.12842e+07
8.77371e+06
4.1234e+06
1.27589e+07
7.37328e+06
3.06862e+07
2.82929e+07
5.25103e+07
5.25048e+07
2.71379e+07
2.69524e+07
1.35557e+07
2.3742e+07
25901.3
4.75855e+07
2.76627e+07
321819
86898.5
5.49187e+07
2.68483e+07
6778.59
1.67962e+07
1.70653e+07
3.2368e+07
8.36347e+07
2.01135e+07
2.71375e+07
4.5868e+07
3.3641e+07
4.83342e+07
4.16985e+07
18379.6
78426.6
2.94845e+07
1.24599e+07
6.89592e+07
7.25982e+07
86432.6
3.03964e+07
3.36389e+07
3.3582e+07
3.02803e+07
3.8127e+07
4.25303e+06
60363.9
1.25342e+07
5.25303e+07
724297
1.01315e+06
3.50778e+07
7.52269e+06
4.81967e+07
4.82167e+07
50259.6
526925
5.31493e+06
5.982e+07
1.70429e+07
3.63356e+07
7.01476e+07
4.77279e+07
1.42472e+06
4.72846e+07
9.95883e+06
1.02585e+06
118240
240268
2940.86
7.26291e+06
1.16222e+07
809727
1.9554e+06
4.34104e+07
1.33908e+07
1.42175e+07
2.64817e+07
6.64162e+06
4.29594e+07
6.53732e+06
7.28209e+07
7.3138e+07
5.04609e+07
6.7071e+06
2.85938e+07
3.63678e+07
6.64418e+07
3.99696e+06
3.83029e+06
4.82595e+06
6.36124e+07
2.49615e+07
4.79387e+07
1.37974e+07
1.33331e+07
3.85856e+07
5.97042e+07
3.64875e+07
5.80529e+07
1.95939e+07
1.95581e+07
4.12096e+07
7.4028e+06
3.10376e+07
1.1093e+07
2.71382e+07
889.82
8.50442e+06
6.57698e+07
17044
2.63078e+07
5.31802e+06
4.79926e+07
1.14977e+07
1.2249e+07
4.41102e+07
14522.5
4.68693e+07
6.58632e+07
4.47019e+07
1.2425e+07
65666.8
2.63266e+07
5.45812e+06
8.67e+07
5.91166e+06
6.33198e+07
2.7645e+07
1.18214e+07
212405
2.11692e+06
2.11595e+06
5.02431e+07
1.12791e+07
1.97453e+07
5.02447e+07
5.22691e+07
5.33009e+07
4.99441e+07
4.61808e+07
23004.4
6.30962e+07
5.61791e+06
1.46499e+07
5.32572e+06
6.21717e+06
6.16511e+06
3792.01
8.43797e+06
2.41262e+06
2.83877e+06
3.16675e+07
7.26318e+07
35901.1
1841.97
3.69649e+06
657071
4.80475e+07
3.55135e+07
6.17203e+06
7.68978e+07
5.31578e+06
4.98959e+07
1.11303e+07
4.45954e+07
1.55042e+07
2.4309e+07
2.12897e+07
2.8421e+07
7.07537e+07
3.2517e+07
7.94297e+07
2.47862e+07
6.95288e+07
6.14658e+07
556827
6.09562e+07
1.45705e+07
2.49749e+07
1.23181e+07
2.66234e+07
5.95499e+06
4.75916e+07
3.70136e+07
125446
5.79802e+07
4.15897e+07
7.04057e+07
1336.34
3.38377e+07
1.51993e+07
8.37069e+07
1.54802e+07
8.32875e+07
7.05238e+07
8.84914e+06
1.99459e+07
5.38509e+07
373847
2.17524e+07
3.35677e+06
809577
5.95991e+07
1.55864e+07
5.2923e+06
5.02792e+07
4.09808e+07
4.06101e+07
1.62305e+07
1.21716e+07
4.23624e+07
6.42848e+07
8.27528e+07
7.60737e+07
4.43058e+07
8.22882e+07
293408
5.41328e+07
7.18072e+07
1.22884e+07
4.35489e+06
7.70476e+07
1.40286e+07
3.90212e+07
9.00146e+07
9.00495e+06
1.51953e+07
8.86042e+07
1.92003e+07
2.05343e+07
8.91375e+06
5.66054e+07
1.075e+07
2.00492e+07
5.39211e+07
489883
1.29007e+07
1.6572e+07
1.66702e+07
1.84411e+07
4.16097e+07
4.66742e+07
5.45247e+06
1.43463e+07
6.6307e+07
4.74971e+07
733264
801748
4.52111e+06
1.55853e+06
7.64515e+07
6.17837e+07
5.82951e+07
1.04307e+07
6.26142e+07
2.68308e+07
3.1565e+07
600755
4.94493e+07
3.69415e+07
2.27881e+07
7.53248e+07
1.70169e+07
7.56257e+07
2.15757e+07
5.88444e+06
6.96136e+07
3.21995e+07
2.05872e+07
3.05606e+07
2.87674e+07
4.33314e+07
2.01404e+07
26781.4
3.47636e+07
5.21993e+07
4.87382e+07
616.426
4.82683e+06
4447.65
2.5515e+07
3.03858e+07
241175
3.05523e+06
381314
1.97393e+06
5.88506e+07
5.89606e+07
5.19366e+07
6856.25
1.90057e+06
7.53897e+06
1.17433e+07
4.49499e+07
222794
1.09218e+07
640001
3.46675e+07
6.51531e+06
893.036
1.79421e+06
1.26684e+07
8.40404e+07
5.37037e+07
5.37926e+07
2.79169e+07
4.5415e+07
4.22255e+07
4.06936e+07
8.19859e+07
8.00711e+07
2.09643e+07
1.01237e+07
2.15586e+07
6.94384e+07
3.87044e+07
2.82842e+07
1.60736e+06
8.61598e+07
1.47708e+07
3.55883e+07
2.96942e+07
1.23769e+07
6.80063e+06
1.1528e+07
4.08939e+07
5.36063e+07
6.84394e+07
2.4294e+07
4.32519e+06
8.90705e+07
7.9212e+06
2.08208e+07
9.90063e+06
4663.26
3.02631e+06
384.02
9.13245e+06
1.11342e+07
2.15151e+07
4.27301e+07
3.25869e+06
207352
6.90919e+07
1.91167e+07
3.02795e+06
1.13807e+06
8.40474e+07
8.73766e+07
3.60963e+07
2.1022e+07
29496.3
1.08201e+07
2.25667e+06
8.48829e+07
4.41819e+07
3.78981e+07
5.13849e+07
1.16374e+06
4.04522e+07
4.04034e+07
4.63632e+07
1.92183e+07
227608
2.34129e+07
705500
4.79571e+07
8.22749e+07
560826
5.94192e+07
4.79884e+07
6.15829e+07
3.80379e+07
4.81941e+07
4.05497e+07
2.33642e+07
4.14242e+07
5.20252e+07
5.19961e+07
3006.48
1.60261e+06
1.58552e+06
2.97715e+07
7.31644e+07
3.86274e+06
2.79924e+07
78495.2
5.48563e+07
1.27743e+06
510884
791.933
35105.9
1.85243e+06
5.02183e+07
6.27625e+07
2.78391e+07
3.95101e+07
5.83412e+07
2.22244e+07
9.01725e+06
5.146e+07
4.48476e+07
6838.35
8.91226e+06
8.74057e+06
1.2594e+07
4.8164e+07
31433.6
3.54609e+06
6.98755e+07
18552.6
2.1809e+07
5.87067e+07
933746
1.06817e+07
3.11929e+07
1.99917e+06
1.41938e+07
81254.7
1.60774e+06
750016
3.94597e+07
1.72924e+07
717322
2.4299e+07
5.49489e+07
1.99321e+07
5.7589e+07
4.93114e+06
5.07524e+07
2.02206e+07
4.9585e+06
3.27588e+07
1.62616e+07
5.45322e+07
5.08573e+07
190636
7.75373e+06
1.24129e+07
1.24523e+07
4.636e+07
5.08592e+07
1.62833e+07
7.30771e+07
3.53695e+07
536910
1.5775e+07
1.60079e+07
3.47956e+07
9.48249e+06
1.09441e+07
1731.69
1.10368e+07
4.63265e+07
4.62381e+07
2.91341e+07
8.32486e+07
5745.97
5.90745e+07
2.06416e+06
6.70728e+07
8.60733e+07
4143.04
96010.1
1.21386e+07
6.21903e+07
8.11521e+06
2.03175e+07
89878.8
4.83794e+07
9.11892e+07
4.08049e+07
13260.8
3.62961e+07
6.32945e+06
3.94764e+06
5.16511e+07
8.10389e+06
17319.8
1.43707e+07
2.93163e+07
7.63883e+06
8.78165e+06
4.47722e+07
7.15802e+07
3.58035e+07
3.05129e+07
5.83013e+07
5.30366e+07
2.18716e+07
3.58957e+07
8.97967e+06
3130.94
4.06411e+07
141119
3.84865e+07
3.86979e+07
3.32157e+07
5.40084e+06
7.28077e+07
4.26753e+07
4.28193e+07
4.33508e+07
6.69453e+06
59841.8
9.41037e+06
1.28981e+07
110830
2.85184e+07
4.66544e+06
77145.2
5.33077e+07
9.00573e+06
5.83519e+06
5.52644e+07
6.3454e+07
611780
8708.72
3.16001e+07
5.83495e+06
213084
1.23748e+07
16317.8
7.78961e+07
2.16486e+07
2320.13
9.27847e+06
9.37164e+06
2.91514e+07
7.07601e+07
3.84194e+07
5469.76
52855
7.4577e+07
8.78942e+07
4.85836e+07
1.8901e+06
3.48536e+07
8.49039e+07
5.16191e+07
9.13125e+07
9.60088e+06
5.09945e+07
2.09583e+07
40795.5
2.8878e+07
5.92511e+07
5.56551e+07
5.74594e+07
746177
1.01725e+07
5.27547e+07
1.13569e+06
2.21296e+07
6.40889e+06
4.48428e+06
5.99633e+07
4.8204e+07
5.65983e+06
2.89556e+07
6.61631e+07
3.67071e+07
6.26799e+07
2.33732e+07
3.9495e+06
2.32972e+07
9072.19
4.48452e+07
414.302
2.91234e+07
5.6894e+07
4.347e+07
1.18348e+07
7.70426e+07
2.15944e+07
2.59494e+07
1.96868e+07
4.9024e+07
8.59844e+07
1.76949e+07
9.29152e+07
4.35993e+07
4.29382e+07
3108.33
155007
8.82037e+07
49073.3
5.63883e+07
4207.66
4.44539e+06
5.02697e+07
39476.4
4.15662e+07
5.83756e+06
5.2126e+07
8.85591e+07
8.37179e+06
5.57194e+06
6408.7
6.17944e+06
1.13238e+07
3.93211e+07
3.92028e+07
12925.8
938290
36190.8
6.13111e+07
6.13203e+07
108365
6.96339e+06
5.40391e+07
7.17366e+07
2.82269e+07
691612
2.83188e+07
3.4427e+07
89903.4
5.45945e+07
7.53747e+07
4.51404e+06
3.30455e+07
570931
3.1784e+07
5.62896e+07
2.75011e+07
7.44711e+07
9.47377e+06
1.68569e+07
7.35373e+07
7.219e+07
6.86129e+07
1.47468e+07
3.91752e+07
5.94129e+07
1.0486e+06
1.72996e+07
5.50257e+07
1.52469e+07
4.22351e+07
3.23741e+06
2.29959e+07
1.67153e+06
1.25702e+06
9.12388e+07
2.85186e+07
20140.4
9.27681e+07
49098.7
7.47823e+06
7.67112e+06
8.15532e+07
5.05288e+07
1.97862e+07
2.10198e+07
1136.69
4.02099e+07
1.76514e+07
5.94421e+07
1.78465e+07
4.3474e+07
22903.2
2.32118e+07
7.17603e+07
8.19358e+07
8.47753e+07
487316
3.96134e+07
3.15563e+07
3.60203e+06
8.37115e+06
2074.11
2.11052e+07
4.17962e+07
1.14581e+07
2.90112e+07
2.54629e+07
3.29433e+07
3.86545e+07
74743.1
4376.56
2.88627e+07
2.72353e+07
8.79932e+06
230989
150928
5.28326e+06
7.0306e+07
5.07605e+07
9.34352e+07
6.93761e+07
6.95257e+07
2.87167e+07
801121
2.07176e+07
64413.8
5.56779e+07
2.98019e+07
3.91385e+07
4.09104e+07
4.41496e+07
3.24225e+07
2.84238e+06
8.42281e+07
4.15456e+06
4.49165e+07
5.72212e+07
5.04786e+07
5.76552e+06
2.83192e+07
2.82617e+07
1.26446e+07
5.2833e+07
47407.1
1.97391e+06
1.25256e+06
6.95654e+07
2.27731e+07
6.11637e+07
7.1359e+07
1.72665e+07
1.70731e+07
8.57056e+07
5.35108e+07
1.83574e+07
3.03234e+07
2.97558e+07
5.80935e+07
3.15483e+07
3.93564e+07
1.71696e+07
8.13014e+07
794.756
5.89441e+07
7.47308e+07
2.79454e+07
104261
217876
36375.5
9.67213e+06
8.45407e+07
3.5304e+07
7.47827e+07
2.46422e+07
5.61258e+07
9.23508e+06
9.32239e+06
5.68405e+06
8.98898e+06
4691.52
2.46538e+07
1.36836e+07
173791
3.427e+06
3148.07
2.11827e+07
1.3141e+07
4.55677e+07
6246.43
6.12111e+07
6.11825e+07
6.93372e+06
6.15999e+07
2.95703e+07
5.87054e+07
5.94175e+07
4.1993e+07
4.16603e+07
329392
169190
5953.78
5.12761e+06
243496
1.63947e+07
4.71831e+07
7.68282e+07
3.0512e+06
1.79531e+07
531961
6.80768e+07
1.68085e+07
8.68362e+07
4.43933e+07
8.1841e+07
2.43217e+07
1.20531e+07
7.43515e+07
816179
4.66203e+07
9.52282e+06
7.45421e+07
2.02876e+07
8.29351e+06
4.21717e+06
6.19252e+07
2.86352e+07
4922.41
7.7008e+07
2.73169e+07
3.00454e+07
6.21002e+07
2.13701e+07
5.47111e+07
240360
9.58784e+06
2.32859e+07
2.2991e+06
4.30575e+07
1.0758e+07
5372.89
7.31392e+07
4.32732e+07
448467
871161
5.21533e+07
3.9105e+07
1.42873e+07
1.13303e+07
5.57734e+06
9.19965e+07
9.9518e+06
3.10035e+07
4.6828e+07
3.7496e+07
2.24504e+07
3674.92
7.10529e+07
4.12332e+06
1.48541e+07
4.22463e+07
5.18309e+07
8.84252e+06
8.96909e+07
553229
3.12907e+07
3.80931e+07
605449
2.75495e+07
8402.34
2.50449e+07
7.30445e+07
964481
2.02842e+07
8.10461e+06
1.77639e+07
1.7737e+07
5.67902e+06
16293.1
5.03066e+06
3.66438e+06
5.80469e+07
1.08746e+07
1.12866e+07
5.61131e+07
1.05915e+06
5.31207e+07
7.10145e+06
2.99544e+06
117827
7.85164e+07
4.70833e+07
7.46692e+07
2.03875e+07
4.04924e+06
1.46978e+07
1.22424e+07
1.84549e+07
2.49299e+07
1.82894e+07
759942
2.9287e+07
2.92655e+07
1.59906e+07
1.55023e+07
8.7022e+07
3.72309e+07
1.59014e+07
1.02595e+07
6.08906e+07
3.31787e+07
3.32414e+07
2.65642e+07
5.86873e+07
1.35698e+07
1.78621e+07
926891
114958
4.55115e+06
1.2588e+06
2.89575e+07
4.80296e+07
4.31618e+06
2.37696e+07
8.34263e+07
4.53106e+06
4.69084e+07
941408
1.71087e+07
2.97873e+07
5.53013e+07
5.06535e+07
5.01857e+07
532061
3.58393e+07
1.80401e+07
2.89194e+07
7.04502e+06
9.24166e+06
1.0212e+07
6.90571e+07
142564
8.12946e+07
586354
1.36518e+07
2.32623e+07
5.87051e+07
1.43906e+07
1.21098e+07
6.78815e+07
2.1299e+07
4.51789e+06
4.99244e+07
2.64651e+07
2.6415e+07
2.18033e+06
6.79507e+06
222133
4.91951e+07
1.75893e+06
2.85904e+07
2.85912e+07
5.21148e+06
2.31417e+07
6.58267e+07
5.13299e+07
3411.72
8.18795e+07
2.25729e+07
2.30738e+07
8.51688e+06
2.52911e+07
6.33506e+07
2.70335e+07
2.70201e+07
3.56531e+07
89535
1.16717e+07
6.02209e+06
514192
3.6787e+06
6.11506e+07
924538
4.1403e+07
1.54053e+07
3.96666e+06
6.49995e+07
2.91617e+07
90518.9
1.0404e+07
5.73179e+07
4.5411e+06
4.88063e+07
1.78271e+07
1.15187e+06
4.14491e+07
1.03164e+07
3.10925e+07
1.79372e+07
2.15402e+07
6.93633e+06
7.93342e+07
8.26278e+07
92947.4
2.07257e+07
2.3647e+07
5679.81
4.27251e+07
2.41453e+07
4.5393e+07
3.2488e+07
3.14751e+07
55896.8
2.03874e+07
1.40817e+07
2.51194e+07
4.94308e+07
3.06642e+07
3.79224e+07
497377
5.61393e+07
8.91734e+07
4.6556e+07
1.7054e+07
8138.82
7.3696e+06
1.72945e+07
8.98525e+07
2.23396e+07
2.2417e+07
5.95715e+07
1.58145e+07
741061
1.73617e+06
6.41385e+07
5.41131e+07
2.3081e+07
9.23661e+07
1.25048e+07
125129
1.39708e+06
5.08285e+07
1.30013e+06
2.01605e+07
2.0825e+07
4.69909e+07
38543.8
118809
2.95057e+07
1.53985e+07
5.22549e+07
4.75074e+06
3.90392e+07
2174.12
1.76353e+07
2.49703e+07
3.75312e+07
9.55416e+07
6.52835e+07
8.15842e+07
1.71314e+07
2.58665e+07
3.69692e+07
8.10733e+07
2.66699e+07
1.56133e+07
4.12165e+07
2.2284e+07
2.59622e+07
4.73398e+07
4.73153e+07
8.76988e+07
5.31117e+07
5.3451e+06
958780
4.68244e+06
5.08284e+07
9.64588e+06
860085
1.0339e+07
329583
4.13174e+07
532002
1.20142e+07
9.10785e+07
2.0783e+07
612004
2.61288e+07
4.70467e+07
130960
7.137e+07
1782.12
6.20255e+06
2.75839e+07
1.9279e+07
108208
1.99914e+07
126828
4.54812e+06
8.41917e+06
6.53104e+06
7.97577e+06
3.30953e+07
3.71827e+07
1.55068e+07
1.02459e+07
2.67969e+07
105887
5840.11
1.61969e+07
7.68035e+07
6.19127e+07
85364.4
1.43572e+07
6.95589e+07
52344.9
2.78384e+07
5.30747e+07
3.7441e+07
1.82971e+07
5.13656e+06
6.79817e+06
1.82626e+07
6.87656e+07
1.14452e+06
654072
2.60846e+07
96969.4
4.47299e+06
38152.7
2.80477e+07
2.01673e+07
7.47643e+07
7.25224e+06
438.895
10899.4
3.15718e+07
2.4278e+07
2.97749e+07
3.47563e+07
4.83232e+07
49239.4
2.09573e+06
4240.67
5.76889e+07
5.08902e+07
1.02192e+07
1.57218e+07
2.88936e+07
9.13078e+07
913556
4.11324e+06
2.91344e+07
7.60966e+07
2.45664e+07
6.11356e+06
6.86793e+07
333.176
6.25257e+07
4.26528e+07
8.46862e+06
2.36103e+07
3.82821e+07
3.61089e+07
1.72936e+07
3.86414e+07
7.94791e+06
157054
5.43299e+07
220353
5.63576e+07
2.62456e+07
3.18184e+06
4.73746e+07
6.84573e+07
1.61043e+07
8.02342e+06
5.5273e+07
117931
4.70236e+06
17166.4
24739.9
450270
6.07344e+07
1.67454e+07
1.58762e+07
4.37296e+07
4.96467e+07
2.50526e+07
4.63908e+06
4.91394e+07
2.49531e+07
3.94971e+07
1963.62
18472.9
2.78049e+06
6.82617e+07
8.23266e+06
6.60359e+06
1.68854e+07
7.34073e+07
4.79377e+07
8182.61
6.77714e+07
2.75453e+07
4.59062e+06
3.37087e+07
7.01815e+07
6.06608e+06
157302
3.88511e+07
3.24976e+07
1.8229e+07
1.33748e+07
8.75866e+07
8.04136e+07
4.76885e+07
3.9826e+07
4.31233e+07
4.86054e+06
8.82062e+07
1.81258e+07
3.91496e+06
1.22169e+07
1.75852e+07
2.7875e+07
2.5772e+07
1.62664e+07
8.74373e+07
4.19182e+07
4.18054e+07
6.42722e+07
2.20606e+06
1.48871e+06
5.0184e+07
2.68462e+07
3.38446e+07
120041
45302.7
2.87717e+07
2.16386e+07
4.61879e+07
1.1238e+06
129213
608946
2.08233e+07
1.82132e+07
7.61331e+07
2.5473e+07
3.56053e+07
16947.4
5.21937e+07
5.40104e+06
61699.6
7.62194e+07
2.02534e+06
9.16486e+07
3.42768e+07
1.64267e+07
7.4984e+07
1.35182e+06
5.08588e+07
5.08955e+07
4.84651e+06
6.3142e+07
3.80548e+07
6.56861e+07
5.30174e+07
4.55527e+07
4.55318e+07
5.2997e+07
5.2736e+07
9.53397e+07
2.43275e+07
2.44895e+07
8.07101e+07
5.8003e+07
5.8074e+07
8.04557e+07
675534
220839
5.66042e+07
7.22403e+06
4.84434e+07
4.83978e+07
8.63308e+07
5.21366e+06
2.59978e+07
3.68495e+07
2.24389e+07
1.05707e+07
1.78801e+07
16530.4
8.85009e+06
2.76076e+07
1.80111e+07
3.84715e+06
2.50293e+07
5.97773e+07
8.27128e+07
3.21716e+07
3.7944e+07
1.91041e+07
8.2942e+07
8.24758e+07
2.28758e+06
4.68215e+07
3.24834e+07
1.87158e+07
4.07376e+07
3.815e+07
1.2464e+07
3.98052e+06
21899.3
8.4774e+07
4.28643e+07
6.89218e+07
6.03126e+07
3.98297e+07
3.98089e+07
14012.2
3520.74
3.96642e+07
3.21688e+07
4.25382e+07
5.75168e+07
48893
8.47708e+07
2.78714e+07
5.95666e+06
2.64289e+07
1.46281e+07
2.07924e+07
7.71204e+07
4.1164e+07
5.08689e+07
6.03595e+07
4.36092e+07
4.8718e+06
1.60402e+07
5.68419e+07
5.29374e+06
1.61e+07
1.79586e+07
7.8645e+07
40109.7
593902
5.78153e+07
7.10062e+06
2.86967e+07
4.51256e+07
58416.4
8.46676e+06
8.82393e+07
6.20473e+07
1.88393e+07
1.3068e+07
2.62076e+07
3.34481e+06
3.28292e+06
3.41516e+07
7.79633e+07
6.92102e+06
9.00325e+07
8.97379e+07
214194
22963.1
17601.2
2.88556e+07
7.99181e+07
2.02969e+06
1.36279e+07
1.32876e+07
2.78515e+07
1.6767e+07
1.16076e+07
976104
3.09884e+07
647611
2.54241e+07
2.54143e+07
3.00453e+07
4.90433e+07
7.33035e+06
5.50149e+07
4.0546e+06
4.81089e+06
4.56294e+07
2.62319e+07
3.05346e+07
5.49512e+07
1.30309e+07
2.9809e+07
2.52271e+07
2.32672e+07
133762
8.16094e+07
231780
1.0656e+06
6.24385e+07
8.87847e+07
345047
3.64954e+07
3.81484e+07
2.74834e+07
9.6377e+06
19791.6
962608
53577.6
3.25273e+07
1.69821e+06
1.73732e+07
2.16501e+07
8.8779e+06
4.70271e+07
124812
5.46342e+07
3.83897e+07
6.39768e+07
6.39575e+07
7.063e+06
5.64997e+07
7.44672e+07
5.40702e+07
1.73819e+07
2.16381e+07
23803.4
5.55567e+07
4.62217e+07
1.78848e+07
3.07787e+07
6.02411e+07
5.61469e+07
8.28566e+07
2.79814e+07
7.51685e+07
4540.99
1.93389e+07
3.6041e+07
9807.46
329414
3.60824e+07
797965
23449.8
1.00992e+07
1.62875e+07
9.95863e+06
5.89419e+07
2.41281e+07
1.11134e+07
825944
4.16223e+07
5.61215e+07
3.74199e+07
5.22732e+07
6.65211e+07
6.273e+06
1.54861e+07
1.42188e+07
2.6971e+07
1.5375e+07
1.41315e+07
2.21343e+07
2.84531e+07
2.8539e+07
5.22e+07
1.41501e+07
7.87785e+07
9.27184e+07
1.24764e+07
4.25605e+07
3.62865e+07
2482.52
4.95799e+06
8.1087e+06
5.85702e+06
1.10689e+07
2.78418e+06
406836
2.72441e+07
1.66143e+06
9.55314e+06
1.02654e+08
577076
1.92617e+07
4.9817e+07
1.15423e+06
971732
3447.02
621405
7.29731e+07
6.66056e+06
43919.8
9.44596e+06