/*--------------------------------*- C++ -*----------------------------------*\
| =========                 |                                                 |
| \\      /  F ield         | OpenFOAM: The Open Source CFD Toolbox           |
|  \\    /   O peration     | Version:  v3.0+                                 |
|   \\  /    A nd           | Web:      www.OpenFOAM.com                      |
|    \\/     M anipulation  |                                                 |
\*---------------------------------------------------------------------------*/
FoamFile
{
    version     2.0;
    format      ascii;
    class       volVectorField;
    location    "10000";
    object      D;
}
// * * * * * * * * * * * * * * * * * * * * * * * * * * * * * * * * * * * * * //

dimensions      [0 1 0 0 0 0 0];

internalField   nonuniform List<vector> 
27023
(
(7.33797e-07 2.10778e-07 0)
(-7.34164e-07 2.10775e-07 0)
(-5.8876e-07 1.55861e-07 0)
(5.88455e-07 1.55835e-07 0)
(7.23572e-07 2.03493e-07 0)
(-7.23936e-07 2.03496e-07 0)
(-2.64316e-06 1.99287e-06 0)
(2.64244e-06 1.99293e-06 0)
(-3.41743e-07 9.24164e-08 0)
(3.41514e-07 9.22766e-08 0)
(-1.89505e-06 1.1364e-06 0)
(1.89438e-06 1.13652e-06 0)
(-7.99058e-08 6.7405e-08 0)
(7.98397e-08 6.71742e-08 0)
(1.40104e-06 4.69878e-06 0)
(-5.93133e-08 5.20437e-07 0)
(-7.32347e-08 4.91104e-07 0)
(2.74056e-06 4.18839e-06 0)
(-2.74133e-06 4.18838e-06 0)
(-1.93358e-06 3.66048e-06 0)
(1.93282e-06 3.66049e-06 0)
(-2.66686e-06 2.02142e-06 0)
(2.66613e-06 2.02148e-06 0)
(-1.69136e-06 1.68511e-06 0)
(1.69062e-06 1.68516e-06 0)
(-3.68576e-07 3.18866e-06 0)
(1.1532e-06 1.14418e-06 0)
(-1.02783e-06 8.03708e-05 0)
(1.17935e-06 1.17116e-06 0)
(-3.9249e-06 2.13324e-05 0)
(-6.97158e-07 3.40937e-06 0)
(-1.97546e-06 3.70184e-06 0)
(1.9747e-06 3.70185e-06 0)
(2.67828e-06 6.92848e-06 0)
(1.41912e-06 4.77312e-06 0)
(-2.66694e-06 1.07594e-05 0)
(-1.61809e-06 2.82003e-06 0)
(1.61734e-06 2.82006e-06 0)
(-3.51413e-07 9.45456e-08 0)
(3.51212e-07 9.44341e-08 0)
(5.77409e-07 1.52403e-07 0)
(-5.77709e-07 1.52432e-07 0)
(2.43524e-06 2.09949e-05 0)
(7.38087e-07 2.10161e-07 0)
(-7.38456e-07 2.10161e-07 0)
(-2.77917e-06 4.2378e-06 0)
(2.77841e-06 4.23781e-06 0)
(-1.74704e-06 2.33209e-06 0)
(1.7463e-06 2.33212e-06 0)
(-2.52879e-06 1.07838e-05 0)
(-1.7098e-06 2.31193e-06 0)
(1.70906e-06 2.31196e-06 0)
(2.74815e-06 7.01945e-06 0)
(-6.91698e-08 3.25861e-08 0)
(6.9073e-08 3.24133e-08 0)
(-2.96595e-06 6.83861e-06 0)
(-3.08315e-06 2.80125e-05 0)
(-1.26702e-05 0.000112033 0)
(1.42725e-06 1.09436e-05 0)
(-5.83532e-07 1.54549e-07 0)
(5.83231e-07 1.5453e-07 0)
(-3.62036e-06 2.12216e-05 0)
(-1.96566e-07 4.29755e-06 0)
(-1.46765e-06 7.66361e-05 0)
(2.67482e-06 2.12313e-05 0)
(-6.52441e-07 3.40069e-06 0)
(-1.84873e-06 4.21113e-06 0)
(-4.06745e-07 3.1792e-06 0)
(1.13133e-06 7.20317e-07 0)
(1.5728e-06 1.09389e-05 0)
(-1.5837e-06 2.82636e-06 0)
(1.58294e-06 2.82639e-06 0)
(-2.27807e-06 2.18708e-06 0)
(2.27733e-06 2.18712e-06 0)
(-3.87651e-06 4.01788e-06 0)
(3.87575e-06 4.01789e-06 0)
(-4.51073e-08 4.79409e-08 0)
(4.50689e-08 4.77427e-08 0)
(3.21841e-06 2.681e-06 0)
(-3.21916e-06 2.68097e-06 0)
(1.00952e-06 2.08986e-06 0)
(-1.88065e-06 1.12851e-06 0)
(1.87997e-06 1.12863e-06 0)
(-2.25657e-06 2.19591e-06 0)
(2.25583e-06 2.19596e-06 0)
(4.24045e-06 4.27531e-06 0)
(-4.24122e-06 4.27531e-06 0)
(1.84977e-06 4.20522e-06 0)
(-1.37102e-07 8.13763e-05 0)
(1.74267e-05 0.000253326 0)
(-1.69045e-05 0.000253181 0)
(-8.06618e-07 2.2873e-07 0)
(8.06216e-07 2.28729e-07 0)
(-6.69047e-07 5.50399e-07 0)
(1.30367e-07 5.15852e-08 0)
(1.63243e-06 1.51637e-06 0)
(-1.63318e-06 1.51631e-06 0)
(1.03039e-06 2.06776e-06 0)
(1.85199e-06 1.63207e-05 0)
(-3.36517e-08 1.30773e-05 0)
(3.66246e-06 2.32106e-05 0)
(1.75158e-05 0.000256978 0)
(-1.66663e-05 0.000257077 0)
(-2.36904e-06 1.85085e-06 0)
(2.36832e-06 1.85092e-06 0)
(-2.08815e-07 1.29911e-05 0)
(-2.65012e-06 2.14008e-06 0)
(2.64939e-06 2.14013e-06 0)
(-2.98272e-06 6.76088e-06 0)
(-1.35535e-05 0.000113491 0)
(-2.74464e-06 2.8353e-05 0)
(-2.6415e-06 2.1514e-06 0)
(2.64076e-06 2.15145e-06 0)
(-1.65716e-06 1.6552e-06 0)
(1.65642e-06 1.65526e-06 0)
(-3.89347e-06 4.0716e-06 0)
(3.89271e-06 4.07161e-06 0)
(-6.27442e-07 2.51333e-08 0)
(1.05692e-06 3.46673e-07 0)
(1.16489e-06 3.16907e-06 0)
(-1.13825e-06 5.55976e-06 0)
(-1.44606e-07 4.2862e-06 0)
(1.81937e-06 1.02073e-06 0)
(-1.81998e-06 1.02063e-06 0)
(-2.84943e-06 2.17684e-06 0)
(2.84869e-06 2.17689e-06 0)
(-8.09443e-07 2.25996e-07 0)
(8.09038e-07 2.25993e-07 0)
(-2.3427e-06 1.81905e-06 0)
(2.34197e-06 1.81912e-06 0)
(1.62448e-06 1.61712e-05 0)
(1.22186e-08 2.47646e-08 0)
(-1.20571e-08 2.41812e-08 0)
(6.86245e-07 3.51781e-06 0)
(-1.06885e-06 5.57398e-06 0)
(4.27024e-06 4.32899e-06 0)
(-4.27101e-06 4.32898e-06 0)
(-3.51705e-07 1.79069e-06 0)
(-2.67115e-06 3.78092e-06 0)
(2.67039e-06 3.78093e-06 0)
(2.40272e-06 1.70865e-06 0)
(-2.40344e-06 1.70856e-06 0)
(2.38848e-07 1.97284e-06 0)
(-2.55955e-06 1.91172e-06 0)
(2.55882e-06 1.91179e-06 0)
(6.88695e-07 3.56969e-06 0)
(2.58115e-06 2.96449e-05 0)
(-1.37673e-06 9.26696e-07 0)
(-1.89546e-06 4.2432e-06 0)
(-1.13127e-06 4.2524e-07 0)
(1.13079e-06 4.25285e-07 0)
(-1.32957e-06 5.3763e-07 0)
(1.32902e-06 5.37686e-07 0)
(2.8522e-06 1.69082e-05 0)
(1.2098e-06 3.16152e-06 0)
(1.29426e-05 0.000150849 0)
(-1.28486e-05 0.000150792 0)
(-1.46531e-06 4.81584e-06 0)
(-2.67437e-06 3.73975e-06 0)
(2.67361e-06 3.73977e-06 0)
(5.05528e-06 1.38249e-05 0)
(3.0559e-06 2.97137e-05 0)
(9.62869e-06 4.78354e-05 0)
(-3.53571e-07 1.19842e-05 0)
(1.5297e-06 7.1653e-07 0)
(-1.53028e-06 7.16454e-07 0)
(2.23469e-06 1.53275e-06 0)
(-2.2354e-06 1.53266e-06 0)
(7.49208e-07 2.16147e-06 0)
(-7.61608e-08 2.11545e-06 0)
(-1.50318e-06 7.54522e-05 0)
(3.19102e-06 2.64708e-06 0)
(-3.19177e-06 2.64705e-06 0)
(1.06153e-05 0.000151302 0)
(-1.05359e-05 0.000151212 0)
(7.6469e-06 8.2085e-05 0)
(-2.31491e-07 1.18948e-05 0)
(2.48069e-07 1.94322e-06 0)
(6.4224e-06 8.22237e-05 0)
(-3.81979e-07 1.76946e-06 0)
(1.89802e-06 4.2372e-06 0)
(2.37823e-06 1.69405e-06 0)
(-2.37894e-06 1.69397e-06 0)
(3.49438e-06 2.3553e-05 0)
(3.21986e-06 6.28485e-06 0)
(3.31042e-06 6.29059e-06 0)
(1.60019e-06 1.51369e-06 0)
(-1.60093e-06 1.51364e-06 0)
(9.34287e-06 4.84163e-05 0)
(2.75375e-06 3.99268e-05 0)
(2.21698e-06 1.50882e-06 0)
(-2.21768e-06 1.50872e-06 0)
(9.24002e-07 1.72317e-06 0)
(-3.34273e-07 7.47469e-06 0)
(-2.84644e-06 2.18768e-06 0)
(2.8457e-06 2.18773e-06 0)
(7.59345e-06 2.33661e-05 0)
(2.10446e-06 1.36016e-06 0)
(-2.10515e-06 1.36005e-06 0)
(1.03317e-06 3.39002e-07 0)
(-1.52631e-06 4.84735e-06 0)
(1.11206e-06 7.36163e-07 0)
(-4.40451e-06 5.08112e-06 0)
(4.40374e-06 5.08112e-06 0)
(7.23108e-07 2.01207e-07 0)
(-7.23474e-07 2.01212e-07 0)
(9.74919e-07 3.01082e-06 0)
(5.48749e-06 1.33456e-05 0)
(-4.33228e-06 5.0329e-06 0)
(4.33151e-06 5.0329e-06 0)
(-4.46633e-10 1.04304e-08 0)
(4.43733e-10 1.03816e-08 0)
(-6.29139e-07 5.28721e-07 0)
(1.01747e-06 3.02959e-06 0)
(3.68568e-07 1.03923e-07 0)
(-3.6876e-07 1.041e-07 0)
(1.05939e-06 1.67115e-06 0)
(-1.04567e-07 2.09411e-06 0)
(-9.85129e-07 4.88677e-05 0)
(3.4776e-06 3.27754e-06 0)
(-3.47836e-06 3.27752e-06 0)
(2.96593e-06 4.06091e-05 0)
(1.83678e-06 1.03747e-06 0)
(-1.83739e-06 1.03737e-06 0)
(2.82511e-06 1.71553e-05 0)
(-3.11844e-06 3.19748e-06 0)
(3.11768e-06 3.1975e-06 0)
(-2.21734e-06 1.97863e-06 0)
(2.21661e-06 1.97869e-06 0)
(-1.96436e-07 7.00685e-08 0)
(1.96305e-07 6.98951e-08 0)
(-2.84738e-06 0.000114963 0)
(-3.22621e-06 3.26143e-06 0)
(3.22546e-06 3.26145e-06 0)
(4.89027e-06 1.36269e-05 0)
(-3.53404e-06 3.91079e-06 0)
(3.53327e-06 3.9108e-06 0)
(-6.06057e-06 8.51001e-06 0)
(-2.01591e-06 6.15933e-06 0)
(2.7059e-06 2.01617e-06 0)
(-2.70663e-06 2.0161e-06 0)
(-1.16495e-06 8.79199e-07 0)
(-8.67322e-06 3.36262e-05 0)
(-4.30876e-06 9.7384e-06 0)
(2.37194e-06 5.2443e-06 0)
(-6.61827e-07 3.33295e-07 0)
(8.81864e-08 2.81221e-05 0)
(1.05768e-06 1.02063e-06 0)
(-5.37988e-06 2.00385e-05 0)
(2.41189e-06 5.32005e-06 0)
(2.97117e-06 2.49074e-06 0)
(-2.97191e-06 2.4907e-06 0)
(2.1521e-06 1.54713e-05 0)
(5.61193e-07 8.93756e-07 0)
(7.64379e-06 2.43354e-05 0)
(5.47513e-06 1.35302e-05 0)
(-5.10428e-06 8.6348e-06 0)
(5.6736e-06 1.64795e-05 0)
(-2.20383e-06 3.82253e-06 0)
(2.20306e-06 3.82254e-06 0)
(-5.56183e-07 -9.00236e-09 0)
(-1.40616e-07 1.48375e-06 0)
(-1.20755e-05 6.2696e-05 0)
(-3.57899e-06 3.89981e-06 0)
(3.57822e-06 3.89982e-06 0)
(-2.58389e-06 1.93725e-06 0)
(2.58317e-06 1.93732e-06 0)
(-3.97003e-07 4.9665e-06 0)
(4.44144e-07 8.86318e-07 0)
(-1.80043e-06 9.92863e-07 0)
(1.79982e-06 9.92966e-07 0)
(-6.42229e-06 4.44652e-05 0)
(1.03408e-06 4.08326e-06 0)
(2.96467e-06 9.6272e-06 0)
(-1.04501e-06 1.89078e-05 0)
(-2.8688e-07 7.57488e-06 0)
(1.54608e-06 7.31966e-07 0)
(-1.54666e-06 7.31888e-07 0)
(2.29756e-06 4.183e-06 0)
(-2.29833e-06 4.18299e-06 0)
(-6.90344e-06 3.42476e-05 0)
(3.76279e-06 9.91932e-06 0)
(-1.29971e-05 0.000273708 0)
(1.28807e-05 0.000273427 0)
(5.18913e-09 4.23288e-08 0)
(-5.16462e-09 4.2529e-08 0)
(1.37274e-06 8.51471e-06 0)
(2.23802e-06 1.1319e-05 0)
(-3.67292e-07 3.05708e-07 0)
(-1.21914e-06 4.53468e-07 0)
(-3.62913e-06 0.000226499 0)
(1.49274e-06 8.65318e-06 0)
(2.92888e-06 2.91953e-06 0)
(-2.92963e-06 2.9195e-06 0)
(3.94166e-06 3.89179e-06 0)
(-3.94242e-06 3.89178e-06 0)
(4.83705e-06 1.97175e-05 0)
(-4.2855e-06 8.89192e-06 0)
(4.21617e-06 4.70996e-06 0)
(-4.21694e-06 4.70996e-06 0)
(-7.20796e-08 7.59421e-08 0)
(-2.41967e-07 5.71402e-07 0)
(2.30481e-06 1.66887e-06 0)
(-2.30552e-06 1.66879e-06 0)
(3.02758e-07 -1.01193e-08 0)
(-5.26526e-07 1.21265e-07 0)
(5.26243e-07 1.21194e-07 0)
(-1.08204e-06 1.66361e-06 0)
(-1.57931e-06 5.27788e-06 0)
(6.55929e-07 2.70971e-05 0)
(-7.66327e-07 6.86903e-05 0)
(-9.73779e-09 3.92922e-08 0)
(9.76815e-09 3.90964e-08 0)
(-2.41603e-07 5.471e-08 0)
(2.41455e-07 5.45817e-08 0)
(-4.11511e-06 1.78422e-05 0)
(1.89539e-06 3.01838e-06 0)
(-1.89615e-06 3.01836e-06 0)
(-6.49612e-08 3.15862e-06 0)
(-1.76649e-06 6.54466e-06 0)
(-1.17882e-07 8.22595e-08 0)
(1.1777e-07 8.19704e-08 0)
(1.272e-06 1.24135e-06 0)
(7.87491e-07 1.8207e-07 0)
(6.22248e-07 2.76129e-08 0)
(-2.1058e-06 8.56076e-06 0)
(7.005e-06 1.56299e-05 0)
(-4.7055e-07 4.98683e-06 0)
(-1.3389e-06 9.0512e-07 0)
(1.50803e-06 8.58536e-07 0)
(6.14709e-07 1.34756e-06 0)
(-1.50855e-06 8.58943e-07 0)
(8.09447e-06 1.68611e-05 0)
(-1.25959e-07 5.19959e-08 0)
(-3.79334e-06 1.77915e-05 0)
(9.8153e-07 3.40547e-07 0)
(-9.81972e-07 3.40516e-07 0)
(6.98575e-07 3.24682e-06 0)
(-3.28061e-07 6.01856e-07 0)
(-2.43341e-06 2.05522e-06 0)
(2.43268e-06 2.05528e-06 0)
(1.11577e-05 4.24081e-05 0)
(-1.12041e-05 4.24177e-05 0)
(-7.40321e-10 1.01973e-08 0)
(7.36096e-10 1.01493e-08 0)
(1.06647e-06 7.1709e-07 0)
(-7.65269e-07 2.33187e-07 0)
(7.64896e-07 2.33202e-07 0)
(4.01337e-06 3.91627e-05 0)
(-5.86035e-07 4.53673e-06 0)
(7.88618e-06 3.75879e-05 0)
(-7.88699e-06 3.7588e-05 0)
(-3.27959e-06 3.28283e-06 0)
(3.27883e-06 3.28285e-06 0)
(-5.18188e-08 2.93512e-08 0)
(5.17579e-08 2.91905e-08 0)
(-1.94609e-07 1.05334e-07 0)
(3.13429e-06 2.66043e-06 0)
(-3.13504e-06 2.6604e-06 0)
(3.93124e-07 1.00407e-05 0)
(1.18935e-06 4.99291e-07 0)
(4.09034e-06 4.75597e-06 0)
(-4.09111e-06 4.75596e-06 0)
(2.27401e-06 1.51255e-06 0)
(-2.27471e-06 1.51245e-06 0)
(-4.99761e-06 0.000111303 0)
(3.7115e-06 1.74448e-05 0)
(2.02672e-07 6.8012e-07 0)
(9.11852e-07 2.85167e-07 0)
(-9.12282e-07 2.85152e-07 0)
(3.23309e-06 2.77429e-06 0)
(-3.23384e-06 2.77426e-06 0)
(5.54001e-07 3.06383e-07 0)
(3.13513e-06 5.75181e-06 0)
(6.07936e-07 1.67382e-08 0)
(4.0586e-06 8.68318e-06 0)
(3.13292e-06 5.82912e-06 0)
(1.29013e-06 1.85337e-06 0)
(9.35098e-06 6.53092e-05 0)
(-1.4781e-06 2.5126e-06 0)
(-1.68788e-06 6.48978e-06 0)
(1.47736e-06 2.5126e-06 0)
(-2.7133e-06 2.07919e-06 0)
(2.71257e-06 2.07924e-06 0)
(1.0552e-06 1.08294e-06 0)
(-4.78934e-07 2.06848e-06 0)
(-3.18275e-06 3.90949e-05 0)
(5.95385e-06 1.66842e-05 0)
(1.43381e-06 9.38975e-07 0)
(7.82341e-08 -1.25181e-07 0)
(9.79519e-07 8.19762e-07 0)
(-6.96472e-06 0.000226772 0)
(-1.19034e-06 4.99403e-07 0)
(-5.60923e-06 0.000251743 0)
(-3.4705e-08 4.61218e-07 0)
(6.5112e-07 1.0892e-05 0)
(-2.03955e-06 5.90892e-06 0)
(-2.7116e-06 2.54811e-05 0)
(6.81006e-06 1.14626e-05 0)
(2.22488e-06 5.92131e-06 0)
(-2.19938e-06 1.9891e-06 0)
(2.19864e-06 1.98916e-06 0)
(-7.69669e-07 4.00917e-07 0)
(9.36229e-07 1.69333e-06 0)
(-2.24999e-06 6.86245e-05 0)
(9.43773e-07 2.95561e-07 0)
(-9.44217e-07 2.95545e-07 0)
(-2.03974e-08 2.55575e-06 0)
(-9.9381e-07 4.70002e-06 0)
(1.47351e-06 1.30444e-06 0)
(-1.00378e-07 3.16886e-06 0)
(-1.47206e-06 1.30423e-06 0)
(-1.77253e-09 3.08007e-08 0)
(1.7748e-09 3.06637e-08 0)
(4.20735e-06 6.03261e-05 0)
(-3.09907e-06 7.70538e-06 0)
(-1.06803e-06 3.02795e-07 0)
(-3.21019e-06 5.49999e-06 0)
(-2.23131e-06 8.47936e-06 0)
(2.4685e-06 6.3905e-06 0)
(-6.85515e-07 1.78833e-06 0)
(3.65005e-06 8.54981e-06 0)
(-4.78684e-07 -4.26157e-08 0)
(-2.40774e-07 1.93927e-06 0)
(-1.1084e-06 4.96103e-05 0)
(5.8642e-06 9.97624e-06 0)
(4.04193e-06 4.67982e-06 0)
(-4.0427e-06 4.67982e-06 0)
(7.72176e-06 1.81255e-05 0)
(-7.96747e-07 1.90833e-05 0)
(-1.31157e-05 6.31164e-05 0)
(1.07332e-06 1.64221e-06 0)
(-3.71517e-06 4.23645e-06 0)
(3.7144e-06 4.23646e-06 0)
(2.12595e-06 2.30287e-06 0)
(-2.12669e-06 2.30283e-06 0)
(-3.75192e-06 7.62497e-06 0)
(-1.30984e-07 -1.17087e-07 0)
(-4.19012e-07 1.01343e-07 0)
(4.1879e-07 1.01286e-07 0)
(1.21141e-05 3.80969e-05 0)
(-1.21154e-05 3.80971e-05 0)
(-2.24229e-06 3.32824e-06 0)
(2.24153e-06 3.32826e-06 0)
(-6.91339e-10 1.74588e-08 0)
(6.94102e-10 1.75391e-08 0)
(6.77598e-07 1.72849e-06 0)
(1.00106e-06 9.18396e-06 0)
(2.69459e-06 5.94345e-06 0)
(1.02844e-07 -9.78778e-08 0)
(3.85833e-07 -2.0654e-08 0)
(2.07791e-06 1.30461e-06 0)
(-2.07859e-06 1.3045e-06 0)
(2.10528e-06 1.333e-06 0)
(-2.10596e-06 1.33289e-06 0)
(-2.61911e-06 4.81019e-06 0)
(2.61833e-06 4.81019e-06 0)
(-1.25763e-06 5.0903e-07 0)
(1.25712e-06 5.09085e-07 0)
(4.43711e-07 1.64831e-06 0)
(-3.0379e-08 1.90335e-06 0)
(5.42649e-07 4.00909e-06 0)
(3.19961e-06 8.82817e-06 0)
(-7.74908e-07 1.38305e-06 0)
(-8.89728e-06 3.41412e-05 0)
(1.18798e-06 6.5965e-06 0)
(2.73651e-06 2.05425e-06 0)
(-2.73724e-06 2.05419e-06 0)
(3.50061e-06 9.05418e-06 0)
(-3.90654e-06 3.9068e-05 0)
(-4.55108e-06 8.73903e-05 0)
(-5.11324e-06 1.02484e-05 0)
(-3.6466e-06 7.33713e-06 0)
(1.28211e-06 1.16898e-06 0)
(6.16365e-07 3.1532e-06 0)
(-2.82822e-06 2.71543e-06 0)
(2.82747e-06 2.71546e-06 0)
(6.43314e-06 8.70482e-05 0)
(-6.2263e-06 8.70568e-05 0)
(-5.48301e-07 1.42353e-07 0)
(5.48012e-07 1.42296e-07 0)
(-3.20589e-06 3.27508e-06 0)
(3.20513e-06 3.2751e-06 0)
(-1.13045e-07 3.64024e-06 0)
(-4.68139e-07 1.40672e-06 0)
(6.36979e-07 3.12345e-06 0)
(-5.90543e-07 8.24755e-09 0)
(-9.86675e-06 2.41934e-05 0)
(-6.4933e-06 0.000182976 0)
(1.8514e-06 1.07091e-06 0)
(-1.85206e-06 1.07079e-06 0)
(1.94912e-06 6.29831e-06 0)
(-1.21968e-06 4.46501e-07 0)
(-1.08321e-07 3.69674e-06 0)
(1.90012e-06 3.0595e-06 0)
(-1.90087e-06 3.05948e-06 0)
(-8.50539e-07 2.67549e-07 0)
(8.50135e-07 2.67566e-07 0)
(-9.79962e-07 8.07944e-07 0)
(7.46897e-06 1.81284e-05 0)
(2.3885e-06 6.41935e-06 0)
(8.89056e-07 2.11551e-07 0)
(-8.89538e-07 2.11571e-07 0)
(6.72396e-06 3.49508e-05 0)
(2.52986e-07 6.35277e-07 0)
(-1.55889e-06 2.37906e-06 0)
(1.55815e-06 2.37909e-06 0)
(1.26149e-06 1.81903e-06 0)
(-2.30758e-06 1.52944e-06 0)
(2.30689e-06 1.52954e-06 0)
(-1.94097e-06 1.18562e-06 0)
(1.94029e-06 1.18573e-06 0)
(1.44644e-06 1.04982e-06 0)
(1.63515e-06 8.37798e-07 0)
(-1.63572e-06 8.37712e-07 0)
(1.38355e-06 6.20757e-06 0)
(3.25385e-06 1.51566e-05 0)
(-3.51109e-06 4.21425e-06 0)
(3.51033e-06 4.21426e-06 0)
(3.21017e-06 5.50172e-06 0)
(3.97608e-06 4.45096e-06 0)
(-3.97685e-06 4.45096e-06 0)
(-7.5332e-06 3.41409e-05 0)
(2.65559e-06 2.49603e-06 0)
(-2.65633e-06 2.49599e-06 0)
(2.34736e-06 4.21731e-06 0)
(-2.34813e-06 4.2173e-06 0)
(5.80646e-07 3.58864e-06 0)
(-1.37429e-06 6.40624e-07 0)
(1.37376e-06 6.40689e-07 0)
(1.19425e-05 7.98331e-05 0)
(6.66624e-07 1.10701e-05 0)
(4.28634e-07 3.56666e-06 0)
(5.05494e-07 2.08222e-06 0)
(-1.8408e-06 1.54832e-06 0)
(1.84006e-06 1.54839e-06 0)
(3.10156e-06 2.66309e-06 0)
(-3.10231e-06 2.66306e-06 0)
(2.06526e-06 6.31608e-06 0)
(7.60182e-06 2.30464e-05 0)
(-1.29091e-06 1.85351e-06 0)
(-4.18467e-07 4.02127e-05 0)
(1.31689e-06 9.31153e-07 0)
(1.29317e-06 1.14108e-06 0)
(-6.45603e-06 8.53002e-05 0)
(4.10511e-07 9.84369e-08 0)
(-4.1073e-07 9.84962e-08 0)
(8.97788e-06 2.36139e-05 0)
(3.96591e-06 3.94386e-06 0)
(-3.96668e-06 3.94386e-06 0)
(-7.05712e-06 4.50286e-05 0)
(-1.44198e-07 3.52932e-06 0)
(2.43802e-06 2.08408e-06 0)
(-2.43875e-06 2.08402e-06 0)
(1.18034e-06 4.79908e-07 0)
(7.77239e-06 3.80854e-05 0)
(-7.77323e-06 3.80855e-05 0)
(-4.12921e-08 2.58553e-06 0)
(-1.0554e-07 -1.39166e-07 0)
(1.72807e-06 1.82777e-05 0)
(1.09538e-06 1.09831e-06 0)
(1.76096e-06 6.0923e-06 0)
(-1.56882e-06 2.34374e-06 0)
(1.56808e-06 2.34376e-06 0)
(5.04542e-06 1.99815e-05 0)
(1.72287e-08 3.99402e-07 0)
(-2.80527e-06 3.37527e-06 0)
(2.80452e-06 3.37528e-06 0)
(-8.41617e-07 5.43119e-06 0)
(1.94901e-06 3.79865e-06 0)
(-1.94977e-06 3.79864e-06 0)
(6.91609e-07 5.2043e-06 0)
(-9.2258e-07 3.17572e-07 0)
(9.22159e-07 3.17601e-07 0)
(2.09139e-06 1.35686e-06 0)
(-2.09208e-06 1.35675e-06 0)
(1.03351e-06 3.94779e-07 0)
(-1.03396e-06 3.94735e-07 0)
(-4.58545e-06 1.58411e-05 0)
(1.15074e-06 1.64833e-06 0)
(-1.15434e-06 1.64884e-06 0)
(-5.35278e-06 1.97153e-05 0)
(1.17097e-06 4.55797e-07 0)
(-1.17147e-06 4.55747e-07 0)
(2.60631e-06 1.13082e-05 0)
(-5.27906e-07 7.59485e-07 0)
(7.201e-07 2.18299e-06 0)
(3.26832e-06 7.72992e-06 0)
(-9.99136e-08 3.17198e-07 0)
(1.61306e-07 3.61651e-08 0)
(5.55829e-07 3.36052e-07 0)
(5.92909e-06 9.87082e-06 0)
(-1.62031e-06 1.65821e-06 0)
(1.61957e-06 1.65826e-06 0)
(-9.81392e-06 7.46248e-05 0)
(-1.61499e-06 1.69958e-06 0)
(1.61425e-06 1.69963e-06 0)
(1.35696e-05 0.000120114 0)
(2.19138e-06 2.137e-06 0)
(-2.19211e-06 2.13695e-06 0)
(5.96058e-07 4.0371e-06 0)
(2.7897e-07 1.01005e-05 0)
(1.98671e-06 3.76306e-06 0)
(-1.98747e-06 3.76305e-06 0)
(-3.58729e-06 4.12473e-06 0)
(3.58652e-06 4.12474e-06 0)
(-4.28554e-06 9.01361e-06 0)
(-8.48538e-07 1.63687e-06 0)
(-1.21518e-06 9.51286e-07 0)
(-2.48401e-06 2.74619e-06 0)
(2.48327e-06 2.74622e-06 0)
(-3.46356e-06 3.3899e-06 0)
(3.4628e-06 3.38992e-06 0)
(-4.0685e-06 2.82947e-05 0)
(1.30858e-06 6.25996e-06 0)
(-1.24505e-05 0.000278434 0)
(1.22509e-05 0.000278068 0)
(-1.31946e-06 2.45745e-06 0)
(1.31863e-06 2.45738e-06 0)
(1.37189e-05 0.00011236 0)
(3.13037e-09 3.44405e-09 0)
(9.7525e-10 1.41615e-09 0)
(-9.79962e-10 1.42291e-09 0)
(-3.14543e-09 3.46051e-09 0)
(2.0685e-06 1.57216e-05 0)
(-7.73407e-08 6.93899e-08 0)
(7.72533e-08 6.91552e-08 0)
(1.15493e-06 4.26834e-07 0)
(-1.15542e-06 4.26789e-07 0)
(7.91472e-07 2.25033e-07 0)
(-7.91866e-07 2.25033e-07 0)
(-9.29425e-07 3.23377e-07 0)
(9.29002e-07 3.23408e-07 0)
(-2.34424e-07 1.13713e-06 0)
(-1.99573e-06 1.90089e-06 0)
(1.99499e-06 1.90095e-06 0)
(2.80936e-06 6.77686e-06 0)
(7.29208e-06 9.34292e-05 0)
(1.88936e-06 1.83171e-06 0)
(-1.89009e-06 1.83165e-06 0)
(1.67516e-06 6.0706e-06 0)
(-2.31796e-06 2.55545e-06 0)
(2.31722e-06 2.55549e-06 0)
(2.26776e-06 7.00604e-06 0)
(1.31562e-06 3.87508e-06 0)
(-3.65104e-06 7.43914e-06 0)
(9.91547e-07 3.67844e-07 0)
(-9.91984e-07 3.67805e-07 0)
(-3.25757e-06 6.25107e-06 0)
(-2.63993e-07 7.77396e-06 0)
(9.3165e-09 2.13795e-06 0)
(4.67441e-06 3.97345e-05 0)
(2.67986e-06 2.49101e-06 0)
(-2.6806e-06 2.49097e-06 0)
(2.47994e-07 -4.01813e-09 0)
(-1.41765e-06 9.96669e-07 0)
(3.19082e-06 2.74104e-06 0)
(-3.19157e-06 2.74101e-06 0)
(-2.34378e-10 1.49484e-08 0)
(2.35284e-10 1.50163e-08 0)
(-2.57218e-06 4.84566e-06 0)
(2.57141e-06 4.84567e-06 0)
(-6.63595e-06 3.49338e-05 0)
(1.09654e-06 2.66718e-05 0)
(-3.66079e-06 3.25662e-06 0)
(3.66003e-06 3.25664e-06 0)
(1.11608e-06 1.85573e-06 0)
(1.44254e-06 9.20314e-07 0)
(-1.91413e-07 -1.35284e-07 0)
(-1.37346e-05 0.000211526 0)
(-1.18349e-06 4.81753e-07 0)
(-1.67203e-06 4.60719e-06 0)
(-1.47568e-06 1.05949e-05 0)
(7.94213e-08 7.94167e-08 0)
(5.33499e-07 2.06026e-06 0)
(3.79005e-06 8.61777e-06 0)
(-1.09325e-06 3.43649e-07 0)
(-3.09882e-06 6.76981e-06 0)
(3.84587e-06 1.00959e-05 0)
(7.67379e-07 1.86998e-07 0)
(6.691e-06 8.53918e-05 0)
(-1.14419e-08 4.13521e-08 0)
(1.14705e-08 4.11508e-08 0)
(-2.22039e-06 2.17062e-06 0)
(2.21966e-06 2.17067e-06 0)
(-1.15563e-06 5.06613e-07 0)
(1.42671e-07 2.84512e-06 0)
(1.29483e-06 6.6052e-06 0)
(2.47061e-06 7.986e-05 0)
(-1.32978e-05 7.94894e-05 0)
(-2.92318e-06 6.52466e-06 0)
(1.45569e-06 1.03269e-06 0)
(2.8309e-07 5.77544e-06 0)
(-1.26081e-05 0.000122291 0)
(1.35018e-05 0.000122073 0)
(4.54429e-07 1.87739e-06 0)
(-7.67587e-07 2.02323e-07 0)
(7.67191e-07 2.0231e-07 0)
(-1.34268e-06 1.13444e-06 0)
(-7.80052e-06 2.16391e-05 0)
(3.73099e-07 5.8288e-06 0)
(5.6608e-06 4.53886e-05 0)
(-2.86047e-06 2.74168e-06 0)
(2.85973e-06 2.74171e-06 0)
(4.23569e-06 4.78515e-06 0)
(-4.23646e-06 4.78515e-06 0)
(1.22375e-09 3.49979e-08 0)
(-1.19922e-09 3.48307e-08 0)
(4.09646e-07 3.13132e-05 0)
(2.02654e-07 6.48981e-07 0)
(1.28354e-06 4.39531e-06 0)
(1.3776e-07 1.54919e-06 0)
(1.49945e-06 1.83171e-06 0)
(-1.50019e-06 1.83168e-06 0)
(-7.50029e-06 6.94622e-05 0)
(-3.58355e-07 8.70168e-08 0)
(3.58155e-07 8.6931e-08 0)
(3.50366e-06 3.3195e-06 0)
(-3.50441e-06 3.31949e-06 0)
(7.95716e-06 1.83789e-05 0)
(-2.51638e-06 2.42239e-06 0)
(2.51564e-06 2.42243e-06 0)
(4.37283e-07 2.00869e-08 0)
(-3.82632e-06 7.71588e-06 0)
(2.2995e-06 7.60326e-06 0)
(2.72019e-06 2.26845e-05 0)
(-4.97125e-06 1.2566e-05 0)
(-4.34168e-07 8.10625e-06 0)
(-3.48009e-06 4.23591e-06 0)
(3.47932e-06 4.23592e-06 0)
(-8.83989e-06 9.40209e-05 0)
(3.87968e-07 2.53099e-06 0)
(-2.29925e-06 1.54142e-06 0)
(2.29855e-06 1.54152e-06 0)
(2.93016e-06 1.42219e-05 0)
(4.94062e-06 6.90016e-06 0)
(8.787e-07 1.17467e-06 0)
(-4.94144e-06 6.89998e-06 0)
(-6.63165e-07 6.85263e-08 0)
(6.6256e-07 6.81678e-08 0)
(-2.89542e-06 9.10782e-06 0)
(-9.01134e-07 2.27935e-07 0)
(4.0598e-06 1.37815e-05 0)
(2.68827e-08 -5.0142e-08 0)
(2.71365e-06 6.79299e-06 0)
(7.77018e-07 1.95147e-06 0)
(-1.1124e-05 3.13337e-05 0)
(6.18252e-07 3.19626e-06 0)
(-8.72387e-07 1.98504e-07 0)
(8.71902e-07 1.9848e-07 0)
(4.021e-06 4.43297e-06 0)
(-4.02177e-06 4.43296e-06 0)
(-1.33574e-06 6.77158e-06 0)
(-5.7719e-07 2.60251e-05 0)
(2.71426e-06 2.59232e-06 0)
(-2.71501e-06 2.59229e-06 0)
(2.68443e-06 6.01988e-06 0)
(-3.81871e-06 1.61007e-05 0)
(-1.22996e-05 0.000120125 0)
(-6.90204e-07 3.54494e-06 0)
(-4.22208e-06 2.19377e-05 0)
(-7.50143e-07 2.25909e-07 0)
(7.49776e-07 2.25922e-07 0)
(7.16342e-07 5.35574e-06 0)
(-1.58447e-06 1.9369e-06 0)
(1.58373e-06 1.93693e-06 0)
(3.78602e-06 4.05712e-06 0)
(-3.78678e-06 4.05711e-06 0)
(-5.89975e-08 3.70477e-06 0)
(2.17055e-06 7.61484e-06 0)
(1.31266e-07 7.62101e-08 0)
(1.11233e-05 3.13345e-05 0)
(-1.73602e-06 9.49319e-07 0)
(1.73538e-06 9.49434e-07 0)
(-2.43335e-06 9.06272e-06 0)
(-1.26147e-07 1.4476e-06 0)
(1.89156e-06 1.22039e-05 0)
(4.43323e-06 1.2875e-05 0)
(2.34703e-06 1.65956e-05 0)
(1.05373e-06 9.88796e-07 0)
(4.5992e-07 1.7555e-06 0)
(9.6132e-07 4.1135e-07 0)
(-2.09812e-06 6.19388e-06 0)
(-3.78653e-06 3.91318e-06 0)
(3.78577e-06 3.91319e-06 0)
(-1.91237e-06 1.13694e-06 0)
(1.9117e-06 1.13706e-06 0)
(-1.11396e-05 4.97831e-05 0)
(1.09596e-05 4.97331e-05 0)
(5.4378e-07 3.54477e-06 0)
(-1.25933e-07 -1.37597e-07 0)
(-3.65745e-06 3.86461e-06 0)
(3.65668e-06 3.86463e-06 0)
(3.90009e-06 7.51862e-06 0)
(3.78348e-06 8.87662e-06 0)
(-7.43259e-08 4.6253e-06 0)
(2.63096e-06 2.1679e-05 0)
(-4.53183e-06 0.000256246 0)
(-1.64679e-07 9.45971e-08 0)
(1.64584e-07 9.43448e-08 0)
(1.08202e-06 4.08632e-06 0)
(5.16138e-07 5.04765e-06 0)
(-2.53857e-06 1.85385e-06 0)
(2.53785e-06 1.85392e-06 0)
(1.1104e-07 2.0842e-06 0)
(-4.50675e-06 3.96878e-05 0)
(8.12592e-08 -1.38206e-07 0)
(-3.37528e-06 2.90475e-06 0)
(3.37453e-06 2.90478e-06 0)
(9.32131e-07 2.12499e-07 0)
(-9.32654e-07 2.12533e-07 0)
(1.27802e-06 1.45851e-06 0)
(7.31323e-07 1.92459e-07 0)
(-7.31702e-07 1.92475e-07 0)
(2.11112e-06 4.96913e-05 0)
(3.32067e-07 9.19623e-06 0)
(-1.06196e-06 7.90504e-05 0)
(-9.66879e-07 4.06328e-05 0)
(-3.5642e-06 4.15841e-06 0)
(3.56343e-06 4.15842e-06 0)
(1.51402e-06 2.6857e-05 0)
(1.87611e-06 3.16152e-06 0)
(-1.87687e-06 3.1615e-06 0)
(-4.46068e-06 4.92818e-06 0)
(4.4599e-06 4.92818e-06 0)
(1.11393e-06 1.63261e-06 0)
(-1.11456e-06 1.63299e-06 0)
(-1.27102e-06 5.2427e-07 0)
(1.27051e-06 5.24326e-07 0)
(2.36344e-06 1.6333e-06 0)
(-2.36415e-06 1.63321e-06 0)
(-4.47326e-07 3.20714e-06 0)
(5.6287e-06 1.55486e-05 0)
(-2.46278e-06 1.74917e-06 0)
(2.46206e-06 1.74925e-06 0)
(7.36251e-06 2.2373e-05 0)
(1.81127e-07 2.20506e-06 0)
(-1.27388e-06 4.96561e-07 0)
(1.27334e-06 4.96614e-07 0)
(-3.32491e-06 4.48706e-06 0)
(3.32414e-06 4.48707e-06 0)
(1.50186e-06 7.84906e-07 0)
(2.74752e-06 2.60813e-06 0)
(-2.74826e-06 2.60809e-06 0)
(3.80663e-06 3.46765e-06 0)
(-3.80739e-06 3.46764e-06 0)
(-1.50251e-06 7.84785e-07 0)
(-1.62275e-06 8.33619e-06 0)
(-2.11262e-06 6.57415e-06 0)
(-4.08322e-06 8.86865e-05 0)
(-2.81976e-06 3.93838e-06 0)
(2.819e-06 3.93839e-06 0)
(4.82765e-06 6.87902e-06 0)
(-1.6929e-07 1.87536e-06 0)
(-1.32241e-07 7.65952e-08 0)
(-4.82842e-06 6.87883e-06 0)
(-1.00085e-06 2.13671e-06 0)
(-1.33778e-06 1.10312e-06 0)
(2.1735e-06 7.05806e-06 0)
(-1.59677e-06 1.97082e-06 0)
(1.59603e-06 1.97085e-06 0)
(-1.65023e-08 1.8628e-06 0)
(-4.57825e-07 1.79877e-06 0)
(3.01179e-06 8.51256e-06 0)
(-1.08469e-05 3.7908e-05 0)
(1.08458e-05 3.79078e-05 0)
(-2.34315e-06 1.51445e-05 0)
(1.14004e-07 2.86208e-06 0)
(-2.99767e-08 4.52027e-08 0)
(2.99786e-08 4.49995e-08 0)
(1.04785e-06 9.15584e-07 0)
(1.2375e-06 1.21679e-06 0)
(2.40798e-06 1.13988e-05 0)
(-2.5234e-06 1.85191e-06 0)
(2.52267e-06 1.85198e-06 0)
(1.53831e-06 8.74947e-07 0)
(1.14496e-05 8.11345e-05 0)
(1.50406e-06 7.98746e-07 0)
(-3.61537e-06 2.79651e-05 0)
(-1.22354e-06 5.03303e-07 0)
(1.22303e-06 5.03358e-07 0)
(6.00262e-06 1.75779e-05 0)
(-7.51305e-07 1.34748e-06 0)
(-1.53856e-06 8.74926e-07 0)
(2.04026e-05 0.000197247 0)
(-2.03454e-05 0.000197239 0)
(-1.50471e-06 7.98626e-07 0)
(4.36478e-06 1.24494e-05 0)
(-1.29061e-06 5.0799e-07 0)
(1.29007e-06 5.08044e-07 0)
(3.83594e-06 4.7416e-06 0)
(-3.83671e-06 4.74159e-06 0)
(-3.63823e-06 9.42425e-06 0)
(7.21588e-07 2.22374e-06 0)
(-2.32271e-06 8.93538e-06 0)
(-1.99302e-06 1.23902e-06 0)
(1.99234e-06 1.23914e-06 0)
(2.78407e-06 3.15671e-06 0)
(-2.78482e-06 3.15669e-06 0)
(9.81331e-09 7.22319e-07 0)
(3.12357e-06 2.25527e-05 0)
(-2.79796e-06 3.96825e-06 0)
(2.79719e-06 3.96826e-06 0)
(2.67584e-06 9.49422e-06 0)
(-3.44056e-07 1.10743e-07 0)
(3.4387e-07 1.10591e-07 0)
(1.64645e-06 5.70643e-06 0)
(9.24084e-07 1.98141e-07 0)
(-5.25816e-06 8.27816e-06 0)
(4.21599e-06 1.2918e-05 0)
(3.639e-06 9.17443e-06 0)
(7.65132e-06 2.39603e-05 0)
(-1.61184e-06 4.57017e-06 0)
(1.6823e-06 4.46429e-06 0)
(7.40637e-07 7.60593e-06 0)
(-3.50861e-06 3.42564e-06 0)
(3.50786e-06 3.42566e-06 0)
(4.94619e-07 5.04795e-05 0)
(-6.40425e-08 1.04687e-06 0)
(-7.27263e-07 3.51312e-06 0)
(2.40758e-06 7.94834e-06 0)
(1.46741e-06 1.85812e-05 0)
(2.64372e-07 3.96142e-07 0)
(2.08098e-07 2.23382e-06 0)
(-3.677e-06 1.94229e-05 0)
(3.35008e-06 2.59272e-05 0)
(-9.60922e-08 7.51658e-07 0)
(-5.00944e-07 1.50341e-06 0)
(1.0566e-06 9.42749e-07 0)
(-9.98257e-07 2.17239e-06 0)
(8.96229e-06 2.39896e-05 0)
(-1.37818e-06 1.07142e-05 0)
(1.20852e-06 6.97957e-06 0)
(4.21275e-07 1.00244e-07 0)
(-4.21498e-07 1.00296e-07 0)
(-1.00046e-06 8.81607e-07 0)
(3.44816e-07 1.03905e-07 0)
(-3.45005e-07 1.04096e-07 0)
(1.23197e-06 4.43382e-06 0)
(6.43796e-07 3.23209e-06 0)
(-1.8639e-06 1.5418e-06 0)
(1.86317e-06 1.54187e-06 0)
(-9.40915e-07 2.79608e-07 0)
(-2.36102e-07 9.9001e-08 0)
(2.35945e-07 9.87636e-08 0)
(8.65365e-07 7.67287e-07 0)
(3.17369e-06 3.92774e-05 0)
(-9.24608e-07 1.98206e-07 0)
(1.17863e-06 3.94796e-07 0)
(-1.41283e-06 9.698e-07 0)
(-9.3546e-07 7.08624e-07 0)
(6.82707e-06 1.16445e-05 0)
(-1.26221e-06 1.81923e-06 0)
(-2.92358e-06 1.61653e-05 0)
(-3.78123e-06 1.05188e-05 0)
(-7.85488e-07 2.34184e-07 0)
(7.85104e-07 2.34193e-07 0)
(-5.95976e-07 4.47834e-06 0)
(4.27647e-07 1.61553e-06 0)
(-1.4649e-07 4.7155e-08 0)
(1.46364e-07 4.69749e-08 0)
(-1.39383e-06 7.92145e-07 0)
(9.92444e-06 0.00037398 0)
(-8.7039e-06 7.38497e-05 0)
(-1.58856e-06 6.50651e-06 0)
(1.52293e-06 3.42945e-06 0)
(-1.52363e-06 3.42944e-06 0)
(4.03627e-06 8.80563e-06 0)
(4.25347e-07 2.5288e-06 0)
(-7.03032e-06 7.03251e-05 0)
(1.0994e-07 3.48243e-08 0)
(-1.10064e-07 3.50086e-08 0)
(7.90543e-06 6.33688e-05 0)
(5.77561e-06 8.40812e-05 0)
(4.35561e-08 -9.85451e-08 0)
(-2.78475e-07 7.89956e-06 0)
(5.62605e-07 1.07243e-06 0)
(-4.43018e-06 1.05415e-05 0)
(-9.78094e-07 7.72762e-07 0)
(5.61102e-06 2.62744e-05 0)
(1.56276e-06 3.40959e-06 0)
(-1.56353e-06 3.40958e-06 0)
(5.71242e-06 1.24193e-05 0)
(3.14047e-06 6.61423e-06 0)
(-6.46855e-08 1.12814e-06 0)
(-2.09984e-07 1.10812e-06 0)
(8.94594e-06 6.3982e-05 0)
(1.69423e-06 8.94452e-07 0)
(-1.69486e-06 8.94344e-07 0)
(-1.20921e-07 1.86569e-06 0)
(1.223e-06 3.52931e-06 0)
(5.91038e-06 1.44124e-05 0)
(4.31863e-07 1.0271e-07 0)
(-4.32092e-07 1.02758e-07 0)
(3.1608e-06 1.48658e-05 0)
(-5.28128e-07 5.22493e-07 0)
(-3.51963e-06 1.62333e-05 0)
(2.94062e-06 2.9595e-06 0)
(-2.94137e-06 2.95947e-06 0)
(6.49569e-07 3.47456e-06 0)
(1.4372e-06 1.44065e-06 0)
(-1.43753e-06 1.44003e-06 0)
(-1.51604e-06 7.00581e-07 0)
(1.51545e-06 7.0066e-07 0)
(-7.58318e-06 7.402e-05 0)
(1.75642e-06 4.5312e-06 0)
(-3.30091e-08 4.85365e-08 0)
(3.30067e-08 4.83268e-08 0)
(1.07393e-06 1.83284e-06 0)
(-6.79422e-08 7.61535e-08 0)
(-1.24648e-05 0.000287826 0)
(-3.59867e-06 3.71802e-06 0)
(3.59791e-06 3.71804e-06 0)
(7.71424e-06 0.000181332 0)
(-2.37474e-06 1.60048e-06 0)
(2.37404e-06 1.60057e-06 0)
(-2.52227e-06 0.000150325 0)
(-5.55708e-06 2.62725e-05 0)
(6.55141e-07 3.32895e-06 0)
(1.76744e-06 1.02064e-06 0)
(9.86249e-07 1.78994e-06 0)
(6.06599e-07 7.66846e-06 0)
(-1.76811e-06 1.02052e-06 0)
(-5.90491e-06 1.46564e-05 0)
(-3.05515e-07 3.00233e-06 0)
(1.23568e-06 3.63719e-06 0)
(1.66338e-06 3.40052e-06 0)
(-1.66414e-06 3.40051e-06 0)
(-1.11695e-06 5.00171e-07 0)
(1.15753e-06 5.57741e-07 0)