/*--------------------------------*- C++ -*----------------------------------*\
| =========                 |                                                 |
| \\      /  F ield         | OpenFOAM: The Open Source CFD Toolbox           |
|  \\    /   O peration     | Version:  v3.0+                                 |
|   \\  /    A nd           | Web:      www.OpenFOAM.com                      |
|    \\/     M anipulation  |                                                 |
\*---------------------------------------------------------------------------*/
FoamFile
{
    version     2.0;
    format      ascii;
    class       volScalarField;
    location    "10000";
    object      sigmaxz;
}
// * * * * * * * * * * * * * * * * * * * * * * * * * * * * * * * * * * * * * //

dimensions      [1 -1 -2 0 0 0 0];

internalField   nonuniform List<scalar> 
27023
(
1.66171e-13
1.08794e-13
7.21167e-13
5.53523e-13
0
-5.49462e-13
4.56519e-12
-1.12762e-12
-1.06673e-13
-5.02569e-13
-6.85647e-13
-9.70908e-13
-6.93192e-14
3.68769e-14
8.35773e-13
1.02348e-12
-9.26898e-13
0
3.3907e-12
0
-7.34573e-14
4.11513e-15
-2.65168e-12
-9.38195e-13
2.40355e-12
3.87185e-12
1.79757e-12
8.46938e-12
-1.40386e-12
-5.20937e-12
1.00027e-11
4.17219e-13
5.14341e-12
-4.95982e-13
1.01828e-12
-1.09993e-11
1.75822e-12
3.51641e-12
1.9707e-13
-2.85408e-13
-2.11236e-13
-9.38261e-14
-1.11302e-11
-1.14667e-13
1.14645e-13
5.23164e-12
-3.77553e-12
-4.91849e-12
4.91848e-12
-3.32472e-12
3.71465e-12
-1.45025e-12
8.65777e-12
4.72424e-15
1.0418e-13
1.80842e-12
2.93103e-12
1.37082e-11
-2.45782e-12
-1.12193e-12
-7.53472e-13
-1.99733e-11
8.06615e-12
4.58817e-12
-1.18988e-11
-2.35607e-12
1.22733e-12
-5.31064e-12
1.15978e-12
-1.16415e-11
0
-3.55364e-12
-3.41527e-13
-1.97615e-12
-2.12748e-12
-1.26962e-12
1.28061e-14
-6.78179e-14
7.89246e-12
-3.61015e-12
1.26367e-12
4.25425e-12
-3.34581e-12
-6.27852e-13
1.58013e-12
-5.03952e-12
-2.7082e-12
2.96866e-12
5.60611e-12
-4.86359e-12
2.86602e-12
1.44213e-13
-2.87329e-13
-4.04773e-13
-8.78575e-14
-3.88447e-12
-4.08971e-12
3.70117e-12
-5.93861e-12
3.2207e-12
-2.202e-12
-9.27377e-12
-3.54956e-12
-4.01094e-14
2.18128e-12
1.40073e-11
-1.34212e-12
9.60318e-13
-5.18323e-12
2.88984e-11
-1.30888e-11
-1.01226e-13
1.04991e-12
-4.95402e-12
7.57608e-13
2.22415e-12
5.38166e-12
-3.62204e-13
-1.59631e-12
2.51786e-12
-1.41336e-11
8.3819e-12
-7.91344e-13
2.14543e-12
-3.90937e-12
1.81611e-12
-5.66472e-14
3.34967e-13
3.44325e-13
2.42931e-12
-1.11784e-12
2.54254e-14
-1.24932e-14
1.47773e-13
-1.01428e-11
-7.87199e-12
-2.05181e-13
2.46163e-12
2.55735e-12
2.86362e-13
-7.31525e-13
-5.63112e-12
-2.50363e-12
-2.39998e-12
-1.62458e-12
1.88277e-12
-9.47368e-12
-3.3642e-12
1.21341e-12
2.2438e-13
-3.13655e-13
1.19578e-12
-6.89492e-13
3.00661e-12
2.93985e-12
2.13364e-11
-9.08961e-12
6.13334e-12
6.35401e-12
-2.78638e-12
4.52734e-12
-1.01056e-11
9.67941e-12
1.03651e-11
-5.62742e-13
-5.93004e-13
-4.09053e-13
2.18605e-12
-3.48551e-13
-1.6921e-12
1.47528e-12
7.14031e-12
2.42447e-13
-2.35412e-12
0
1.28652e-11
1.34665e-11
-3.34027e-12
-2.46829e-12
3.92327e-13
1.04347e-12
-4.04329e-12
-2.60437e-12
-3.02594e-12
-6.94945e-12
1.96933e-12
1.85753e-12
-1.26683e-12
-6.72317e-12
4.67746e-12
-3.17622e-12
2.15448e-13
-8.59723e-13
-2.39144e-12
1.82316e-12
3.04226e-12
-1.20078e-11
1.13171e-12
6.8699e-13
6.38623e-13
5.30886e-12
1.21234e-12
3.86886e-12
7.48752e-12
0
-7.67108e-13
2.87458e-12
-1.73681e-12
3.41398e-12
4.1939e-12
0
1.33818e-15
-7.28103e-13
2.83702e-12
-3.29808e-13
1.9387e-13
-1.7435e-12
1.82265e-12
3.47569e-12
2.70114e-12
3.71693e-12
1.17759e-11
1.03795e-12
1.01616e-13
-3.14152e-12
-2.18789e-12
4.85997e-12
-7.28657e-13
-2.81303e-12
2.67133e-14
1.83622e-13
-8.84924e-12
-1.47814e-12
-2.48191e-12
-3.3161e-12
4.12665e-12
-1.75785e-12
6.50363e-12
2.99546e-13
5.09038e-12
-5.09063e-12
3.29453e-12
-3.65397e-13
-1.19819e-11
-1.11074e-12
1.29367e-12
1.11947e-11
1.03574e-12
-7.96976e-13
7.69157e-13
-3.12418e-12
4.75191e-12
-7.91243e-12
-1.24635e-12
3.17911e-12
-8.04062e-12
0
-6.76965e-12
-6.67372e-12
2.52332e-12
8.29818e-13
-2.15611e-12
-1.00394e-11
3.11066e-12
-6.00064e-12
-5.74202e-12
-2.84141e-13
-1.09418e-12
-4.89456e-12
-2.01515e-13
1.39825e-13
2.29857e-11
8.63857e-12
1.15492e-12
-5.99542e-12
-2.23177e-12
-5.26987e-14
-3.32066e-14
-7.24678e-12
1.19451e-12
-2.26701e-11
2.33342e-12
3.08216e-11
-4.64613e-12
-2.07333e-14
-2.20425e-14
-6.16429e-12
1.46814e-11
-3.06441e-12
-2.65594e-14
-8.90817e-12
3.96582e-12
-6.26389e-13
2.81105e-12
0
-1.56842e-12
-5.27856e-12
2.98984e-12
3.14004e-12
0
-1.27583e-13
-1.3203e-12
9.73801e-13
0
-2.00698e-13
3.68589e-14
-1.4729e-14
-5.04462e-12
-1.00985e-11
-4.04251e-12
2.73435e-11
5.08584e-14
-5.08104e-14
1.74069e-13
4.19609e-13
4.94212e-12
-1.92443e-12
5.59682e-13
-5.49485e-12
2.16365e-12
-5.59939e-14
-8.7642e-14
1.06137e-12
1.1223e-12
-7.36352e-13
-9.54371e-13
5.96295e-12
-1.60181e-12
-4.04338e-12
5.86101e-13
-1.32523e-13
-2.72222e-12
-7.39685e-12
-3.3721e-13
-1.00374e-11
-5.68995e-13
-9.47772e-13
7.64938e-13
-2.13995e-12
-1.25774e-13
-1.62704e-12
2.58562e-11
-1.4095e-11
0
2.20573e-15
-2.18418e-12
-6.01713e-13
1.28043e-12
-3.16881e-12
3.04067e-12
3.89399e-12
-6.04116e-13
4.42858e-13
-2.71824e-12
2.88783e-14
-2.14086e-14
-7.92762e-13
4.99563e-12
-5.6058e-12
8.89359e-13
1.57988e-12
1.68742e-12
-4.98823e-12
7.01209e-14
2.02439e-12
-9.51939e-12
4.29489e-12
1.20624e-12
-5.61483e-13
5.61623e-13
-3.6716e-12
-2.32169e-12
-1.90613e-12
0
-1.77283e-13
9.65197e-12
-6.16322e-12
-2.34027e-12
7.26089e-12
4.07193e-12
4.42108e-12
3.06725e-12
3.37628e-12
1.53097e-12
-3.90437e-13
-1.68884e-12
-1.32786e-12
6.06083e-12
-1.49607e-12
1.46854e-13
-1.80125e-12
2.60561e-11
6.952e-13
-6.90588e-12
-7.1506e-13
1.23593e-12
6.48518e-13
-1.56268e-11
-9.82687e-12
0
8.03732e-13
-9.34893e-13
-7.41122e-13
-1.8996e-12
-2.42851e-11
3.88991e-13
-9.16338e-13
1.75175e-12
1.04193e-11
2.11877e-12
3.78704e-12
-2.98794e-12
8.63241e-15
-1.10757e-14
5.94317e-12
3.44016e-13
-5.05843e-13
-6.61642e-12
5.58634e-12
-7.75407e-12
0
-8.11636e-12
3.55844e-13
-3.98529e-12
1.11586e-11
-7.16624e-12
0
-3.69163e-13
9.45853e-12
2.79105e-13
1.09075e-11
0
2.32468e-12
-4.53354e-12
-1.66309e-12
3.2824e-12
-1.53545e-12
9.81422e-14
1.5615e-13
-3.30888e-13
-9.04244e-12
-2.37799e-11
-3.91567e-13
-5.497e-12
2.20125e-15
-4.60289e-17
-6.71135e-13
5.69345e-12
8.0551e-13
-5.05855e-15
3.86373e-13
1.94677e-13
-1.94405e-13
-7.27117e-13
1.32192e-12
-2.90881e-12
-5.76101e-12
1.28289e-12
1.79759e-12
2.25327e-12
3.36621e-12
-1.4998e-12
-4.75214e-12
-4.52381e-12
-5.58643e-12
-9.27258e-12
-4.39639e-12
2.18375e-12
7.2637e-15
1.16635e-11
2.71461e-11
0
1.29211e-12
-1.34839e-12
1.40235e-12
0
-1.63171e-12
7.40641e-12
1.26155e-11
-4.76656e-13
7.19574e-13
-4.99098e-12
2.32391e-12
-2.61142e-12
4.61509e-12
3.07324e-12
-8.6154e-13
-9.47225e-12
-3.15506e-11
-5.88273e-12
2.6661e-12
4.17459e-12
4.58185e-13
-4.68227e-12
-4.00594e-13
-6.19847e-13
-2.15209e-12
-1.74964e-13
-1.54889e-12
1.00025e-11
2.17348e-12
5.60642e-15
-9.50704e-15
-7.16448e-12
6.62783e-13
2.70206e-12
1.97893e-12
1.35026e-13
1.57333e-12
2.22101e-12
-1.83973e-12
-2.83658e-12
-1.41481e-12
3.25513e-13
1.46513e-12
3.15148e-12
-2.8088e-12
-5.19503e-12
5.29527e-12
-5.96773e-13
-6.36302e-12
3.18151e-12
3.28077e-12
-1.03299e-12
2.40872e-12
-1.03677e-11
-5.0743e-12
6.26753e-12
-2.94849e-12
2.69135e-13
9.70794e-12
-1.67318e-12
5.25898e-14
3.18378e-13
4.46398e-13
-4.46748e-13
-5.2501e-12
-4.85414e-12
-8.34806e-13
5.07242e-12
2.125e-12
1.09112e-11
3.4113e-12
-2.59896e-13
1.18242e-11
4.01544e-13
5.63863e-13
2.53696e-13
-9.76102e-13
-1.09428e-11
-1.40045e-11
5.89416e-12
-8.61295e-13
-1.53988e-12
-1.5004e-12
7.31691e-12
1.21641e-11
4.08198e-12
-2.73963e-13
-1.15733e-11
1.62082e-12
6.75854e-12
2.36987e-12
-5.33285e-12
8.46204e-12
1.07897e-12
0
0
5.99707e-12
6.23368e-12
3.3458e-12
1.15743e-12
1.48884e-13
0
1.75917e-12
1.24259e-12
-3.56079e-13
-6.52993e-13
2.09723e-12
1.20268e-12
-1.26261e-12
-6.12648e-12
1.0186e-12
0
-6.18062e-12
2.07981e-12
8.72845e-14
-6.55144e-12
1.00376e-12
-2.71468e-13
0
-6.62174e-12
1.27945e-12
-2.89874e-12
-6.45923e-12
3.37041e-12
-3.21101e-12
-1.3979e-11
-2.82022e-12
1.7697e-12
-4.13781e-12
4.62863e-12
-2.4593e-12
3.53503e-12
1.19022e-12
1.7398e-14
-5.93188e-12
4.75176e-12
-1.0305e-12
4.35606e-12
-4.35607e-12
-6.64448e-12
3.76258e-13
-8.48042e-12
-5.58127e-13
-1.89973e-11
-3.08221e-11
-2.36279e-12
-2.8885e-12
-4.27689e-11
-1.08041e-14
-7.38384e-15
9.27845e-16
7.61775e-16
-5.85371e-12
-6.90437e-14
8.91264e-14
0
-1.02875e-12
-3.2469e-14
3.23744e-14
3.32735e-13
-2.43009e-13
8.21792e-13
-1.28118e-12
3.18527e-12
-1.12668e-12
1.50965e-12
2.11301e-12
-5.15447e-12
-2.43753e-12
-2.5476e-12
-3.35438e-12
3.40381e-12
2.20836e-12
5.21716e-12
-1.79316e-12
-9.98995e-13
2.68184e-12
0
3.9932e-12
-1.39839e-12
3.40195e-12
0
4.20144e-13
1.577e-12
-3.78956e-12
-2.95099e-12
-2.03518e-15
2.92611e-15
-5.3957e-12
-2.9491e-12
-9.35433e-12
-6.92727e-12
7.90629e-13
9.54457e-12
-2.18917e-12
-6.36425e-13
0
-5.18021e-12
1.83974e-13
-4.90851e-12
-9.76833e-12
-7.40013e-14
6.51116e-12
-1.13227e-11
-1.70404e-12
-1.25055e-11
2.70734e-12
0
5.63584e-12
3.22102e-14
1.02748e-14
-3.84232e-13
3.37093e-12
2.30164e-12
2.65573e-12
-2.35139e-12
-6.48105e-12
2.7278e-11
-4.46178e-12
-8.36741e-13
1.01882e-11
3.60773e-12
-6.98189e-12
-4.70477e-12
-8.55477e-14
-5.06276e-14
-1.68188e-12
-1.88671e-12
1.57537e-14
-1.22059e-11
1.80404e-12
9.01982e-13
3.42582e-12
2.28428e-12
-1.17913e-15
7.48613e-15
-2.24474e-12
-2.02933e-15
-6.0283e-12
5.96995e-13
2.23519e-12
-1.06295e-12
-1.14889e-11
3.89688e-13
1.0417e-13
0
4.91395e-12
-1.74683e-13
-2.21257e-13
2.31613e-12
-2.63821e-13
-1.10298e-11
-8.32853e-13
-6.65313e-12
-2.15885e-12
-4.37436e-12
0
3.07593e-12
-1.03242e-11
8.43998e-13
-2.87454e-12
1.0737e-12
6.51512e-12
-7.34166e-13
-1.46857e-12
7.34769e-13
-7.22664e-13
-4.37726e-13
1.91183e-12
4.78249e-13
2.16695e-12
1.58865e-12
-4.10997e-12
1.73966e-12
3.94398e-12
1.27848e-12
5.59642e-13
-8.21375e-13
-4.07631e-12
-7.30606e-13
-4.87459e-12
5.34195e-13
7.70614e-12
0
7.9068e-12
6.45048e-13
1.45159e-11
2.83535e-12
3.81883e-12
-1.10896e-12
-4.67148e-13
8.1862e-12
-1.80227e-12
-8.7909e-13
-4.41951e-12
-3.01941e-12
-1.00959e-12
2.59919e-12
-6.58643e-14
-5.04697e-12
1.2346e-12
8.91266e-14
-7.27849e-12
3.60475e-12
1.07032e-12
-5.95506e-12
-4.7391e-12
0
1.79032e-13
-8.32408e-13
-9.65095e-12
0
2.90949e-12
5.95965e-13
-4.1086e-12
-9.6405e-12
2.59006e-12
5.379e-12
-2.28902e-13
0
0
8.39689e-12
-1.31571e-12
4.17447e-12
1.21918e-11
-1.04736e-11
1.04465e-14
0
9.72026e-12
9.37273e-12
2.88906e-13
-7.60187e-13
-1.31099e-12
-6.33113e-13
2.9703e-13
1.95461e-12
6.5075e-12
3.79038e-13
4.98937e-13
6.35572e-14
-1.57723e-13
-3.53726e-13
2.20124e-11
5.0933e-12
-1.13424e-11
-1.85875e-11
-2.27418e-13
-1.29572e-12
-1.61677e-11
-4.69192e-14
-1.36e-12
0
-1.13718e-11
2.99083e-12
-2.4845e-12
-7.13234e-14
-7.89201e-13
-6.11188e-12
-1.06671e-12
-5.64623e-12
3.17159e-12
-8.18685e-13
3.59167e-12
1.28787e-11
-1.99662e-13
-1.00962e-13
2.99573e-13
-2.57941e-12
1.83336e-12
1.4871e-12
8.62061e-12
0
-7.19474e-12
3.45658e-12
-1.36895e-12
1.25467e-11
-2.52907e-12
-4.9043e-12
5.52916e-13
7.85784e-13
4.67429e-12
-2.75249e-12
1.20415e-14
4.539e-14
-3.08131e-12
3.58686e-12
-1.39776e-12
-2.55479e-12
1.06655e-12
-1.54077e-12
0
9.73628e-12
8.6486e-12
9.51444e-12
6.08105e-12
-5.03736e-13
3.62074e-14
-2.57876e-14
6.12837e-13
1.36722e-12
9.5902e-12
-9.89392e-13
1.82739e-12
-1.54925e-13
-5.74579e-12
9.1106e-13
8.10819e-12
-2.38166e-13
9.64968e-14
-3.17118e-12
-3.49971e-12
4.99957e-13
2.76308e-11
4.22514e-11
7.76966e-13
2.95472e-12
-1.68129e-13
-1.32241e-12
0
1.71079e-12
1.08567e-11
-6.56606e-13
3.19046e-12
2.07995e-13
-4.54738e-13
-1.29367e-12
8.78049e-13
9.00032e-13
5.24915e-12
3.18699e-12
6.6807e-12
-2.48539e-12
2.02124e-13
-6.16447e-14
4.30228e-12
-3.51703e-13
-5.05526e-13
-4.61089e-12
1.95255e-13
-4.90423e-12
-5.25675e-12
1.91599e-12
-6.07117e-13
1.74868e-12
-1.71042e-12
-2.44924e-11
6.0853e-13
-2.10676e-12
0
-6.48478e-12
4.07094e-13
-3.45975e-12
8.07294e-12
-2.25385e-12
1.60918e-12
2.58219e-12
1.413e-13
-5.21983e-12
1.15984e-11
-7.84077e-12
-9.40791e-12
0
-2.06748e-13
-1.2729e-12
-3.01001e-13
3.335e-13
-2.30276e-12
7.96681e-12
5.91462e-13
-1.51746e-12
0
3.66185e-13
7.80426e-14
2.2142e-12
1.04008e-11
1.28748e-13
0
3.73751e-12
1.71864e-13
2.23551e-12
1.79342e-12
-1.93124e-12
3.82284e-12
2.09277e-12
-1.65619e-12
3.65428e-12
1.95738e-12
-2.60148e-13
-6.88841e-15
8.03417e-13
4.21233e-12
1.44409e-11
1.61124e-12
3.40552e-12
-4.20613e-12
-1.93816e-12
4.97216e-12
1.31783e-11
1.01535e-13
-1.44018e-13
0
4.63082e-13
-6.92506e-13
5.98372e-13
4.1178e-12
-3.70023e-12
6.54364e-14
9.90294e-12
1.60335e-12
2.57471e-12
-1.54352e-12
1.62213e-12
4.13081e-12
-1.85961e-14
4.41527e-12
-6.01387e-13
-4.31747e-13
2.13277e-12
-2.42498e-12
6.49563e-12
-9.57465e-13
-1.80189e-13
7.6851e-12
-8.83611e-13
-8.43832e-13
0
3.20446e-12
-1.89264e-12
3.14943e-12
-3.09424e-12
9.83749e-13
1.51036e-13
1.32123e-11
-8.93556e-13
7.17459e-14
-9.29681e-15
-1.63386e-12
-1.21031e-14
-3.90844e-12
2.4529e-12
-1.17633e-12
-8.44542e-12
-1.13834e-12
2.16495e-12
5.7845e-13
-6.55015e-12
2.43355e-12
0
-3.29854e-13
-1.92419e-13
1.60965e-13
-1.1023e-11
-1.3124e-12
-3.66565e-12
-1.03817e-12
2.32472e-12
-2.79044e-13
-2.16432e-12
-1.78729e-12
1.38859e-12
3.26323e-14
-1.35513e-14
2.0777e-13
-2.18574e-12
-5.95808e-13
1.48174e-12
-2.52434e-12
-5.93319e-13
4.32276e-12
2.00287e-12
-3.63157e-13
-5.26539e-13
5.95577e-12
-1.01602e-11
-5.56574e-14
-3.10169e-12
3.73729e-12
1.15578e-12
1.04176e-13
-2.96608e-12
-5.31504e-12
-1.21031e-13
-2.4256e-12
-4.82454e-12
1.64096e-12
1.4351e-12
-7.52201e-12
1.17769e-12
1.77186e-13
-8.07107e-14
-7.09308e-12
6.77542e-12
6.89251e-13
9.3001e-13
-1.21748e-11
1.09103e-12
5.01181e-12
-1.46411e-12
2.4284e-12
2.60146e-13
-3.51602e-12
-3.47492e-12
2.75128e-12
-7.77437e-13
-6.46107e-12
-1.44549e-12
-2.68788e-12
6.63057e-12
-9.36544e-12
1.23072e-12
2.84411e-12
-6.1059e-13
5.02748e-12
9.94815e-13
-4.36416e-12
-9.57434e-12
2.73834e-13
2.19564e-12
6.16446e-12
9.59607e-12
2.32669e-12
4.31452e-12
-9.1861e-13
-1.10244e-11
-1.65753e-12
3.9755e-13
1.68328e-12
4.84852e-14
-6.37901e-12
-6.38387e-12
1.06645e-12
-1.89237e-12
2.29802e-13
-4.40732e-13
8.97824e-14
2.81466e-13
1.17154e-13
-2.38083e-11
-2.52912e-11
3.5065e-12
-2.52947e-13
1.93141e-12
-1.22201e-13
-2.64773e-13
5.44621e-13
2.32242e-12
-4.4018e-12
4.61553e-12
-2.07134e-11
6.15612e-13
-2.59591e-15
1.21368e-15
4.24878e-13
4.28062e-12
6.62094e-12
2.52213e-11
3.03489e-12
-3.24242e-12
1.5863e-12
1.81602e-11
1.03851e-11
-4.19451e-12
-6.265e-12
2.08681e-12
2.3887e-13
-1.90413e-12
-7.58281e-12
-1.87999e-12
1.16595e-12
9.3006e-13
0
2.89356e-12
-2.2131e-12
-8.59083e-13
2.21059e-12
5.73077e-12
-7.4058e-13
9.075e-13
1.04445e-12
-2.909e-13
9.39908e-14
8.84467e-13
-1.18963e-12
-3.55808e-13
-3.55987e-13
-1.45162e-11
-1.27594e-12
7.67994e-12
-2.72996e-12
2.26297e-12
1.11951e-11
-1.51188e-12
-2.11218e-13
-1.92545e-11
-1.68774e-12
1.57271e-12
9.34737e-12
1.54965e-12
-3.23112e-13
5.94506e-13
5.75988e-12
-3.72425e-11
-1.37985e-12
1.31481e-12
3.44876e-12
1.10576e-11
8.5232e-12
-2.07738e-12
2.94516e-12
-1.84258e-13
1.03938e-13
-1.03754e-13
-9.73218e-12
-2.45088e-13
-7.01165e-13
3.04087e-13
-9.51909e-13
3.83477e-11
-1.90324e-12
2.83272e-12
-9.73144e-13
1.7404e-12
-2.67461e-12
6.31026e-14
-2.427e-13
3.54542e-12
-2.7713e-12
5.97875e-12
-4.97983e-12
2.00153e-13
4.55298e-12
8.24755e-13
-9.25747e-12
1.65344e-12
-6.14247e-12
1.24163e-13
-1.15547e-12
2.0519e-12
8.86101e-13
-2.96616e-12
7.74263e-13
-5.60002e-12
4.11229e-13
4.6153e-13
-2.21674e-13
-4.33001e-12
-2.24006e-13
2.34265e-13
1.00222e-12
6.20541e-13
-7.35543e-13
3.69886e-12
-1.18423e-12
-1.65617e-13
1.47871e-12
-1.64904e-13
-3.82282e-12
-1.89293e-11
4.94416e-11
-3.44069e-11
-2.14503e-12
-4.16184e-12
-4.16642e-12
1.42907e-12
-2.39676e-12
1.79729e-11
-8.13822e-13
-3.57481e-12
-1.08711e-12
-2.32918e-12
1.179e-11
-5.43174e-13
-3.98746e-12
5.73118e-12
-1.33511e-12
-9.33007e-13
1.04029e-12
9.09642e-12
2.6329e-12
-6.61362e-12
9.75377e-12
1.86258e-13
-6.56976e-12
2.05486e-12
2.14074e-12
5.69335e-12
-3.57058e-12
8.14276e-13
0
-1.73491e-12
2.85124e-13
2.20591e-12
4.38722e-13
-5.88512e-12
1.07515e-11
-1.61299e-12
-2.39552e-12
3.37426e-13
2.89555e-12
-1.43395e-11
7.01252e-15
0
-2.19942e-11
0
3.10487e-12
1.51888e-14
-8.41348e-14
-3.4869e-12
2.20538e-13
3.61312e-12
6.67136e-12
-4.42843e-13
0
0
8.65361e-13
-5.65775e-13
1.84083e-12
2.13817e-12
-1.77723e-11
-3.26839e-12
4.58749e-12
-2.32094e-11
-7.68301e-12
-1.03321e-11
9.07405e-13
7.30835e-13
-2.29103e-12
1.34388e-12
0
9.86903e-13
-2.51829e-12
3.11246e-12
0
-7.75412e-15
1.01409e-14
-4.51122e-12
1.33738e-12
7.87296e-13
3.1851e-13
-3.83061e-12
2.98152e-12
2.11112e-12
3.78476e-12
-2.42916e-12
4.4222e-13
2.0292e-12
-1.34189e-11
4.69709e-14
-4.11977e-14
0
2.45352e-14
4.2699e-13
-5.2425e-12
0
-2.03296e-12
-3.27199e-12
-8.59783e-13
1.41197e-12
-8.11673e-13
7.23333e-13
-1.09129e-11
-1.76369e-12
1.67954e-12
1.62904e-12
2.02178e-13
1.83027e-12
1.33556e-12
0
-2.72646e-12
8.88259e-12
2.19607e-12
-9.45933e-13
-3.02746e-12
1.02126e-12
-1.63476e-12
4.51636e-12
7.97804e-12
5.27255e-13
-1.37915e-12
-1.42344e-12
-3.35697e-12
2.78526e-12
2.21433e-12
-2.86293e-12
-2.8347e-12
0
1.49051e-12
5.93381e-12
4.4436e-12
6.17038e-12
-1.90618e-12
-8.0582e-14
-3.8772e-12
6.1041e-13
3.25478e-12
6.72126e-12
1.00161e-12
-5.07375e-12
-1.55911e-15
-1.20966e-15
-3.49325e-13
-1.42806e-12
-1.0564e-11
3.42859e-12
1.10712e-12
-1.88562e-14
5.4382e-12
-4.75263e-14
3.53136e-13
-5.2091e-12
-1.13039e-11
-2.58669e-13
1.76445e-13
5.40994e-12
-1.50386e-11
-4.35402e-12
1.33847e-12
6.19577e-13
-5.50593e-13
5.47643e-12
-1.57651e-13
1.36652e-14
2.37421e-14
5.12624e-12
1.13727e-12
8.7884e-12
-2.21152e-12
-1.65674e-12
5.32855e-13
-1.87612e-13
-1.20575e-13
1.00748e-11
5.55339e-12
-5.15425e-12
8.82893e-13
-1.18036e-12
6.85676e-13
9.85323e-12
3.02379e-12
4.04663e-13
1.5791e-12
3.45348e-13
-7.9536e-13
-1.56261e-12
-3.85649e-12
2.55864e-12
-1.6143e-12
-1.10267e-12
-7.19016e-12
1.75608e-12
1.28197e-12
1.63175e-11
8.70336e-13
2.56103e-13
3.30133e-12
-4.87161e-13
1.73946e-12
0
-2.99817e-12
1.59536e-12
-1.59467e-12
-6.5195e-13
2.50186e-12
2.01597e-12
-4.67946e-13
-2.19141e-13
4.04945e-12
-2.33641e-13
2.23154e-13
-1.56977e-12
-9.64784e-12
1.8112e-12
-2.84677e-12
-4.90691e-12
6.22231e-13
-3.77217e-13
-8.94631e-12
5.27696e-12
0
-3.61067e-13
-4.12236e-12
-2.03554e-13
1.28156e-12
-2.06495e-12
-1.31556e-12
-5.60055e-12
7.37555e-12
-2.83311e-14
0
3.07555e-13
-1.11005e-13
8.92912e-13
-5.03748e-12
-1.06891e-11
4.50447e-12
6.97996e-13
-3.61378e-13
1.71931e-13
-5.12134e-12
1.88101e-12
-4.35567e-13
1.79606e-12
2.37156e-12
-1.05615e-13
3.52346e-12
6.67298e-14
3.25145e-13
3.18017e-12
3.86716e-16
-1.43875e-15
4.653e-12
-2.55916e-12
2.84245e-12
0
-1.03942e-13
-1.27067e-11
-1.03165e-12
-2.18842e-13
7.42918e-13
1.17287e-12
1.87872e-12
3.63411e-12
-3.15953e-13
-3.16177e-13
0
-2.12235e-13
-4.01271e-13
1.36047e-12
3.76937e-12
6.75213e-12
1.26064e-13
-3.17062e-13
-1.63961e-11
1.11522e-11
-3.24246e-12
1.70619e-12
4.14455e-12
4.1445e-12
1.16809e-11
5.39798e-12
6.24542e-12
-2.34215e-12
-3.08975e-13
-1.13104e-11
3.96756e-12
-8.16377e-12
-5.03744e-12
-1.31183e-12
2.82442e-12
-4.51645e-13
1.07843e-12
0
-3.06789e-12
-2.55676e-12
1.50692e-12
4.55094e-13
-1.87255e-12
2.46139e-12
-6.79053e-12
4.52314e-12
-5.89801e-12
2.64876e-12
-3.08798e-12
6.00389e-13
-2.51986e-13
-1.1003e-13
-1.0359e-13
2.52919e-12
2.33064e-12
3.09777e-12
-1.39577e-12
-9.99985e-13
-3.63496e-12
-9.14211e-13
-3.85541e-12
1.77244e-12
1.84064e-12
2.69874e-14
1.55158e-12
1.62181e-13
3.0681e-12
-4.04514e-12
-4.60927e-13
9.07849e-13
-3.00366e-12
-1.57612e-12
9.33695e-12
-9.68755e-12
0
-1.98124e-12
-1.9812e-12
-3.85794e-12
-8.37247e-12
7.51355e-12
-6.58335e-13
2.21471e-12
4.65048e-12
-8.82886e-12
-6.33113e-13
5.65095e-13
-5.40308e-12
-1.51786e-11
8.36544e-12
4.14585e-13
-1.78707e-14
2.32597e-12
2.59506e-13
-1.01514e-12
0
9.94303e-12
-2.93853e-12
-5.55982e-12
-2.99147e-13
6.01796e-13
2.04328e-12
1.62155e-12
6.85476e-13
-1.33888e-12
2.94564e-12
-6.00713e-12
-3.36718e-14
-2.15003e-12
-6.96955e-13
1.9806e-12
2.09052e-11
4.64141e-12
2.81654e-12
-5.86807e-12
5.8678e-12
2.60091e-13
-2.98819e-13
-3.13517e-12
-2.72407e-12
-1.45732e-12
6.21037e-12
-9.85499e-13
-1.96974e-13
2.24431e-12
-2.28254e-13
-4.17008e-13
-2.43689e-11
1.55347e-11
5.42018e-12
2.39165e-11
1.33292e-11
-1.17741e-11
8.37855e-12
1.0288e-12
-9.58411e-12
-1.86419e-13
1.86161e-13
3.77043e-13
0
-3.42372e-12
-2.23251e-12
2.11295e-12
-1.71245e-11
-1.1515e-12
4.21446e-12
5.68012e-13
-8.20577e-13
-8.23493e-13
4.12721e-12
-1.32951e-12
-1.07464e-13
1.19484e-13
-2.47065e-12
-2.02712e-12
1.12756e-12
8.66058e-13
-9.32205e-13
-2.32387e-13
1.34156e-11
1.28969e-12
-3.92969e-12
-2.36477e-12
1.04158e-13
3.387e-13
1.05686e-12
-5.70469e-13
-3.46866e-12
0
-4.80514e-12
-2.0968e-11
1.24605e-12
1.1393e-12
5.75305e-12
8.85502e-13
3.50927e-13
-8.68265e-12
-3.1794e-13
2.73368e-12
-8.9627e-13
-1.44075e-12
-1.19972e-13
4.13105e-12
-1.17572e-13
3.7289e-12
6.61683e-13
1.22849e-12
1.4288e-12
8.87492e-13
-2.76098e-12
1.29855e-12
0
2.80068e-12
-1.7994e-12
-5.09951e-13
3.97668e-12
-1.39175e-12
-8.1149e-12
-1.60772e-12
2.55656e-12
-4.49582e-14
6.30668e-14
-1.65161e-13
3.61792e-12
3.79151e-12
-1.14626e-12
-1.45165e-12
5.86211e-12
-1.89949e-12
-1.88219e-13
-1.09095e-12
-1.35844e-11
-3.33503e-12
-1.66317e-12
-8.26002e-12
1.19181e-12
-4.10445e-13
2.12936e-12
-7.63011e-13
2.35351e-13
-1.20506e-13
2.58233e-12
-5.12138e-13
-1.39218e-11
-9.26443e-13
-7.44823e-13
5.7999e-12
-1.09557e-11
1.09713e-11
-2.66359e-13
3.36556e-13
-1.90345e-12
-6.55641e-13
2.8703e-12
-2.36695e-12
-1.16955e-11
1.54283e-12
3.38169e-13
3.23949e-12
1.24315e-11
-1.23725e-12
4.59456e-13
-1.68433e-13
1.24272e-12
-6.0709e-12
2.64381e-15
-7.04901e-13
-2.67869e-12
3.65219e-12
9.17448e-12
-6.75336e-15
3.0349e-13
2.54129e-12
4.14527e-12
2.18398e-12
-2.4456e-12
1.5195e-12
0
4.33267e-11
2.22949e-12
2.95347e-12
-2.95364e-12
-2.81179e-12
0
-1.19936e-11
-2.31563e-12
-1.0208e-11
-2.8284e-12
-4.20935e-12
-9.69653e-12
-5.01711e-12
-2.08447e-12
3.12523e-12
-1.3457e-12
-1.70315e-12
5.75029e-13
-2.78805e-13
3.85183e-12
5.34553e-12
3.08564e-12
7.08607e-12
-9.44119e-12
-3.52565e-13
-5.24604e-13
7.01073e-13
0
-6.58408e-13
-1.00809e-11
-4.56474e-13
8.00487e-12
0
6.57208e-12
-4.73707e-12
-4.77864e-12
-2.22324e-12
3.88096e-13
6.2661e-12
5.81727e-12
5.4955e-13
-2.0371e-12
7.17319e-14
-2.13421e-11
1.16525e-11
0
-4.6927e-12
-2.28817e-12
-1.13129e-12
1.27841e-11
-3.37296e-12
1.06937e-12
-6.89049e-12
-1.51245e-15
2.00721e-15
3.00485e-12
1.64864e-11
3.13213e-12
-4.43065e-12
-6.33971e-12
-4.7326e-13
-1.66841e-12
-1.16016e-12
-2.07622e-12
2.40528e-12
5.4363e-13
-3.41024e-13
2.78298e-12
0
-2.29583e-12
1.11301e-12
-1.67631e-12
-2.61817e-12
5.16366e-13
-5.02788e-12
1.51944e-11
2.17219e-12
8.43658e-12
3.6958e-12
1.17371e-12
-5.48138e-13
4.42746e-12
1.63336e-12
-4.83648e-13
3.54007e-13
0
7.38098e-13
6.51244e-12
2.82211e-11
-2.46218e-12
-3.83195e-12
-6.02314e-13
1.66837e-12
-6.54944e-12
0
0
6.1945e-13
3.42037e-12
2.11094e-12
4.52143e-12
4.17925e-12
-7.28832e-12
1.56701e-12
3.26518e-12
-9.25656e-13
1.07496e-12
-3.43533e-12
4.53553e-12
-4.53574e-12
-8.3767e-13
-8.73955e-12
1.78044e-12
1.62946e-11
-3.48733e-14
-7.55953e-13
5.2977e-13
-7.53287e-12
-2.38477e-11
-1.50285e-13
1.29583e-12
3.25229e-12
-7.61427e-12
3.5706e-12
-3.19123e-12
-1.65562e-11
-1.29115e-12
0
2.51026e-12
-1.09721e-11
-2.02531e-12
8.98447e-12
-7.97628e-12
-5.50822e-13
6.82222e-13
6.63698e-12
7.70258e-12
-4.62215e-13
0
7.52817e-12
-3.00397e-12
3.67771e-12
-1.43593e-13
1.68036e-12
-1.75036e-12
2.27505e-12
3.74713e-12
-6.08248e-13
0
7.3204e-13
-2.40147e-12
4.81438e-12
-7.35208e-13
-2.10145e-13
-1.47212e-14
-1.44038e-13
3.29276e-13
-4.28094e-13
4.221e-12
-1.13108e-12
-8.29545e-12
1.58552e-13
-1.73089e-11
-5.31957e-12
2.2518e-12
2.4351e-13
2.35907e-15
-1.77166e-12
-5.09828e-12
-6.69855e-12
-1.18769e-13
1.5454e-13
1.1351e-12
-2.03368e-12
4.63269e-13
1.45532e-12
2.69598e-13
-4.85709e-13
-1.11903e-12
-4.96588e-12
-1.09511e-13
-9.3108e-14
-3.8572e-12
9.25909e-12
-2.16057e-12
1.15615e-11
-9.06077e-13
-3.06624e-12
-4.74102e-12
0
3.44723e-12
-2.38323e-12
-3.52079e-11
9.85372e-13
-2.6736e-12
1.57221e-12
-1.5583e-12
4.80661e-12
7.81303e-12
-6.22303e-12
8.68391e-13
-1.97963e-12
-9.92013e-12
1.79563e-11
1.35582e-12
-3.72147e-12
1.19915e-11
-3.60519e-13
-1.39421e-12
5.61397e-12
1.82261e-14
-8.30901e-14
-6.67561e-12
6.09652e-14
-1.82129e-13
3.55136e-12
0
0
-2.01884e-12
-3.39416e-12
9.27381e-13
0
9.02274e-12
-1.70383e-12
-1.15071e-12
2.43442e-12
2.10095e-11
-8.0139e-12
1.33664e-13
-1.18401e-12
9.63395e-13
-2.10095e-11
5.23292e-12
2.32645e-12
-2.92035e-13
1.89536e-12
-5.96616e-13
1.88935e-13
3.56997e-12
7.88323e-12
1.73259e-11
0
-1.43785e-12
-5.13172e-12
-1.33209e-12
-3.93439e-12
1.53757e-12
9.16886e-13
-2.91621e-12
-1.67047e-13
-2.12185e-12
1.81107e-13
3.34692e-12
-1.69068e-12
-5.89601e-12
3.78789e-13
9.59233e-12
-5.44848e-12
1.50322e-13
2.91207e-12
2.28731e-13
5.71927e-12
5.21202e-12
-9.82119e-13
0
1.21316e-15
2.98565e-12
-1.588e-12
9.18854e-12
9.86681e-13
3.16677e-12
2.34423e-12
5.52523e-14
-5.28311e-13
-6.16605e-13
-2.15319e-12
7.36177e-12
1.45107e-12
2.79558e-12
-3.54334e-12
-7.72087e-13
1.12714e-13
4.3847e-12
-3.32e-12
-6.32997e-14
2.91418e-15
-4.19085e-15
-5.23347e-12
-8.18853e-12
9.23283e-13
-1.20115e-12
1.40415e-12
3.59285e-13
1.27126e-13
0
3.23729e-12
-2.6334e-12
-2.69266e-12
5.6184e-13
-9.62433e-12
1.65246e-12
-1.79936e-12
-3.34205e-13
8.58669e-13
-2.68064e-12
8.21809e-13
-5.39522e-13
-4.07272e-13
-2.1837e-13
-1.07937e-12
2.28034e-12
1.17101e-13
3.06776e-12
-1.18318e-12
-1.26594e-12
-3.48562e-12
-8.31707e-13
4.30274e-13
-1.75278e-13
2.38425e-13
-4.76671e-13
0
2.9319e-12
1.56165e-13
-3.8095e-13
-5.17787e-12
3.39204e-12
0
0
-1.02649e-12
-4.57351e-12
2.11925e-11
3.15358e-12
-8.65781e-13
8.65794e-13
2.30795e-12
-1.36682e-12
-4.94552e-13
4.1366e-12
5.70539e-12
5.54956e-12
3.64878e-12
-1.09077e-12
4.76192e-12
6.31599e-13
1.2297e-15
2.21336e-15
-4.19797e-12
-1.46616e-13
-2.97874e-12
-3.01152e-12
-2.44974e-12
7.42422e-12
-2.7652e-12
5.89534e-12
7.4008e-13
-3.6405e-12
-5.44928e-13
-2.97634e-13
-1.47339e-11
8.51452e-13
4.80697e-11
-1.1711e-11
-7.68825e-13
1.80905e-12
6.69969e-12
1.56073e-12
-7.70478e-12
-9.502e-13
2.41815e-13
-3.77791e-12
-7.25648e-13
-1.38847e-12
-9.10483e-12
8.34203e-13
3.93939e-12
-5.05086e-12
1.89572e-12
-8.68997e-12
-1.62686e-13
2.59183e-12
3.9895e-12
2.32437e-12
3.22136e-11
3.1832e-12
3.73904e-12
4.19061e-14
-5.02475e-14
2.0724e-13
3.50077e-14
-2.98696e-13
3.10761e-12
8.91921e-13
2.72089e-12
4.38071e-11
3.65878e-13
-2.0539e-12
4.44542e-12
1.01515e-11
8.46517e-13
-2.06372e-12
-6.69619e-12
9.84471e-13
3.05234e-12
-1.15062e-12
1.44516e-11
-2.15657e-12
9.20896e-12
2.90466e-12
-4.24277e-12
9.1078e-13
6.36514e-12
-1.3197e-12
-9.38575e-12
-2.18077e-14
3.85391e-14
-1.60527e-12
1.71542e-12
-8.32792e-13
-3.58534e-12
2.69483e-12
3.96694e-13
-2.96665e-12
-2.045e-11
0
1.83376e-12
1.40323e-12
1.25081e-13
1.05699e-11
0
-1.86132e-12
3.80294e-14
-1.66742e-12
-2.30543e-12
3.96289e-12
3.72298e-12
8.07836e-12
-2.15248e-12
-6.47883e-12
-4.28302e-12
1.17472e-12
2.47462e-12
-2.17234e-12
1.76805e-13
1.10713e-13
7.54698e-13
-6.39977e-12
1.27065e-13
1.54637e-12
-1.4901e-12
4.47705e-13
-1.25269e-12
2.30174e-12
4.9208e-12
1.24109e-11
-4.41467e-12
1.28359e-12
-1.8577e-12
-3.00799e-12
-9.45142e-12
-2.88041e-12
-2.21264e-13
4.6489e-12
-5.93222e-12
0
6.83187e-12
-1.91808e-13
-2.11364e-12
-6.7169e-12
-8.15706e-14
7.61207e-12
2.62374e-12
1.88661e-11
1.51101e-11
4.04756e-12
-8.31085e-12
-3.89898e-13
8.08391e-13
1.40562e-14
5.38309e-12
3.48875e-12
6.98831e-13
-1.34734e-12
1.42943e-13
4.36487e-12
-1.17296e-12
4.78083e-14
-5.57935e-14
-2.2184e-12
5.28651e-12
-1.77894e-13
9.45163e-14
-3.36723e-12
8.78783e-13
1.719e-12
1.42196e-12
-3.8499e-12
-2.39398e-13
2.83048e-12
-1.78162e-12
1.8268e-12
5.33743e-12
1.05026e-12
-1.73341e-12
2.38833e-12
-3.28906e-12
-6.94696e-12
-7.68574e-12
4.89654e-12
-2.86211e-13
2.91276e-12
-3.51115e-12
0
8.04225e-13
-3.96825e-12
1.89829e-12
-1.71384e-11
-4.40958e-12
0
3.18852e-12
-3.60459e-12
4.16493e-12
-4.56587e-12
1.48866e-12
3.70139e-11
3.83902e-11
7.42733e-12
7.62722e-13
2.45521e-14
-1.77566e-14
-7.5494e-12
-9.06449e-13
1.65065e-12
-1.60255e-12
-9.78304e-13
7.94345e-13
1.83686e-12
2.62196e-12
9.29415e-13
0
3.04719e-15
6.37036e-12
3.76712e-12
4.21167e-13
7.40224e-12
2.02103e-12
3.06232e-13
-1.90909e-13
-1.19522e-11
-2.29218e-11
5.09822e-12
-3.14915e-12
2.44927e-12
-3.71579e-12
-8.01158e-13
-1.59103e-12
-1.00489e-12
-8.54945e-14
-1.32629e-12
-1.73441e-12
2.44904e-12
9.38279e-13
1.73995e-12
1.30545e-11
2.66757e-12
-2.78807e-13
1.70542e-13
2.07092e-12
-5.30777e-13
1.43025e-12
-1.35923e-14
-1.18347e-14
5.7392e-12
-4.56581e-12
-1.19805e-12
-3.23281e-12
1.15811e-13
-2.38654e-13
3.01978e-12
-5.92906e-14
1.82348e-13
-5.02815e-12
-2.81023e-12
9.3745e-13
7.2021e-12
0
2.14596e-12
-7.45647e-12
3.38699e-13
2.43732e-12
8.01039e-12
2.33676e-13
2.43728e-13
-4.72193e-12
2.72365e-11
-6.08016e-12
-5.57634e-12
5.16643e-12
2.74587e-12
1.92927e-12
-1.6836e-12
-3.66503e-12
1.77315e-12
5.27671e-15
8.92942e-15
-5.83733e-13
-2.11129e-13
1.25327e-12
7.3317e-12
-1.93325e-13
5.58658e-13
-4.52884e-12
-2.2892e-12
4.61305e-12
4.77371e-12
-3.07981e-12
4.59392e-12
-3.57332e-12
2.18594e-12
-2.30568e-12
-2.77602e-12
-9.18057e-12
-7.26878e-12
-4.50752e-12
3.63262e-12
-1.13507e-11
-2.01671e-12
2.76162e-12
6.3781e-13
-2.17883e-11
3.77345e-12
-2.20988e-13
5.38192e-13
-3.25647e-13
2.68433e-12
-7.01088e-13
-5.96817e-12
-4.17228e-12
-2.17848e-12
6.55896e-12
1.28838e-11
6.04339e-12
-4.88533e-12
3.03569e-12
-2.28268e-12
0
1.19375e-11
2.15743e-11
0
-5.8815e-12
1.62342e-12
2.37746e-12
2.17974e-12
4.02708e-13
1.28231e-11
-1.48176e-12
2.05914e-12
5.81596e-15
2.12158e-13
-8.64001e-13
-2.4063e-14
4.85859e-13
-2.78177e-13
1.44128e-14
-2.05816e-12
4.66235e-13
-6.35118e-12
2.30893e-12
-3.00294e-13
5.06842e-12
1.59387e-12
2.17419e-12
-5.92916e-12
-2.58188e-12
-1.37944e-12
1.18366e-11
-1.56436e-12
-2.66571e-13
4.36159e-12
-1.24995e-13
9.98956e-14
-1.00347e-11
2.6832e-11
0
-3.23408e-12
6.29455e-14
-6.29156e-14
-1.88451e-14
1.86503e-14
-1.0942e-13
1.08101e-11
-1.52874e-11
0
0
-4.30918e-13
-1.97273e-12
-2.30545e-11