/*--------------------------------*- C++ -*----------------------------------*\
| =========                 |                                                 |
| \\      /  F ield         | OpenFOAM: The Open Source CFD Toolbox           |
|  \\    /   O peration     | Version:  v3.0+                                 |
|   \\  /    A nd           | Web:      www.OpenFOAM.com                      |
|    \\/     M anipulation  |                                                 |
\*---------------------------------------------------------------------------*/
FoamFile
{
    version     2.0;
    format      ascii;
    class       volScalarField;
    location    "10000";
    object      sigmaxx;
}
// * * * * * * * * * * * * * * * * * * * * * * * * * * * * * * * * * * * * * //

dimensions      [1 -1 -2 0 0 0 0];

internalField   nonuniform List<scalar> 
27023
(
-1.97778e+07
1.97808e+07
1.27334e+07
-1.27308e+07
-1.99835e+07
1.99867e+07
1.07893e+08
-1.07887e+08
4.78058e+06
-4.77486e+06
7.80593e+07
-7.80496e+07
859750
-878740
-3.12344e+07
2.54646e+06
1.71936e+06
-6.6934e+07
6.69366e+07
4.90664e+07
-4.90654e+07
1.07269e+08
-1.07264e+08
5.4881e+07
-5.48799e+07
8.62394e+06
-3.83821e+07
4.07583e+06
-3.78754e+07
3.72589e+07
1.79088e+07
4.91133e+07
-4.91133e+07
-4.99322e+07
-3.09212e+07
3.88052e+07
4.47142e+07
-4.47098e+07
4.58105e+06
-4.57875e+06
-1.27063e+07
1.27091e+07
-2.52415e+07
-1.90455e+07
1.90486e+07
6.60502e+07
-6.60476e+07
5.19183e+07
-5.19166e+07
3.43714e+07
5.00941e+07
-5.00931e+07
-4.87059e+07
479.571
-476.553
5.48667e+07
2.29553e+07
4.0819e+07
-1.86074e+07
1.21288e+07
-1.21266e+07
3.38328e+07
5.22344e+06
6.05453e+06
-2.45201e+07
1.58996e+07
4.36634e+07
1.06858e+07
-3.8909e+07
-2.35475e+07
4.28154e+07
-4.28108e+07
7.47674e+07
-7.47649e+07
9.95318e+07
-9.95299e+07
179124
-176959
-1.17316e+08
1.17319e+08
-2.91526e+07
7.54269e+07
-7.5417e+07
7.28371e+07
-7.28348e+07
-1.05678e+08
1.0568e+08
-4.35254e+07
4.19432e+06
-1.96885e+07
1.88642e+07
2.47922e+07
-2.4789e+07
2.17982e+07
-8.84554e+06
-5.50329e+07
5.50278e+07
-2.9082e+07
-1.9618e+07
934117
-3.20603e+07
-2.00694e+07
2.04005e+07
8.75916e+07
-8.75875e+07
3.52783e+06
9.79304e+07
-9.7926e+07
5.41564e+07
3.81762e+07
2.33279e+07
9.82526e+07
-9.82485e+07
5.43037e+07
-5.43033e+07
1.00387e+08
-1.00385e+08
2.41249e+07
-3.96177e+07
-2.95577e+07
2.39945e+07
2.51415e+06
-8.124e+07
8.1251e+07
1.16213e+08
-1.16208e+08
2.43649e+07
-2.43617e+07
8.9039e+07
-8.90347e+07
-1.80164e+07
-2.11903e+06
2.1538e+06
-1.68122e+07
2.07153e+07
-1.05953e+08
1.05955e+08
1.02037e+07
6.86562e+07
-6.86535e+07
-1.00884e+08
1.00891e+08
-7.12647e+06
1.0435e+08
-1.04344e+08
-1.69024e+07
-1.85392e+07
4.99136e+07
4.44732e+07
4.19426e+07
-4.19375e+07
5.2618e+07
-5.26148e+07
-3.02173e+07
-3.18282e+07
-3.30708e+07
3.30338e+07
3.13936e+07
6.78383e+07
-6.78357e+07
-6.15702e+07
-2.55212e+07
-5.32445e+07
3.67058e+06
-6.27833e+07
6.27906e+07
-9.15931e+07
9.16006e+07
-2.08617e+07
2.16054e+06
5.95531e+06
-1.18027e+08
1.1803e+08
-2.16818e+07
2.16199e+07
-3.37709e+07
2.73583e+06
-6.64717e+06
-2.21611e+07
1.07352e+07
-4.46398e+07
-9.63052e+07
9.63119e+07
-3.35327e+07
-6.11245e+07
-6.5076e+07
-5.21359e+07
5.21324e+07
-5.59244e+07
-1.99548e+07
-9.15726e+07
9.15797e+07
-2.8006e+07
4.71353e+06
1.16967e+08
-1.16961e+08
-6.90735e+07
-8.85036e+07
8.85125e+07
-3.72094e+07
3.32197e+07
-3.94915e+07
9.76134e+07
-9.76117e+07
-1.88541e+07
1.88573e+07
-2.5023e+07
-6.80761e+07
9.74031e+07
-9.74013e+07
25590.4
-25422.8
2.11873e+07
-2.66849e+07
-1.12774e+07
1.12811e+07
-3.28126e+07
2.5284e+06
6.97789e+06
-1.04068e+08
1.04071e+08
-1.81429e+07
-8.17254e+07
8.17361e+07
-3.1396e+07
9.16921e+07
-9.16894e+07
7.54245e+07
-7.5422e+07
1.94191e+06
-1.94209e+06
4.92522e+06
9.44182e+07
-9.44156e+07
-6.28206e+07
9.15855e+07
-9.15833e+07
1.0103e+08
3.78477e+07
-1.13501e+08
1.13507e+08
4.02795e+07
6.49383e+07
6.4268e+07
-5.11268e+07
2.36311e+07
298918
-3.50236e+07
5.35792e+07
-5.00428e+07
-1.08459e+08
1.08463e+08
-2.33029e+07
-1.73115e+07
-6.85079e+07
-6.9282e+07
8.3321e+07
-6.34699e+07
5.50828e+07
-5.50797e+07
2.17097e+07
3.71104e+06
5.86308e+07
9.41378e+07
-9.41355e+07
1.03464e+08
-1.03459e+08
7.82343e+06
-1.48955e+07
8.04049e+07
-8.0394e+07
4.07149e+07
-2.35585e+07
-4.40915e+07
1.03699e+07
6.06837e+06
-6.36033e+07
6.36107e+07
-5.50103e+07
5.50154e+07
4.64864e+07
-5.71589e+07
1.14613e+07
-1.12081e+07
-23252.4
22699.4
-2.36893e+07
-2.9517e+07
1.35772e+07
4.68554e+07
2.58837e+06
-2.2757e+07
-8.96876e+07
8.96905e+07
-1.04144e+08
1.04146e+08
-5.06017e+07
6.73604e+07
-9.75171e+07
9.75189e+07
1.50885e+06
8.7123e+06
-8.99456e+07
8.9951e+07
-1.36485e+07
1.53937e+07
-1.53869e+07
3.30957e+07
3.39045e+07
-6.56035e+06
-205620
-922.761
934.916
947995
-948665
4.56871e+07
-5.10323e+07
5.10357e+07
1.43767e+06
3.31198e+07
1.97283e+06
-1.97486e+06
-4.13624e+07
-2.78103e+07
-2.21829e+07
3.4406e+07
-7.93382e+07
1.05709e+07
4.63317e+07
-5.56012e+07
-1.95383e+07
5.55933e+07
-9.03637e+07
9.11565e+06
3.86144e+07
-3.30583e+07
3.30624e+07
-1.79596e+07
1.15931e+07
8.53069e+07
-8.53036e+07
-6.64642e+07
6.67722e+07
66957.7
-66609.6
-3.60498e+07
1.9336e+07
-1.9333e+07
-2.83774e+07
1.32746e+07
-5.13183e+07
5.13414e+07
9.71904e+07
-9.71879e+07
-36551.6
36575.4
6.42151e+06
-1.13273e+08
1.13277e+08
-5.93167e+06
-4.44136e+07
-9.44639e+07
9.44658e+07
-9.96427e+07
9.96523e+07
1.91503e+07
-4.11697e+07
-6.72416e+06
-2.86283e+07
2.86317e+07
-1.12062e+08
1.12065e+08
-1.87728e+07
-6.31885e+07
-2.32156e+07
-6.41852e+07
-6.38274e+07
-3.81244e+07
-4.19071e+07
4.19775e+07
3.20306e+07
-4.19716e+07
1.10082e+08
-1.10077e+08
-3.37386e+07
1.31827e+07
1.82467e+07
-6.54988e+07
-5.26592e+07
-3.68828e+06
-3.30991e+07
1.23824e+07
4.45298e+07
4.63069e+06
2.00362e+06
-9.74665e+06
4.0816e+07
2.21709e+07
-9.31337e+07
-4.3831e+07
7.4812e+07
-7.48096e+07
2.79822e+07
-2.72398e+07
1.30938e+07
-2.99501e+07
2.99536e+07
1.09531e+06
2.20641e+07
-5.02245e+07
2.99552e+06
5.01395e+07
99160.4
-99268.4
-1.90256e+07
5.42005e+07
4.06186e+07
6.65787e+07
3.58313e+07
-4.71436e+07
2.02758e+07
-5.8874e+07
1.68342e+07
7.34338e+06
4.96694e+06
-8.8801e+07
-9.48461e+07
9.48479e+07
-8.25665e+07
7.79786e+06
6.36581e+07
-3.19765e+07
9.14467e+07
-9.14446e+07
-6.53464e+07
6.53484e+07
6.6091e+07
6.12961e+06
5.51814e+06
-5.51805e+06
-8.35396e+07
8.35121e+07
5.86843e+07
-5.86815e+07
15261.2
-15325.1
-2.04444e+07
-1.46637e+07
-5.26815e+07
-5.46598e+06
-1.40212e+07
-9.05947e+07
9.06048e+07
-8.87544e+07
8.87644e+07
5.81085e+07
-5.81093e+07
4.88197e+07
-4.88151e+07
-1.25819e+07
325652
-1.28145e+07
-5.077e+07
2.3134e+07
6.20288e+07
-2.12065e+07
-1.13252e+08
1.13259e+08
-5.58146e+07
2.8349e+07
1.43075e+07
7.4802e+07
6.42965e+07
-4.36856e+07
-1.58395e+07
9.07794e+07
-9.07763e+07
-2.55782e+07
2.56334e+07
1.45583e+07
-1.45541e+07
9.33433e+07
-9.33407e+07
2.42486e+06
1.33773e+07
-1.57192e+07
2.05304e+07
9.03813e+07
9.76279e+06
-7.7753e+07
7.77632e+07
-3.62565e+07
4.48867e+07
2.87474e+06
-5.15184e+07
5.15219e+07
2.52387e+07
-2.52355e+07
3.31937e+07
-7.77542e+07
-4.50693e+07
-3.10041e+07
3.10057e+07
-5.00425e+07
-8.09433e+06
4.54268e+07
-4.54253e+07
-3.83538e+07
1.04452e+08
-1.0444e+08
7.91777e+07
-7.91681e+07
-5.16837e+07
-7.0771e+07
7.07792e+07
-2.611e+07
-3.71733e+07
8.63427e+07
-8.63404e+07
-6.65568e+07
-9.56793e+07
9.56812e+07
5.56896e+07
-8.64082e+07
8.64111e+07
-5.50593e+07
5.50658e+07
-1.31895e+07
5.50956e+07
-5.50905e+07
-4.47348e+07
-9.02752e+06
-1.05837e+07
-1.45621e+07
6.36633e+07
-6.36629e+07
-1.07886e+08
1.07889e+08
-4.05226e+07
-6.83361e+07
3.81119e+07
4.15677e+06
-4.61359e+07
-4.23926e+07
2.32459e+07
-5.22951e+06
5.22966e+06
-7.92631e+07
-1.04783e+08
1.04784e+08
4.03167e+07
4.10291e+06
-8.68707e+07
8.68742e+07
-4.35016e+07
-5.3675e+07
5.36894e+07
507067
6.35762e+06
-1.5809e+07
-3.62759e+07
-3.44736e+07
4.46203e+07
-4.46198e+07
-4.80574e+07
-1.12243e+06
7.65032e+07
-7.65005e+07
1.75564e+07
-4.82403e+07
4.82408e+07
-1.41106e+07
2.89586e+07
-2.89549e+07
-8.57572e+07
8.57652e+07
-3.39385e+07
3.39427e+07
5.35271e+07
-3.55852e+07
3.55148e+07
5.27664e+07
-4.29325e+07
4.29375e+07
-3.7371e+07
1.77271e+07
-2.02569e+07
-5.58701e+07
4.10817e+06
-1.03808e+07
-1.93522e+07
-8.85929e+07
5.15448e+07
-5.15408e+07
4.11268e+07
5.25328e+07
-5.25312e+07
-3.89124e+07
-7.16842e+07
7.16864e+07
-1.39679e+07
-3.75242e+06
-4.91569e+07
4.91571e+07
8.97904e+07
-8.97882e+07
6.86233e+07
2.51681e+07
4.08457e+07
7.49902e+07
-7.49874e+07
1.01772e+08
-1.01769e+08
3.25849e+07
-2.54304e+07
1.30465e+07
-1.33866e+07
3.63496e+07
-3.63383e+07
-4.15958e+07
-240226
-439531
441651
241399
-2.55192e+07
816445
-823710
-4.27961e+07
4.2801e+07
-2.21789e+07
2.21821e+07
2.82552e+07
-2.82516e+07
6.51457e+06
6.48208e+07
-6.48195e+07
-5.28823e+07
-2.52195e+07
-6.11977e+07
6.11986e+07
-3.16804e+07
7.08906e+07
-7.08881e+07
-4.14774e+07
-3.11454e+07
6.47013e+07
-3.14575e+07
3.14614e+07
6.35644e+07
4.75737e+06
-52844.8
-3.03507e+07
-8.89216e+07
8.89248e+07
-8.84635e+06
5.0531e+07
-1.1298e+08
1.12983e+08
14606.5
-14653
5.7129e+07
-5.71318e+07
4.96901e+07
-7.90683e+06
1.13302e+08
-1.133e+08
-3.32075e+07
-5.08527e+07
9.36666e+06
2.24164e+07
4.32686e+07
3.70615e+07
2.0599e+07
-1.78165e+06
-1.46709e+07
-6.18811e+07
3.95746e+07
5.8406e+07
-5.58167e+07
-2.83185e+07
-2.35324e+07
50812.7
-51126
7.14122e+07
-7.141e+07
4.24457e+07
-3.47078e+06
-2.50391e+07
-9.08693e+06
5.12304e+07
5.47136e+07
-5.09591e+07
-5.55164e+06
3.56359e+07
-3.91213e+07
-1.3242e+07
2.29237e+07
-2.29203e+07
4.56397e+07
7.19701e+07
-6.83828e+06
-3.58829e+07
9.06278e+07
-9.06248e+07
-9.84773e+07
9.84791e+07
-18887.5
18503.8
-4.87407e+06
-6.58956e+06
-2.84365e+07
-3.49155e+06
-4.71112e+07
4.71097e+07
3.1125e+07
3.88438e+06
-3.88471e+06
-1.04414e+08
1.04416e+08
-8.20731e+07
8.03653e+07
-8.03625e+07
-1.43883e+07
6.50559e+07
-4.08265e+07
-2.37073e+07
6.45358e+07
7.17799e+06
8.56431e+07
-8.56409e+07
3.46743e+07
-9.97316e+06
9.93474e+07
-9.93374e+07
-3.45289e+07
-9.26077e+07
-2.71001e+07
9.26119e+07
2.43719e+07
-2.43358e+07
4.6662e+07
3.39754e+07
-4.89693e+07
-1.97532e+06
-4.89192e+07
-2.27686e+07
8.60151e+07
-1.58662e+07
2.99574e+07
-2.99549e+07
-9.81417e+07
9.81436e+07
2.46784e+07
6.79552e+06
-8.67146e+07
8.67176e+07
-5.38371e+07
4.44567e+07
3.62859e+07
1.71085e+07
4.02491e+07
1.95614e+07
-1.95584e+07
-1.39487e+07
4.87107e+07
-4.871e+07
-9.7059e+07
9.7061e+07
1.10574e+06
-3.70416e+07
-6.71474e+06
-8.59582e+07
7.16977e+07
-7.16872e+07
3.65794e+07
4.18143e+06
-2.61082e+07
-5.82499e+07
-2.38867e+07
-3.46861e+07
-1.34103e+07
-3.44911e+07
4.11347e+07
9.88008e+07
-9.87988e+07
7.94844e+07
-7.94743e+07
6.47596e+07
-6.37169e+07
-1.42653e+07
6.39043e+06
9.60371e+07
-9.6035e+07
-6.74533e+07
-6.11906e+07
1.79182e+06
-2.50314e+07
7.61109e+06
3.42411e+06
-3.41732e+06
-2.60582e+07
-1.0329e+07
1.04546e+08
-1.04539e+08
-2.73565e+06
2.79724e+07
-5.36881e+06
1.16416e+08
-1.16413e+08
-3.44551e+07
3.44606e+07
-4.10992e+07
-2.02859e+07
2.02896e+07
-1.44852e+07
-6.58299e+06
3.41361e+06
6.27164e+06
8.96249e+07
-8.96228e+07
-1.2819e+07
-5.05866e+07
5.05894e+07
1.00546e+08
-1.00545e+08
-3.37258e+07
3.35e+07
4.88749e+07
-4.88703e+07
-1.00087e+08
1.00095e+08
1.15578e+07
-6.33644e+07
1.02728e+08
-1.0272e+08
-6.6356e+07
-4.8841e+06
4.88045e+07
-4.88008e+07
7.97308e+07
-7.97285e+07
-5.61925e+07
-8.93762e+07
8.93792e+07
-1.10114e+08
1.10116e+08
5.61864e+07
2.71593e+07
3.90625e+07
1.77388e+07
7.01745e+07
-7.01719e+07
-8.84591e+07
5.34195e+06
6.72316e+06
8.84601e+07
2.813e+07
4.51875e+07
-3.92633e+07
4.849e+07
-4.84899e+07
994662
1.29157e+07
-4.76005e+07
7.09508e+07
-7.09763e+07
2.75675e+07
-3.13386e+06
66943.2
-65406.2
-3.5321e+07
-4.0561e+07
-3.28201e+07
1.02546e+08
-1.0254e+08
-5.92221e+07
-4.9005e+07
-5.79581e+07
3.04326e+07
4.64467e+07
-4.64416e+07
-6.3089e+07
2.37582e+07
5.92612e+07
-3.4914e+07
3.51216e+07
5.79561e+07
-5.8364e+07
5.00726e+07
-5.00687e+07
-8.78057e+07
8.78077e+07
5.71183e+07
-2.02332e+07
3.7041e+07
8.16481e+07
-8.16386e+07
-8.02762e+07
8.0279e+07
105541
-3.02709e+07
7.06071e+07
-7.06046e+07
-4.09256e+07
7.53944e+06
-7.53811e+06
-3.23061e+07
-3.287e+07
8.87898e+07
-5.34047e+07
-5.59102e+07
-6.70438e+07
3.61367e+07
-3.8565e+07
-1.2944e+07
1.01146e+08
-1.01143e+08
-5.57585e+06
1.2987e+06
1.77642e+07
-3.92924e+07
-1.68103e+07
-9.31701e+06
-5.52465e+06
3.72316e+07
-2.9557e+07
2.61536e+06
1.49392e+07
-3.50183e+07
2.8755e+07
-8.12268e+07
2.01517e+07
-2.07985e+07
-5.36199e+06
5.36215e+06
3.43612e+07
-1.05464e+07
1.05452e+07
-2.78116e+07
-1.56837e+07
6.52585e+07
-6.52574e+07
3.52393e+07
7.60557e+06
-7.60753e+06
-2.94475e+07
-1.74525e+07
3.28509e+07
-4.29803e+07
4.9263e+07
3.13778e+07
-9.42877e+07
3.8324e+07
3.18193e+07
5.3196e+07
2.13403e+07
-2.13372e+07
1.28073e+07
-1.3043e+07
285441
-285812
5.23599e+07
-1.59506e+06
3.90299e+07
2.8929e+07
-3.8413e+07
3.841e+07
-6.5443e+07
-1.19312e+07
3.33356e+07
-77188.3
77010
-3.71022e+07
-2.54515e+07
-774996
4.42069e+06
-1.84761e+07
6.40859e+07
3.29285e+07
-4.80529e+07
-3.98664e+07
3.98637e+07
-7.50581e+07
-5.85356e+07
1.23171e+06
7.16655e+06
-4.36748e+07
-6.79177e+07
6.79285e+07
2.80573e+06
-2.94994e+07
-7.21316e+07
-5.66472e+06
5.66494e+06
-3.83514e+07
1.74744e+07
3.89388e+07
-9.00694e+07
9.00723e+07
-1.67669e+07
-4.75005e+07
4.75145e+07
6.20286e+07
-6.20191e+07
2.93732e+07
-3.90159e+07
233213
-230931
-3.17451e+07
1.52298e+06
1.15135e+07
9.83019e+07
-9.82996e+07
-1.14831e+07
1.06253e+08
-1.06242e+08
6.06617e+06
4.71594e+07
-1.58393e+07
-6.9489e+07
-2.93295e+07
-9.95966e+06
6.94996e+07
7.08036e+07
8.25397e+06
-2.95336e+07
-4.19317e+07
4.19316e+07
4.05469e+07
-4.1721e+07
6.32809e+07
3.12753e+07
4.28312e+07
-9.40073e+06
7.20668e+06
-1.47694e+07
-2.37996e+07
2.76071e+06
9.20529e+06
-1.46585e+07
-9.77571e+06
484789
4.13316e+07
2.40468e+07
-5.34344e+07
-3.92504e+07
-1.77581e+07
-6.55227e+07
6.13847e+07
-5.72636e+07
5.72686e+07
1.20425e+07
-4.89109e+06
-3.76692e+07
3.76617e+07
7.70068e+07
-7.7004e+07
-2.6259e+07
-1.0248e+07
5.29342e+07
-6.04792e+06
6.04647e+06
9.55507e+07
-9.55487e+07
6.53167e+06
1.41801e+06
-3.40354e+07
-9.56576e+06
-7.84767e+06
-1.87641e+06
-8.45177e+06
-2.09283e+06
6.53233e+07
6.32752e+07
-6.32741e+07
3.67661e+07
-3.67155e+07
1.64644e+07
1.57415e+07
9.57976e+07
-9.57955e+07
8.36431e+06
1.67728e+07
3.72158e+07
-1.39643e+07
-5.98876e+07
-2.54511e+07
2.33845e+07
-1.94998e+07
7.14741e+07
-1.0962e+07
-2.2291e+07
8.49318e+07
6.57015e+07
-6.57001e+07
-7.56441e+07
1.28879e+07
4.15788e+07
-3.14065e+07
3.26004e+07
8.39052e+07
-8.38419e+07
-3.28779e+07
-8.69274e+07
-3.59134e+06
3.59279e+06
6.47263e+06
-6.47162e+06
2.40803e+07
3.47838e+07
-3.19605e+07
9.89553e+07
-8.99871e+07
8.99982e+07
1.38453e+07
-1.38394e+07
-1.59653e+07
1.01239e+08
-1.01236e+08
-4.07427e+07
4.02019e+07
-1.09951e+07
-23281.4
23217.9
-3.33486e+07
-1.58372e+07
8.06371e+07
-2.15302e+07
-9.27341e+07
9.27407e+07
3.57027e+07
7.70073e+07
-7.64618e+07
2.88631e+07
1.89563e+07
-2.62021e+06
3.79626e+07
-3.79602e+07
-9.51058e+07
9.51081e+07
-1.77979e+07
-4.43742e+07
4.43694e+07
-8.93291e+07
8.93319e+07
1.97e+07
-4.82619e+07
4.05839e+07
-1.59684e+07
3.50682e+07
-3.50625e+07
-3.10413e+07
1.43418e+07
6.95881e+07
-712219
-2.83571e+07
2.83604e+07
-4.14366e+07
1.9885e+07
8.25428e+07
8.30626e+07
-8.30599e+07
6.17864e+07
-8.16933e+06
-3.15346e+07
3.10437e+07
1.02326e+08
-1.02316e+08
-4.40082e+07
6.96555e+07
-6.96531e+07
4.27828e+07
-6.88152e+07
-5.50527e+07
5.5052e+07
3.67851e+07
2.52975e+07
1.95917e+06
-3.05483e+06
-5.11354e+07
1.61549e+07
-1.30826e+07
36942.8
-37163
6.88776e+07
8.18496e+06
-8.18316e+06
8.20848e+07
-8.20755e+07
16872
1.00279e+08
-1.0027e+08
-6.72045e+07
6.72117e+07
-1.08293e+08
1.08295e+08
2.802e+07
9.98067e+07
-9.98046e+07
8.15399e+06
-3.37931e+07
-1.3975e+06
-3.10787e+07
2.16724e+07
-2.95869e+07
7.76342e+07
-7.7633e+07
-2.03963e+07
2.04018e+07
2.0459e+07
-2.81376e+06
1.56368e+06
6.33334e+07
1.10451e+07
4.61278e+07
-6.84966e+07
1.04554e+07
-1.37018e+07
2.97771e+06
-2.97799e+06
6.38112e+07
-4.39442e+07
6.29403e+07
-4.0905e+07
-1.98738e+07
8.03045e+06
4.23735e+07
-4.23601e+07
4.15616e+07
2.30921e+07
-3.70322e+07
3.70208e+07
-1.56614e+07
-4.89597e+07
-9.69215e+07
-5.17761e+07
5.17763e+07
6.82645e+07
-3.28885e+07
4.01046e+07
-4.22814e+07
5.13295e+07
9.69272e+07
4.22838e+07
5.39387e+07
4.41976e+07
2.59023e+07
4.0485e+07
-1.31626e+07
3.5456e+07
2.66181e+07
2.02964e+07
-6.35842e+06
-2.1785e+07
3.73084e+07
-4.00968e+07
-2.46419e+07
7.86966e+07
-7.86943e+07
-5.6614e+07
1.57518e+07
-1.44438e+07
-1.69321e+07
6.72356e+07
-6.52209e+07
7.80587e+06
-8.08213e+07
-2.80324e+07
1.22541e+07
6.52338e+07
3.5835e+07
-5.25776e+07
2.24066e+07
-9.76896e+06
6.16e+07
-6.06879e+07
4.16406e+07
59427.5
-60520.5
-6.86378e+07
-7.42948e+07
7.43052e+07
3.5225e+06
8.5326e+07
-8.532e+07
1.01945e+07
1.79174e+07
-1.79144e+07
-4.45685e+07
335122
1.03566e+07
1.04409e+08
-1.04408e+08
-5.01921e+06
-8.02618e+07
8.71679e+07
-3.19754e+07
8.24574e+07
-8.24488e+07
-4.55112e+07
1.27697e+07
7.91351e+06
-7.44521e+07
3.92486e+07
-3.92556e+07
9601.64
-9695.78
5.20706e+06
2.43943e+07
4.66134e+07
-4.66086e+07
8.81009e+07
-8.80975e+07
-7.34209e+07
1.61519e+07
3.26335e+07
8.12765e+07
-8.12731e+07
3.971e+06
-153644
152520
-7.69708e+07
7.69503e+07
-8.8137e+07
8.81401e+07
-8.1674e+07
9.54101e+07
-9.54079e+07
6.08113e+07
-6.08024e+07
4.54284e+07
-2.11094e+07
-8.91725e+07
8.70803e+07
3.69614e+07
2.43421e+06
-8.70804e+07
1.58167e+07
4.5608e+07
4.83267e+07
5.25878e+07
3.10727e+07
9.10375e+07
-9.10354e+07
-2.35437e+07
-6.94184e+07
6.94261e+07
9.832e+07
-9.83163e+07
-3.43272e+07
-6.56497e+07
6.56516e+07
3.92125e+07
-3.92182e+07
-3.89982e+07
3.7553e+07
-3.75492e+07
3.89597e+07
-9.85657e+07
9.85676e+07
2.48903e+07
-1.72093e+07
-3.95522e+07
-7.44393e+06
3.39162e+07
-3.38463e+07
1.49819e+07
-3.77436e+07
1.80758e+07
-3.00543e+07
-4172.83
4165.91
-1.07725e+08
1.07729e+08
-1.52886e+07
2.7527e+07
1.03996e+08
-1.03986e+08
-4.15769e+07
3.61029e+07
1.98528e+07
-6.46605e+07
6.50111e+07
3.91654e+07
-2.48055e+06
-6.71943e+07
8.83579e+06
-1.02968e+08
1.02977e+08
-4.26089e+07
4.26099e+07
-6.23187e+07
6.23216e+07
1.57329e+06
-1.58841e+06
1.75442e+07
-6.15017e+07
-1.23928e+07
-3.45019e+07
-3.60882e+07
-7.44191e+06
1.09128e+06
-1.09179e+06
-1.77178e+07
-2.35671e+06
3.38964e+07
-3.88247e+07
3.8829e+07
3.04936e+07
-2.32052e+06
-4.7249e+07
6.83025e+07
-6.83001e+07
-4.16763e+07
6.59348e+06
-6.92599e+07
6.92623e+07
-2.8869e+07
-6.88558e+07
6.88576e+07
-5.68957e+07
-3.12691e+07
-3.91015e+07
-2.06756e+07
2.32502e+07
-2.33438e+07
8.81998e+07
1.97146e+07
5.07132e+07
-5.07098e+07
2.33001e+06
4.06783e+07
-4.06734e+07
6.89524e+06
7.55836e+07
-7.55811e+07
-2.4128e+07
2.41312e+07
-4.23704e+06
-2.2828e+07
2.28346e+07
-7.58832e+07
7.58856e+07
4.69611e+07
-2.75751e+07
-4.67446e+07
3.98768e+07
-3.98719e+07
4.65285e+07
-1.55126e+07
-4.14252e+07
4.14331e+07
1.02591e+07
8.82459e+07
-8.82335e+07
1.23481e+07
5.97877e+07
9.62242e+07
-9.62223e+07
-200630
202378
-3.83467e+06
8.52572e+07
-8.52541e+07
1.06028e+07
3.96519e+07
-3.96466e+07
3.98685e+06
-3.98652e+06
-1.20854e+06
3.88265e+07
8.77369e+07
-8.77246e+07
-1.11685e+08
1.1169e+08
3.59081e+07
4.19233e+06
-5.11628e+06
5.11642e+06
2.58703e+07
-24991
24912.3
-1.02888e+08
1.0289e+08
-2.76364e+07
8.20399e+06
-8.20299e+06
1.2372e+07
-8.80643e+07
8.80676e+07
-2.30039e+07
-1.20215e+07
-9.70191e+07
9.70216e+07
-8.81376e+07
8.81478e+07
-2.70513e+07
2.41924e+06
-6.44026e+07
3.01498e+07
-1.9893e+07
-1.02804e+07
3.3263e+07
3.67592e+07
-4.21013e+07
4.21626e+07
-7.88361e+07
7.88387e+07
9.66725e+07
-9.66704e+07
7.73497e+07
-4.06687e+07
-9.08337e+06
3.33306e+06
-9.11442e+07
-3.98352e+07
6.2847e+07
5.84794e+07
-6.34796e+07
5.30074e+07
-5.30054e+07
-3.15887e+07
3.15926e+07
7.85585e+06
-1.11269e+07
-3.8818e+07
1.87476e+06
-3.99326e+06
3.23933e+07
-3.55619e+07
-1.5057e+07
4.24662e+07
-4.24627e+07
937600
-4.75183e+07
4.75218e+07
-1.966e+07
-9.93718e+07
9.9385e+07
-9.31487e+07
9.31548e+07
-1.41297e+07
-6.99083e+07
6.99104e+07
1.18036e+08
-1.18032e+08
7.797e+07
-7.79673e+07
3.75856e+07
-3.75808e+07
8.58567e+07
2.08041e+07
2.71297e+07
-1.26968e+07
-3.30002e+07
3.30039e+07
-7.10442e+07
7.10463e+07
-2.45771e+07
2.41319e+07
-2.08487e+07
1.11259e+08
-1.11257e+08
4.14936e+07
-5.67604e+07
5.67625e+07
-3.25004e+07
-4.05839e+07
5.96236e+07
-1.80755e+07
3.77455e+07
-3.77033e+07
5.49854e+06
-4.24293e+07
3.90963e+07
817254
-817495
7.2758e+07
1.49962e+07
1.48589e+07
-2.1322e+07
-5.15516e+07
-8.39905e+07
2.01499e+07
1.29765e+07
-1.29738e+07
8.3875e+07
-8.38722e+07
4.27334e+07
-4.27285e+07
-2.35048e+07
2.02199e+07
1.94995e+07
1.13388e+07
-2.06803e+07
-7.11227e+07
2.61562e+07
2.85571e+07
1.24724e+07
-8.12036e+07
8.11753e+07
1.36887e+06
-1.36974e+06
2.21514e+07
1.77877e+07
-5.52673e+07
5.52665e+07
3.81568e+07
-3.8152e+07
1.03122e+08
-1.0312e+08
-2.64417e+07
-1.34678e+07
1.33581e+07
6.63617e+06
-7.51617e+07
7.6082e+07
-9.22041e+07
9.22064e+07
4.16752e+07
-1.6017e+06
6.90649e+07
-6.90545e+07
-4.4518e+07
4.42448e+07
3.29418e+07
-1.31208e+07
-4.26862e+07
-2.108e+07
3.52338e+07
-3.51776e+07
5.3858e+07
-5.3854e+07
-6.2126e+07
9.16463e+07
-9.16436e+07
7.86216e+07
-7.86115e+07
8.4508e+07
3.65642e+07
-3.65332e+07
-2.30842e+07
2.30878e+07
1.31242e+07
-2.44567e+07
-4.97022e+07
-3.87302e+07
3.87352e+07
-4.48776e+06
4.48756e+06
2.21549e+06
4.90881e+07
-6.33028e+07
6.33045e+07
5.0014e+07
2.20014e+07
-1.10443e+08
1.10447e+08
2.11579e+07
5.88933e+07
-7.46654e+07
2.33659e+07
-6.59282e+07
-7.64745e+07
7.64771e+07
2.64419e+07
8.15086e+07
-8.15057e+07
1.53727e+07
2.64452e+07
6.5931e+07
-5.91228e+07
5.91245e+07
-3.03724e+07
3.22738e+07
-382352
9.50235e+07
-9.5021e+07
8.41675e+06
-1.4263e+07
5.47299e+07
-5.47267e+07
3.43834e+07
-3.55837e+07
3.53314e+07
3.84122e+06
2.58342e+06
-2.41844e+06
5.23975e+07
-5.23957e+07
1.09718e+07
-1.61124e+07
-3.5654e+07
6.66353e+07
-5.04088e+06
-1.81854e+07
-6.06849e+06
2.52252e+06
3.42866e+07
8.05669e+07
-2.77415e+07
7.67377e+07
-7.6727e+07
-3.63282e+07
1.18894e+06
-1.18931e+06
8.24491e+07
-8.24428e+07
2.81929e+07
-8.76643e+07
8.76724e+07
3.54429e+07
7.94836e+07
-1.127e+07
-87131.7
87027.4
5.60627e+06
-7.1049e+07
7.10519e+07
-4.57238e+07
4.94149e+06
4.71789e+07
-575163
-7.72914e+07
3.64248e+07
-2.43233e+07
2.43286e+07
4.27435e+07
-4.27386e+07
-4.05843e+07
1.84358e+07
3.50699e+07
-7.95837e+07
7.9587e+07
-9.16263e+06
5.25137e+06
-5.2507e+06
-955941
-9.68694e+07
9.68714e+07
-1.37156e+07
2.37099e+07
-3.22348e+07
2.79909e+07
-2.8082e+07
4.46952e+07
-4.46916e+07
-3.22747e+07
3.52728e+07
-4.67233e+07
4.68371e+07
5.71545e+07
-3.92398e+07
-5.88796e+07
4.44477e+06
-7.28186e+07
-1.53962e+07
3.74699e+07
-3.74589e+07
-1.1209e+06
1.44977e+07
-1.44947e+07
7.88486e+07
-7.88528e+07
6.51332e+07
8.90239e+07
5.89337e+06
1.39089e+07
3.80449e+07
3.09003e+06
-7.39522e+07
-7.12278e+07
4.90042e+07
3.04627e+07
-4.06714e+07
-1.35524e+07
4.03052e+07
-5.11434e+07
5.11451e+07
5.19059e+07
-5.19039e+07
6.48031e+07
-6.54594e+07
2.89347e+07
-4.86206e+07
4.86241e+07
5.1365e+06
-5.39308e+07
5.41894e+07
-8.0348e+07
8.03508e+07
2.02632e+07
5.51563e+07
-1.1846e+07
-4.04871e+07
-7.26381e+07
9231.33
-9294.42
3.53435e+07
-1.91266e+07
2.32064e+07
-2.01866e+07
1.07997e+07
3.77723e+07
-3.77665e+07
-6.67173e+07
6.67186e+07
3.62264e+07
-7.70592e+07
9.94544e+07
-9.94523e+07
-5.94432e+07
5.94436e+07
3.17208e+07
2.23935e+07
2.54561e+07
3.29157e+07
5.69667e+07
-5.70918e+07
2.28463e+07
-5.09578e+07
5.09508e+07
-3.49165e+07
3.49208e+07
5.39424e+07
2.24611e+07
-2.2458e+07
3.75145e+07
-3.75022e+07
4.87491e+07
-2.90725e+07
2.8956e+07
-1.78265e+07
1.56512e+07
1.80116e+06
-2.03051e+07
-3.61522e+07
3.711e+06
-3.70747e+06
-3.02819e+07
3.61638e+07
-6.23006e+07
6.23035e+07
2.44273e+07
3.24199e+07
3.42923e+07
3.97723e+07
3.41339e+07
-3.41297e+07
4.23319e+07
-9.5486e+07
9.54943e+07
4.14798e+07
4.05123e+07
-2.01915e+07
-6.35843e+07
5.66707e+07
-5.66694e+07
1.99404e+07
4.74609e+07
3.881e+07
-8.86489e+07
8.86509e+07
5.8098e+07
-5.80797e+07
2.9933e+07
-3.17396e+07
-2.63096e+07
-7.02531e+06
2.69917e+07
2.35056e+07
3.15056e+07
-2.92776e+07
3.41911e+06
-4.07251e+06
-6.72347e+07
6.72364e+07
8.28758e+06
1.0151e+08
-7.28304e+07
7.28327e+07
6.52367e+07
-4.64572e+07
3.88952e+07
-3.21921e+07
4.64801e+07
-9.38753e+07
9.38771e+07
1.34535e+07
4.83666e+07
-7.01124e+07
7.01146e+07
4.01422e+07
-3.46166e+07
5.58929e+07
7857.42
-7730.45
3.44624e+07
8.39475e+07
-8.39402e+07
3.35322e+07
-2.33479e+06
2.86314e+07
6.68903e+07
-5.41891e+07
-2.451e+06
-1.01501e+08
57450.1
-57589.4
-2.19488e+07
4.74581e+07
1.56069e+07
87753.8
-86015.9
4.39979e+07
-6.35116e+07
6.35138e+07
1.04527e+08
-1.0452e+08
-3.33599e+07
3.3364e+07
3.90081e+07
1.92446e+06
-1.90932e+06
-3.95386e+07
-1.94752e+07
2.76896e+07
2.97449e+06
-3.5285e+07
-3.31527e+07
7.46723e+07
-7.46852e+07
-7.12382e+07
7.12411e+07
-9.26917e+06
-3.66509e+07
-9.08553e+07
2.38301e+07
-4.53835e+07
-1.37133e+06
4.26888e+07
4.43479e+07
1.04491e+08
-1.04479e+08
-7.13202e+07
-2.59052e+07
-5.47855e+07
5.47917e+07
-1.18424e+07
-3.2976e+06
1.03292e+06
3.17296e+07
13002.3
-12924.5
-1.7475e+07
8.85953e+06
-8.86017e+06
-697869
-9.22058e+07
9.22114e+07
-1.57199e+07
-4.01252e+07
5.30647e+07
4.01394e+07
-7.4211e+07
7.41712e+07
1.72788e+07
-2.07391e+07
-3.73513e+07
5.01237e+06
-9.13643e+07
9.137e+07
4.81901e+07
-4.82784e+07
-9.2596e+07
1.48785e+07
-1.10541e+08
1.10547e+08
2.01746e+07
-2.01715e+07
-3.54541e+07
7.37036e+07
-1.00751e+07
-5.92538e+07
5.92535e+07
1.00606e+08
-1.00604e+08
-1.00722e+06
-5.73458e+06
4.28933e+07
8.71821e+07
3.54591e+07
2.21576e+07
-6.79869e+07
6.79891e+07
-1.66171e+07
2.78892e+07
-4.22569e+07
-6.48595e+07
-1.65157e+07
-4.06963e+07
6.17146e+07
-6.17118e+07
8.18915e+07
-9.92305e+07
9.92326e+07
118965
-118633
4.77755e+07
3.86376e+07
1.01774e+08
-4.7153e+07
-5.43168e+07
5.43159e+07
-5.50733e+07
3.63571e+07
-7.58747e+07
3.4654e+07
-1.76246e+07
-1.06016e+08
1.06019e+08
-6.94871e+07
-5.15446e+07
5.15499e+07
-1.11777e+08
1.11783e+08
-1.01762e+08
-13054.2
13018.3
3.29307e+07
-1.09303e+08
1.09305e+08
-5.78692e+07
5.78724e+07
-3.8502e+06
3.84972e+06
5.35048e+07
1.73581e+07
7.96523e+07
-7.96498e+07
-1.49589e+07
-2.22092e+07
6.67657e+07
-6.67634e+07
-4.12434e+07
-3.02313e+07
8.4258e+07
-8.42547e+07
-3.49799e+07
9.90134e+06
-9.89849e+06
5.71393e+07
111023
-3.02027e+07
1.07437e+08
-1.07425e+08
7.71821e+07
5.31189e+07
-5.31169e+07
-3.98706e+07
3.98769e+07
3.6583e+06
-3.65835e+06
1.78809e+07
6.79481e+07
-6.47239e+06
6.47251e+06
-6.1758e+07
6.17608e+07
-2.08533e+07
7.19028e+06
2.75729e+07
5.50718e+07
1.5965e+07
1.20384e+07
7.59882e+07
-7.59783e+07
7.70672e+07
-7.70645e+07
-1.17227e+08
1.17232e+08
-3.20464e+07
-3.62435e+07
3.59048e+07
7.46059e+07
-7.4603e+07
-2.94798e+07
-277389
278241
-1.54908e+07
-5.82992e+07
3.85859e+07
-3.85925e+07
-8.96443e+07
2.29142e+07
-4.69244e+07
-9.88465e+07
9.88483e+07
-3.09092e+07
-3.81946e+07
3.82165e+07
2.07118e+06
2.80728e+07
-2.48927e+06
-5.59832e+07
-6.93451e+07
6.93556e+07
-8.46164e+06
-3.17517e+07
9.78561e+07
-4.52289e+07
4.52336e+07
1.8557e+07
7.71877e+07
-7.7185e+07
1.09053e+06
-2.33289e+07
-2.36256e+07
6.4063e+06
-1.6637e+07
7.18325e+06
-7.69576e+07
7.69599e+07
7.42621e+07
-7.42566e+07
-1.3056e+07
-9.50142e+07
9.50171e+07
-6.67135e+06
1.40893e+07
6.66146e+06
-2.98453e+07
2.98438e+07
3.41872e+07
-2.96591e+07
1.72535e+07
5.88628e+06
-3.28987e+07
2.55321e+07
7.39949e+07
-7.39905e+07
-1.89226e+07
-3.41341e+07
6.14836e+07
-2.50919e+07
-8.5128e+07
-6.86945e+07
-2.42374e+07
1.58431e+07
7.35321e+06
1.35888e+07
-1.03648e+08
1.03651e+08
-1.01001e+08
1.01003e+08
2.79951e+06
2.58159e+06
-2.59764e+06
-4.22715e+07
-1.89332e+07
3.29211e+07
-4.20109e+06
8.34153e+06
-7.62308e+07
-7.26671e+06
3.29371e+06
-1.03215e+08
1.03217e+08
-2.20682e+07
6.94177e+06
8.15642e+07
2.13751e+07
-2.13718e+07
-6.9798e+07
8.47827e+07
1.96669e+07
5.95957e+07
2.49217e+07
-5.3443e+07
5.96426e+06
-6.41212e+06
-1.99266e+07
522124
-1.06992e+08
1.06994e+08
3.00777e+06
-2.99243e+06
2.8033e+07
4.91013e+06
5.42487e+07
-5.42211e+07
2.44161e+07
-1.92492e+07
2.43473e+07
-6.17652e+07
6.17678e+07
8.16709e+07
-6.17831e+06
4.97869e+07
-3.41922e+07
1.1833e+06
-6.54126e+07
2.12701e+06
-3.90975e+07
-649537
3.36064e+06
2.67451e+07
2.69622e+06
2.49462e+07
-4.81894e+07
1.02454e+08
-1.02452e+08
-4.60969e+07
4.60946e+07
2.83797e+07
-2.84108e+07
1.08159e+07
-5.66035e+07
4.21428e+07
-3.24153e+07
3.2419e+07
-8.03839e+07
3.17488e+07
-2.59392e+06
4.24936e+07
-3.96665e+07
-2.58021e+07
-1.43471e+07
-2.3835e+06
2.40443e+06
-4.0721e+07
4.0726e+07
-3.81085e+06
3.81061e+06
6.06521e+07
-5.53535e+07
2.61096e+07
-1.5813e+07
-3.20524e+07
2.55907e+07
779872
-3.12254e+06
-5.54207e+06
-2.84853e+07
5.50656e+07
-2.33104e+06
1.23279e+07
5.03414e+07
7.3818e+07
-7.383e+07
4.63439e+07
-3.60451e+06
-1.15791e+07
7.87045e+07
-7.8702e+07
7.16356e+07
-7.16329e+07
-3.6366e+07
-1.5279e+07
-2.70548e+07
-3.35346e+07
3.37613e+07
3.16093e+07
-3.03408e+07
-9.0091e+06
-2.99156e+07
-1.8921e+07
1.84854e+07
-9.89328e+06
-8.58923e+06
1.32116e+06
-1.32579e+06
1.2713e+07
-4.8575e+07
6.22519e+07
-1.44838e+07
-4.88158e+07
4.88101e+07
-9.05864e+07
5.42078e+07
-5.42049e+07
415774
-414826
3.45641e+07
7.64666e+07
-7.64639e+07
148863
-3.91751e+07
895229
2.28495e+06
-2.14771e+07
2.14467e+07
-6.60265e+07
6.60287e+07
-2.07719e+07
5.65868e+06
4.85853e+07
8.97099e+07
-8.97011e+07
7.76879e+07
-7.76852e+07
3.61665e+06
-4.93471e+07
4.93475e+07
3.63754e+07
2.95399e+07
-8.72027e+07
8.72053e+07
1.34392e+07
-3.11248e+07
-3.5656e+07
1.20523e+07
-37290.4
37165.8
-5.94591e+07
5.94615e+07
-5.00954e+07
5.00987e+07
3.10849e+06
-3.10883e+06
-2.54367e+07
1.08452e+06
-1.08488e+06
-5.38367e+07
-7.47518e+07
3.44886e+07
5.53711e+07
-5.5368e+07
6.49127e+06
-6.27839e+07
5.93263e+06
-5.82314e+06
-6.86455e+07
-4.31937e+07
4.31987e+07
-3.06827e+07
-1.83247e+07
-6.80728e+07
-9.73601e+07
9.73701e+07
6.20493e+07
7.23179e+07
-7.23117e+07
4.87847e+07
-4.87839e+07
-27885.5
27795
3.22615e+07
3.7638e+07
2.1305e+07
9.71788e+07
3.60827e+07
3.87052e+07
-3.2248e+07
-3.17269e+07
9.61957e+07
-9.61931e+07
4.34911e+06
8.62636e+07
-8.62614e+07
-3.8724e+07
-4.78778e+07
4.78771e+07
-8.38815e+07
3.73593e+07
-8.37153e+07
8.37184e+07
-7.58331e+07
3.75304e+07
5.45172e+07
2.70967e+07
3.03699e+07
-6.67373e+07
6.67397e+07
2.99539e+07
-2.99468e+07
-1.60084e+07
-2.76926e+06
8.2115e+07
3.07789e+07
-7.90982e+06
-4.42937e+07
4.44228e+07
-1.44386e+07
-1.10319e+08
1.10321e+08
-8.07415e+07
8.07444e+07
7.55674e+06
-1.70854e+07