/*--------------------------------*- C++ -*----------------------------------*\
| =========                 |                                                 |
| \\      /  F ield         | OpenFOAM: The Open Source CFD Toolbox           |
|  \\    /   O peration     | Version:  v3.0+                                 |
|   \\  /    A nd           | Web:      www.OpenFOAM.com                      |
|    \\/     M anipulation  |                                                 |
\*---------------------------------------------------------------------------*/
FoamFile
{
    version     2.0;
    format      ascii;
    class       volScalarField;
    location    "10000";
    object      sigmayy;
}
// * * * * * * * * * * * * * * * * * * * * * * * * * * * * * * * * * * * * * //

dimensions      [1 -1 -2 0 0 0 0];

internalField   nonuniform List<scalar> 
27023
(
-1.58813e+07
1.58838e+07
1.26182e+07
-1.26184e+07
-1.49205e+07
1.49226e+07
5.69969e+06
-5.69874e+06
8.8344e+06
-8.84057e+06
8.83549e+06
-8.83626e+06
2.33012e+06
-2.33088e+06
-834670
132197
483468
-1.4578e+06
1.45835e+06
2.26675e+06
-2.26177e+06
4.86937e+06
-4.86845e+06
7.29372e+06
-7.28968e+06
831294
-5.20253e+06
-39543
-5.69337e+06
-144764
1.05153e+06
2.25258e+06
-2.24956e+06
-102247
-905650
137748
3.853e+06
-3.85405e+06
8.25129e+06
-8.25585e+06
-1.33722e+07
1.33723e+07
-211909
-1.46426e+07
1.4645e+07
1.36286e+06
-1.36228e+06
5.66152e+06
-5.65778e+06
-163651
5.32856e+06
-5.32495e+06
-75478.2
578858
-575956
206926
281344
-42359.7
36687.2
1.38761e+07
-1.38758e+07
75096.3
264188
-176755
-94232.6
1.14364e+06
1.47727e+06
899148
-4.3685e+06
-223773
4.04727e+06
-4.04825e+06
6.90862e+06
-6.90625e+06
137706
-137696
1.00377e+06
-1.00328e+06
-1.64957e+06
1.64966e+06
-3.85844e+06
8.37492e+06
-8.37538e+06
7.30382e+06
-7.30135e+06
16735.4
-16736
-1.43622e+06
195484
82225
182716
1.31421e+07
-1.31396e+07
2.36417e+06
-498158
-6.83735e+06
6.84032e+06
-3.99884e+06
-202360
-35933.5
-12252.1
-115732
429398
7.16698e+06
-7.16485e+06
-154149
5.43499e+06
-5.43386e+06
456701
406418
-177979
6.43277e+06
-6.43154e+06
6.73805e+06
-6.73557e+06
173136
-173076
-1.36805e+06
-2.5874e+06
-2.46807e+06
364177
32846
-1.32678e+07
1.32692e+07
2.45814e+06
-2.45781e+06
1.23302e+07
-1.23275e+07
7.75081e+06
-7.74836e+06
-180281
-1.26999e+06
1.16526e+06
-1.2626e+06
231258
-181356
181358
1.41175e+06
2.14027e+06
-2.13965e+06
-7.35677e+06
7.35849e+06
-827638
6.06109e+06
-6.05985e+06
-924784
8053.2
6.20788e+06
1.48672e+06
1.72887e+07
-1.72866e+07
1.26584e+07
-1.26556e+07
-6201.03
-2.33571e+06
-369258
660242
944044
2.15954e+06
-2.15899e+06
217025
-32463
-45304.1
427961
-1.17704e+07
1.17714e+07
-7.26615e+06
7.26833e+06
-2.85659e+06
249570
174877
-1.92211e+06
1.92216e+06
162079
318746
-526219
162848
-1.27001e+06
148147
1.87652e+06
-1.49942e+06
-6.45433e+06
6.45604e+06
226613
-266788
-389271
-6.99781e+06
7.00309e+06
-30536.4
21062.5
-8.27596e+06
8.27787e+06
-3.75074e+06
18809.1
3.84018e+06
-3.8399e+06
-23176.2
-8.08952e+06
8.09101e+06
-2.71219e+06
885349
-4.62449e+06
-13325.9
13302.6
-1.3078e+07
1.30799e+07
-2.16679e+06
-150511
118229
-118257
113466
-112959
1.73127e+06
-2.38463e+06
-1.85601e+06
1.85336e+06
-4.25216e+06
532060
44291.2
-725834
725870
-80030.5
-1.17997e+07
1.18006e+07
-46435.2
2.46092e+06
-2.46061e+06
7.30769e+06
-7.30487e+06
4.78494e+06
-4.78895e+06
-448493
2.04017e+06
-2.03995e+06
-86551.5
670487
-670385
116912
312219
-4.55145e+06
4.55181e+06
5.41906e+06
87874.2
169589
-651945
1.49274e+06
534315
-4.62812e+06
-89257
-515925
-4.0058e+06
4.00631e+06
140838
-2.55166e+06
3448.87
-164901
12389.5
-165261
2.20339e+06
-2.20168e+06
-1.81218e+06
853746
452615
652126
-651989
5.36847e+06
-5.36743e+06
241417
-1.6604e+06
1.24312e+07
-1.24308e+07
697558
-1.03056e+06
66639.7
184987
-113329
-1.09844e+07
1.09851e+07
-1.51272e+06
1.50995e+06
-291049
-12632.7
-164933
31208.3
-854892
858589
-70762
-179559
459783
4.9567e+06
-331641
-200779
-4.208e+06
4.20855e+06
19853.4
-19855.7
89268.7
104129
88198.1
-88166
2.38176e+06
618897
-7.1459e+06
7.14805e+06
2.7051e+06
2.75966e+06
-2.7676e+06
4.88114e+06
317152
424548
586824
499609
-497924
6.75143e+06
-6.75693e+06
177125
-3.81683e+06
3.81686e+06
146240
144877
2.91186e+06
-2.91907e+06
-6.25005e+06
134754
2.60433e+06
-51888.3
-115668
20151.6
5.41418e+06
-6.20481e+06
-2.70811e+06
6.10471e+06
485415
731832
247820
-1.87338e+07
1.87365e+07
-1.46967e+06
912156
6.89983e+06
-6.89795e+06
520488
-543044
133820
-133230
-4.05364e+06
1.81095e+07
-1.81063e+07
411012
357964
-408335
359185
1.88129e+06
-1.88106e+06
124736
-123681
-172591
-3.1521e+06
3.1524e+06
-64827.6
-3.61289e+06
-206002
206011
-8.15357e+06
8.15503e+06
-234267
207559
-686849
-1.41433e+07
1.41465e+07
-1.92892e+06
1.92901e+06
-1.01063e+06
-476518
1.4638e+06
184018
-426881
-5.44959e+06
-85792.4
4.42228e+06
72993.5
-4.42439e+06
5.27181e+06
-5.27098e+06
-4.77757e+06
2.09873e+06
141802
46407.7
-6.54637e+06
1.21499e+06
-3.90836e+06
52420.6
3.78391e+06
153775
118069
88497.1
429609
448359
-30466.7
-380360
7.72529e+06
-7.72232e+06
2.04988e+06
-4.35695e+06
-443912
-1.30479e+07
1.3051e+07
-157810
598362
-6.6136e+06
76465.2
6.6242e+06
895819
-891819
-519330
41308.4
3.94827e+06
403526
-228075
-480068
3.06781e+06
-22974.7
-3.14044e+06
671578
64706.8
232744
-213068
213069
-317628
-24671.1
-1.02741e+06
-5.06923e+06
455077
-454990
-6.49035e+06
6.49282e+06
-81134.7
-2.06733e+06
1.19712e+07
-1.19736e+07
193155
-188496
3.19376e+06
-3.19304e+06
-307909
309234
-2.81134e+06
73191.8
-424888
332189
936485
-9.26426e+06
9.26533e+06
-8.01163e+06
8.01307e+06
793032
-788063
1.55204e+07
-1.55182e+07
-2.0811e+06
519038
-547535
-227203
3.69846e+06
273641
-172704
-3.29776e+06
3.29839e+06
-125165
155007
172219
-130779
132252
-5.75149e+06
-1.29783e+06
4.79164e+06
-4.79084e+06
228423
11788.9
8.80749e+06
-8.81003e+06
2.08526e+06
-2.08502e+06
78025.3
2.28256e+06
-1.69074e+06
-2.46754e+06
-36072.7
-701535
-9.57801e+06
9.57708e+06
-330115
4.6074e+06
149328
-3.57608e+06
3.57612e+06
1.79413e+07
-1.79382e+07
3.87628e+06
-332201
-314905
-5.91675e+06
5.92146e+06
34795
-963310
4.75165e+06
-4.74858e+06
-5.12496e+06
7.13594e+06
-7.13473e+06
7.84495e+06
-7.84486e+06
-6.63214e+06
-1.45672e+07
1.45681e+07
-288549
-241571
598098
-597938
-394852
190095
-190051
-669479
-6.01606e+06
6.01717e+06
-1.54984e+06
1.54921e+06
-953085
1.9102e+07
-1.91002e+07
-366729
41860.5
-703580
-1.76645e+06
7.95069e+06
-7.94514e+06
-3.23841e+06
3.2386e+06
-110859
227712
5.45813e+06
-33705.3
-6.11066e+06
-5.73972e+06
-138917
-1.24149e+07
1.24127e+07
180211
-198045
198072
46616
-3027.07
-7.04551e+06
7.0476e+06
-4.37826e+06
-221042
205768
282675
-966368
231644
-5.14099e+06
-220018
5.29602e+06
-5.2914e+06
-75682.5
106279
2.35614e+06
-2.35569e+06
223427
-2.02198e+06
2.02693e+06
-330848
1.98978e+07
-1.98949e+07
-8.32827e+06
8.32965e+06
-2.13089e+07
2.13115e+07
-298102
-5.31916e+06
5.28114e+06
207731
-1.71773e+07
1.71795e+07
128490
2.04138e+06
-2.52851e+06
-17355.3
-75656.7
205475
-970125
-87824.1
7.08021e+06
-7.07672e+06
-197585
6.97641e+06
-6.97265e+06
348985
-7.05747e+06
7.06022e+06
-525259
61698.9
-1.9908e+06
1.99353e+06
547850
-547720
102012
3.67881e+06
5.76473e+06
5.05947e+06
-5.05824e+06
1.15687e+06
-1.15675e+06
-398234
-224711
208343
-110474
4.07992e+06
-4.0838e+06
-375866
4065.06
-88598.2
89021
-4083.99
-322716
2.05855e+06
-2.05421e+06
-1.43244e+07
1.4326e+07
-1.26332e+07
1.26358e+07
2.0322e+07
-2.03192e+07
1.36257e+06
7.25235e+06
-7.24889e+06
-193992
40797
-7.57805e+06
7.58211e+06
-180794
5.79693e+06
-5.79523e+06
159369
-1.63438e+06
18813.3
-2.14215e+07
2.14242e+07
30148.7
-74922.3
-144878
188538
-5.74648e+06
5.74764e+06
858061
5.95318e+06
-3.32285e+06
3.32308e+06
-286535
287705
764421
-760544
437610
182030
154255
-154256
-4.70999e+06
-5.91866e+06
-1.24274e+06
-795693
4.28809e+06
1.12728e+06
-99037.5
-2.15874e+06
-1.92005e+06
76821.5
3.0486e+06
211817
-326328
-737905
550667
646771
-645241
7.10911e+06
-7.10666e+06
3.33676e+06
-487209
1137.91
150464
101590
-63641.5
-6.2856e+06
-211411
531790
21514.5
-1.70556e+06
9.39014e+06
-9.38864e+06
5.78035e+06
95912.6
-17252.7
-60021.4
4.82694e+06
-4.82628e+06
-118392
118403
555400
-552888
182922
-868420
-834730
-714362
-6.12318e+06
6.13354e+06
323004
9.91981e+06
-9.92367e+06
-820291
820357
-325183
6.09671e+06
-6.09527e+06
1.38783e+06
-45488.9
-50061.9
213654
4086.26
99964.3
745184
-745018
-155763
-1.44634e+06
6.85854e+06
-6.85696e+06
-91002.1
102622
-4.07618e+06
-101614
-997751
1.06763e+06
176565
1.14317e+06
48682.6
38499.2
-114023
-3.06812e+06
-137859
-1.19887e+06
4.10469e+06
-4.09793e+06
-58803.3
58856.4
124397
515264
-5.32862e+06
5.32954e+06
-132315
-404201
-492660
1.04647e+06
-156828
1.92561e+07
-1.92528e+07
-395196
6.29575e+06
-6.29016e+06
-260946
261025
197183
-112807
-1.11088e+06
129701
9.42834e+06
-9.43011e+06
-220790
359252
276650
88685.2
197711
-4.82988e+06
-1.90231e+06
-2.1622e+06
400477
92421
-92396.8
9.37621e+06
-9.3763e+06
166268
-216637
-639667
-598021
487266
-487229
36536.5
119532
-19229.1
116859
376128
2.86258e+06
-2.86794e+06
-1.08294e+06
-335235
5.60857e+06
-5.6073e+06
-570980
60128.4
889919
1.51908e+06
-1.51906e+06
-4.28717e+06
4.2938e+06
-5.33982e+06
-9.72438e+06
9.72567e+06
185881
-87188.3
-145156
-239199
701028
-700888
298554
-3.41309e+06
3.41298e+06
17503
-17467.7
-4.73605e+06
4.88799e+06
1.62194e+07
-1.6217e+07
-6.6331e+06
6.63482e+06
903623
-247242
5.46319e+06
-5.4619e+06
-152235
-742463
1.28784e+07
-1.28761e+07
1.06069e+06
-1.06053e+06
-7.0035e+06
-5.57576e+06
5.57674e+06
-343723
343692
7.00364e+06
322237
272245
-471680
1.60178e+06
-1.60129e+06
51727.2
552213
1.1264e+06
-50793.9
4.01627e+06
6.27041e+06
-182280
6.02501e+06
-6.02143e+06
65483.9
2.25276e+06
-20939
477793
-478165
-59837.2
-288747
793393
-792947
-4.76351e+06
-5.67062e+06
-292715
6.0513e+06
-6.05015e+06
-7.08557e+06
-341499
-6.71002e+06
-230011
1.72962e+07
-1.72939e+07
195597
3.45152e+06
7.0758e+06
-147588
198817
6.71792e+06
230290
1.18034e+07
-1.18006e+07
-315362
315307
55991.4
-2.50937e+06
50848.4
7.93241e+06
-7.93154e+06
-3.37215e+06
3.37272e+06
-151082
368060
1.60552e+06
-1.60499e+06
-93358.5
4.52139e+06
-4.52498e+06
-457272
-1.71316e+06
137582
-56359
229510
-138760
1.00783e+06
-1.29676e+06
65954.3
535842
-535791
-415334
587944
962755
-312730
123280
-571678
-863169
-239791
474304
538223
2.64653e+06
-4.523e+06
3.57212e+06
-190070
-237429
-234200
-1.28765e+07
1.28746e+07
4.44541e+06
-2.50032e+06
2.49602e+06
-1.05926e+06
-1.63196e+06
7.58234e+06
-7.57708e+06
1.56906e+06
2.30977e+06
-2.31033e+06
-3.80931e+06
-92073.5
1.7218e+06
-4.49194e+06
6.31064e+06
3.72355e+06
-178377
5.1229e+06
257898
164496
1.65086e+07
-1.65055e+07
531421
-1.76391e+06
3.07141e+06
-3.07441e+06
6.36782e+06
209797
408354
340640
-2.6848e+06
2.69133e+06
-25118
-1.21509e+06
-461448
-1.69714e+06
1.69711e+06
-253290
-32046.7
426069
3856.4
-2.3954e+06
-96844.1
4.3035e+06
163047
-2.48952e+06
2.49045e+06
6609.17
-234958
603470
585667
22824.5
-9.02049e+06
9.01902e+06
556334
-1.8334e+06
49678.5
-1.32844e+07
1.32828e+07
1462.7
1.23572e+06
-225233
-3.62558e+06
3.62613e+06
-1.19048e+06
-6.41014e+06
6.45779e+06
1.01598e+07
-1.01591e+07
-32081.9
-1.20639e+06
1.06293e+06
-1.06274e+06
-4.46698e+06
2.08362e+06
-306062
670197
-670090
-638622
6.86623e+06
-6.86543e+06
-417313
-353732
-1.43316e+06
-8.0369e+06
-4.34224e+06
-91908
8.0342e+06
454434
610984
-1.81952e+06
-2.85721e+06
2.85965e+06
3.97686e+06
-4.27772e+06
366437
4.63537e+06
269367
-87979
-31576.4
-257613
-3.38399e+06
-223114
42708.5
1.17219e+06
-1.25521e+06
-154762
-277009
809602
-209446
162188
-1.8034e+06
168632
241862
-1.85433e+07
1.85452e+07
759683
-647970
-2.42602e+06
2.43069e+06
2.86257e+06
-2.86208e+06
-113834
-307380
81781.5
-1.77827e+06
1.77977e+06
464115
-464063
177724
482148
-22294
-1.20892e+06
-513852
-337585
-1.12271e+06
344941
8287.09
7.30083e+06
-7.29687e+06
4.97369e+06
-4.848e+06
2.29278e+06
558347
595923
-595832
1.23088e+06
1.85459e+06
4.59204e+06
80786.8
-158057
182116
32081.9
-289971
-158766
-305910
-141974
-183565
7.5445e+06
-7.5405e+06
-261712
1.5163e+06
3.69457e+06
-104544
-112263
930791
-928872
-4.06969e+06
23583.1
-7.11485e+06
7.1106e+06
7.9581e+06
-7.96238e+06
964287
-452611
226696
631397
-8.63215e+06
8.63335e+06
3.39851e+06
-3.40581e+06
1.71596e+06
573308
-573239
-547577
200658
-1.00313e+06
257810
-256631
-4.19183e+06
-2.52576e+06
271255
-488501
-7.42405e+06
7.42637e+06
4.62003e+06
-125683
128379
15692
424866
-131874
5.25642e+06
-5.24042e+06
-589875
589944
-1.15307e+06
-5.88684e+06
5.90487e+06
-3.28682e+06
3.28725e+06
2.18953e+06
33752.3
472819
226581
5.34258e+06
-5.34028e+06
-869123
-2.00986e+06
-84783.5
35163.2
-1.55302e+07
1.55333e+07
205373
1.0497e+06
62682.7
3.05577e+06
-3.05536e+06
-204553
-1.37109e+06
-66254.9
-73421.6
5.9533e+06
-5.95206e+06
112405
5.95031e+06
-5.9484e+06
209759
-69915.4
235970
-249285
5.15429e+06
627965
71166.1
-491800
-105937
2.14173e+06
-2.00454e+06
460406
-457513
93605.3
6.29396e+06
-6.29781e+06
9.16917e+06
-9.16886e+06
-27079.9
8.36927e+06
-8.36773e+06
-1.32847e+07
1.32856e+07
-182273
182258
29973.1
456178
-456114
-556806
772065
-2.32888e+06
-1.42863e+06
-177805
77278
51516.5
-49247.6
-4.24086e+06
4.2394e+06
1.08872e+06
-149881
170673
204753
-380770
150929
-160501
-543295
61018.8
6.04786e+06
-6.05212e+06
99575.6
-5.39302e+06
-63852.3
-101857
-2.95986e+06
-2.5642e+06
5.62503e+06
-5.62846e+06
5.13492e+06
-212910
-908498
1.02678e+06
-341433
268886
-93776.6
-6.75749e+06
6.76251e+06
126662
-1.54146e+06
4.21028e+06
-5.78419e+06
6.57285e+06
94889.4
5.77346e+06
-174076
395695
3.23711e+06
3.15411e+06
-2.06227e+06
1.21438e+06
224360
25058.9
-36017.9
-28825.2
424694
-4.21222e+06
120883
330150
-330103
109088
1.30494e+06
-2.02007e+06
-2.37604e+06
442530
-7.93393e+06
1.01657e+06
-271041
138447
230523
7.92807e+06
418289
-917938
897716
-188765
30853.2
-16425.9
-160996
833495
-832316
196552
-8.33918e+06
8.3383e+06
275277
8.40285e+06
-8.40076e+06
839410
1.87892e+07
-1.8786e+07
234371
169174
-593030
264200
-264182
436476
-1417.77
-259185
-425770
9.05524e+06
-9.05488e+06
-5.17012e+06
1.77556e+06
1.48837e+06
-179396
3.02234e+06
-3.02558e+06
603549
-600866
870376
46760.7
1.74821e+07
-1.74798e+07
6.6268e+06
-6.62511e+06
-8347.01
462985
1.98052e+06
7.63674e+06
-7.63379e+06
-174002
-975450
978991
108109
-102287
-6.12714e+06
6.12823e+06
174777
823247
-823145
8.91024e+06
-8.91094e+06
-599386
-130972
-973212
45450.3
4.13692e+06
737414
-42808.1
2.25959e+06
5.58199e+06
-130170
922921
-134204
528172
-528071
-2.81862e+06
-1.331e+07
1.33106e+07
5.71522e+06
-5.71435e+06
-1.44313e+06
-6.86984e+06
6.87289e+06
2.6225e+06
-2.61694e+06
-967019
2.86518e+06
-2.85222e+06
114629
-228775
228820
65539.6
-148659
-490176
259936
5.03874e+06
-5.1078e+06
271783
173219
-2.63213e+06
-212800
-300193
302010
-4.00308e+06
4.00349e+06
83349.9
383711
7.98982e+06
-7.98857e+06
-107079
4.40764e+06
113205
-1.25833e+06
1.06132e+06
5.44783e+06
-399951
-382437
36725.7
-7.05926e+06
7.06044e+06
-2.45108e+06
2.45325e+06
-1.95444e+06
1.95507e+06
1.68311e+06
-1.66994e+06
-22014.8
232724
27863.7
231589
-4.41471e+06
-875426
4.39903e+06
-4.40307e+06
-61798.4
110150
1.97625e+06
-5.91452e+06
5.91482e+06
3.46108e+06
505450
-2690.87
5.80596e+06
-5.80429e+06
-6.06129e+06
-210140
-1.35989e+06
1.36047e+06
-3.37432e+06
-7.24421e+06
7.2475e+06
-314817
-2.6441e+06
-5.8621e+06
-123609
-1.0815e+06
980992
56596.4
1.71134e+06
1.07903e+07
-1.0787e+07
-47473.7
1.33105e+07
-1.33089e+07
1.28156e+06
6.13766e+06
-6.13607e+06
-1.65154e+07
1.65185e+07
-102159
-1.65775e+06
1.6567e+06
-984614
984911
63407.4
-4.16462e+06
186482
1.51092e+07
-1.51074e+07
-127953
-403790
-5.143e+06
5.12472e+06
168296
1.19652e+07
-1.19638e+07
2.12243e+06
-107105
-19842.3
19887.6
-1.10212e+06
1.10502e+06
-8.88614e+06
6.81202e+06
-6.81037e+06
192770
2.97202e+06
-2.9797e+06
3.97528e+06
-3.97908e+06
315826
4.14596e+06
1.05518e+07
-1.05505e+07
-4.02252e+06
4.02289e+06
1.98414e+06
189706
-1.18718e+07
1.18691e+07
734070
204418
-203431
177383
-177380
-3.63198e+06
1.358e+07
-1.35808e+07
591021
-6.1275e+06
6.12881e+06
-3.14878e+06
-971795
-1.5324e+06
1.53258e+06
-9.08782e+06
9.08902e+06
-1.90879e+06
379592
-180696
3.16691e+06
-217956
-1.30309e+06
3.40874e+06
4.77353e+06
71077.3
-320652
-2.42685e+06
2.42723e+06
622792
-622686
209632
-63231.9
-11688.8
258232
207915
-23606.6
-24448.1
92937
77528.2
2.82385e+06
-2.82224e+06
-1.63058e+07
1.63084e+07
1.1187e+06
37789.4
-4.15029e+06
-203208
-214241
1.43369e+06
-2.2341e+06
-1.00431e+06
3.31712e+06
-3.31855e+06
318194
-4.59708e+06
4.5977e+06
-2.1826e+06
-8.62745e+06
8.62868e+06
-7.28511e+06
7.28702e+06
-2.37025e+06
-7.27125e+06
7.27404e+06
2.36131e+06
-2.36124e+06
7.6224e+06
-7.61961e+06
1.95737e+07
-1.95713e+07
-48269.9
2.13669e+06
1.1853e+06
-406221
-1.39197e+07
1.39227e+07
-7.34543e+06
7.34823e+06
-67073.5
-439380
-2.20635e+06
255351
-255330
1.37414e+06
209369
-378947
-1.87561e+06
-437336
-96473.6
-404940
4.44361e+06
-4.44799e+06
-443565
-545124
1.00406e+06
3.15687e+06
-3.15948e+06
113150
673168
1.96183e+06
-1.12914e+06
-192013
134359
-53255.5
1.41665e+07
-1.41659e+07
2.77763e+06
-2.77718e+06
1.278e+07
-1.27787e+07
-55843.9
112152
-218723
2.28229e+06
-3.25374e+06
126863
-75630.4
274200
1.13597e+06
-1.3476e+06
1.34693e+06
6.93677e+06
-6.94241e+06
737585
2.63938e+06
-1.09913e+06
1.10422e+06
2.11744e+07
-2.11717e+07
63102.8
-63103.8
-2.41869e+06
-105550
157293
724485
-218213
210756
-656211
656361
237862
-1455.42
8.22407e+06
-8.22617e+06
-407572
284389
664644
-316326
-321425
181146
4.98216e+06
-5.04696e+06
1.31998e+07
-1.31973e+07
-287631
2.28572e+06
-2.28546e+06
8.9501e+06
-8.95071e+06
-161206
5.46089e+06
-5.49562e+06
-1.05066e+07
1.05077e+07
-1.99269e+06
-258868
-6.74991e+06
-3.62816e+06
3.62688e+06
-1.14989e+07
1.14962e+07
134640
6.88061e+06
-6.82345e+06
6.82634e+06
178960
-321932
-4.34153e+06
4.34217e+06
-41893.3
165043
-175709
620691
-7.331e+06
-6.79517e+06
6.79741e+06
3.68878e+06
6.53311e+06
-6.53135e+06
1.26998e+06
2.4233e+06
7.32597e+06
-6.41564e+06
6.41849e+06
-1.84169e+06
3.44319e+06
48170.5
1.62224e+06
-1.6221e+06
950566
1.62482e+06
4.80328e+06
-4.8023e+06
96267.3
-2.20915e+06
2.21681e+06
8.87207e+06
2.28113e+06
-2.22803e+06
2.62972e+06
-2.62807e+06
1.531e+06
-1.25024e+06
-230127
-266666
189703
-2.263e+06
-608470
-165166
3.65765e+06
171122
-1.80566e+06
1.16826e+07
-1.16821e+07
-4.03774e+06
4.27997e+06
-4.2842e+06
7.68639e+06
-7.68391e+06
863497
-8.35402e+06
8.35567e+06
1.15103e+06
670412
170315
-2.3549e+06
2.35278e+06
844210
-4.01901e+06
4.01978e+06
-4.46356e+06
13373.3
5.62136e+06
-335398
-148330
-372258
-1.07914e+06
1.07784e+06
1.56952e+07
-1.56932e+07
66292.7
168959
2.69178e+06
-7.57473e+06
7.57768e+06
-34178.3
3.45978e+06
-3.4625e+06
311944
-283332
283373
-406272
3.23941e+06
-774004
-1.36375e+06
1.28257e+06
3.25888e+06
-3.25991e+06
-3.44573e+06
221332
360882
-15072
-222377
-797058
-34371.5
-872432
395496
-1.40218e+06
3.26196e+06
-3.26626e+06
292098
1.28418e+07
-1.28419e+07
354300
-349200
430050
-345509
357118
-3.17797e+06
5.57614e+06
91000.8
143155
26507.4
-19694.1
948016
1050.56
-388925
52055.7
-2.26747e+06
2.26951e+06
6.58376e+06
-6.58677e+06
1.68792e+06
-1.07948e+06
2.40338e+06
-3.65592e+06
3.65513e+06
-306292
-16928.2
77987.5
-6.75521e+06
6.75694e+06
2.42647e+06
256927
-327459
151894
-85294.9
-287438
289276
275407
-21603.6
-433430
-2.51712e+06
524330
5.51257e+06
-5.51112e+06
-7.74238e+06
7.74626e+06
3.33957e+06
83968.6
549482
-549399
-7.68514e+06
7.68979e+06
16322.8
2.95957e+06
162550
1.3916e+06
224351
132263
707036
359202
-452470
-2.13415e+07
2.13441e+07
-89686.5
1.58976e+07
-1.58946e+07
3.05536e+06
-3.06701e+06
5.29609e+06
-680431
540603
-2.25803e+06
1.73575e+06
-34779.8
-2.32596e+06
-3.96596e+06
7.83597e+06
-7.84319e+06
-4.0642e+06
3.96175e+06
-3.33928e+06
3.3399e+06
1.7087e+06
-323720
-17251.1
458844
1.46812e+07
-1.4679e+07
464929
-6.85293e+06
6.85474e+06
4.1251e+06
175320
-2.7874e+06
203068
6.89303e+06
-6.88938e+06
1.47675e+06
215586
42305.2
-222237
222170
-440598
437043
4.73176e+06
-5.04149e+06
-132412
-1.07723e+06
1.17261e+06
342355
12170.3
-152722
261523
-8955.74
-7.5802e+06
7.58357e+06
-224193
352457
-6.67328e+06
6.67537e+06
147473
-6.76563e+06
-41151.8
-2.11465e+06
6.77467e+06
-47145.7
47109.3
116126
5.43976e+06
-8.15085e+06
8.15505e+06
4.99508e+06
-296689
435.388
-2555.3
3280.1
1.92189e+06
8.30635e+06
-8.30469e+06
-160747
84384.6
36085.1
291568
-89378
-345919
-352402
1.48644e+06
-1.48518e+06
287182
-118591
965381
1.09147e+06
-1.09185e+06
5.77952e+06
-5.9268e+06
5.92906e+06
6.85834e+06
-6.85696e+06
-2.09771e+07
2.09797e+07
327908
2.1072e+06
-2.17749e+06
-180139
108047
3.1464e+06
-638202
-3.19496e+06
-4.55802e+06
294673
-274121
-4.32394e+06
4.32474e+06
-431824
-4.6675e+06
491187
2.14587e+06
-199863
-82260.2
-134549
228570
8.66742e+06
-8.66627e+06
-276278
36374.8
-1.70755e+06
1.70659e+06
-352866
-277367
-19615.5
8794.61
-110080
108946
507124
2.23827e+06
-2.23872e+06
-258731
-7.91405e+06
7.91657e+06
-390296
-5.3864e+06
119827
5.36742e+06
192687
-171537
652449
-2.25467e+06
-763608
-17371.1
-7.7498e+06
7.75227e+06
484034
-391618
-86590.6
495098
-5.08826e+06
5.08886e+06
2.0066e+07
-2.00625e+07
-4.00271e+06
-650947
-585221
-7.14357e+06
7.14794e+06
142747
-142716
-143136
-308778
4.20342e+06
156303
3.9963e+06
1.65409e+06
-6.43894e+06
6.44147e+06
-954657
112082
-4.65573e+06
-194412
-405684
-3.55804e+06
3.15303e+06
-3.15232e+06
-612241
-280505
280564
419697
-418029
212287
4.90954e+06
-82548.8
-5.06506e+06
-952333
955926
-823229
4.05563e+06
-219496
4.6868e+06
-233665
-1.34178e+06
1.34189e+06
378004
-1.94718e+07
1.94739e+07
-4.87482e+06
4.87569e+06
83094.7
301045
-299574
-10942.2
-186216
186212
-3.94478e+06
3.94527e+06
-1.13283e+07
1.13253e+07
35358.4
2.09194e+06
1.77428e+06
-1.77389e+06
-175510
-174541
6.27163e+06
-6.26927e+06
-1.36135e+06
-20303.6
7.0064e+06
-7.00436e+06
-2.6675e+06
6.64369e+06
-6.64765e+06
168709
100881
-1.40804e+06
7.41742e+06
-7.41631e+06
122916
2.57584e+06
-2.57338e+06
-6.73035e+06
6.7318e+06
4.43353e+06
-4.43714e+06
2.64144e+06
-4839.57
-3.55692e+06
3.55402e+06
-3.27756e+06
3.27819e+06
-2.12985e+06
-862910
1.16605e+06
824451
21207.9
1.2898e+06
1.17671e+07
-1.1767e+07
5.96864e+06
-5.96714e+06
-3.87002e+06
3.87031e+06
-140913
-1.91875e+06
1.68833e+06
4.59047e+06
-4.58955e+06
-4.72414e+06
-686526
689415
-142942
-207207
2.70985e+06
-2.69625e+06
-400268
-318231
233765
-39543.7
39577.1
-157724
-5.57863e+06
5.56795e+06
141465
1.48725e+06
-378611
186419
-9.54228e+06
9.54001e+06
209419
-5.16318e+06
514960
-1.37768e+07
1.37787e+07
671341
5.66882e+06
-5.66745e+06
-254736
-3.65932e+06
-897295
29677.8
-2.77443e+06
-38054.1
-1.13315e+06
1.13354e+06
484299
-486523
595703
-4.31693e+06
4.31745e+06
-2.19892e+06
-1.74163e+06
2.19852e+06
-3.73955e+06
3.74394e+06
2.87433e+06
-1.24615e+06
-36525.1
743963
-2.76428e+06
2.10952e+06
365127
-370408
752921
-4.65657e+06
-268635
-1.83224e+06
-105523
316428
-511802
1.17212e+06
173710
-113217
-3.41023e+06
3.41055e+06
-750865
750962
-304207
1.96013e+06
-1.94304e+06
-1.02427e+06
-1.84985e+06
2.77564e+06
-283915
1.40241e+06
61800.4
-729036
846047
-1.16947e+06
1.16953e+06
-2.07602e+06
-132777
237954
2.08578e+07
-2.08545e+07
11675
195467
1.0395e+06
76436.7
131496
-1.15412e+06
526621
191159
-2.90556e+06
45864.4
32887.7
-32898.5
2.08766e+06
-2.13349e+06
264299
547323
6.38599e+06
-6.39283e+06
2.45214e+06
288524
2.05239e+06
-5.50844e+06
5.51033e+06
49225.5
248964
5.79097e+06
-2.84947e+06
427206
-167964
459129
-129985
76243.7
95955.2
146992
133508
2.28572e+06
-29475
251666
-251642
-2.16755e+06
2.17191e+06
505478
-509227
293941
-300699
3.54213e+06
-1.01522e+07
1.01556e+07
-103067
269913
-69208.8
3.31162e+06
-5.5464e+06
-4.20205e+06
250941
-1.21989e+06
1.21647e+06
-3.49542e+06
3.49389e+06
-7.69991e+06
7.69422e+06
77685.8
-6.95624e+06
192042
-163208
-228741
4.15694e+06
-85847.5
-218752
421356
-6288.56
6.9575e+06
-310582
949660
6.86349e+06
-57104.5
64088.4
-278586
445764
-1.45672e+06
1.59867e+06
-1.59836e+06
5.84184e+06
-5.84018e+06
-3.90197e+06
687524
-413799
-2.70426e+06
2.70311e+06
2.72492e+06
319112
-152091
152325
108931
-133245
-126198
-879947
1.28715e+06
-1.27548e+06
248627
-5.31407e+06
-132480
-223541
-6.79383e+06
6.80491e+06
-768712
4.9337e+06
-4.93253e+06
336339
-335960
-373035
5.82402e+06
-5.8224e+06
-108171
-368398
-151790
-1.25721e+06
-1.06342e+06
1.06529e+06
-6.08854e+06
6.09052e+06
117154
588451
5.39325e+06
7.41206e+06
-7.41028e+06
7.35404e+06
-7.35113e+06
926084
-6.57307e+06
6.57451e+06
3.89718e+06
-197302
-1.9783e+06
1.97855e+06
-2.58856e+06
257280
256857
1.41075e+06
-12926.8
11456
-5.34416e+06
5.34588e+06
-3.49418e+06
3.49447e+06
6.36549e+06
-6.36969e+06
129237
3.43208e+06
-3.43476e+06
-296426
2867.21
-11385.7
4.81534e+06
-4.8144e+06
661031
506.836
1.0356e+06
-450917
297.138
-1.62538e+07
1.62557e+07
-612390
421020
-263486
-7.41173e+06
7.41341e+06
81413.8
432759
-442368
5.54424e+06
-5.53997e+06
-47904.9
47061.6
3.33741e+06
2.94772e+06
3.23827e+06
111583
5.00395e+06
3.14666e+06
-3.33908e+06
-2.7169e+06
1.77236e+06
-1.7722e+06
493678
393125
-393029
381408
-1.9734e+06
1.97567e+06
50274.3
-74285.6
-6.79893e+06
6.80079e+06
-404717
2.40576e+06
6.63328e+06
2.33794e+06
-59345.5
-5.971e+06
5.97312e+06
1.43178e+06
-1.41941e+06
-1.9068e+06
-37257.9
-1560.05
204720
-357200
410848
-441681
-1.95889e+06
-483012
483073
-6.93707e+06
6.93911e+06
-251578
-859121
823937
153455
89085.1
367794
-340605
49216.3
-72134.3
65381.9
-70971.3
-24924
1.41752e+06
-3.9308e+06
-223507
5.04209e+06
-5.04065e+06
735649
-4.19438e+06
4.19516e+06
1.41167e+06
-1.4104e+06
-5.12163e+06
-196788
-1.10217e+06
43071.5
157636
1.43922e+06
-1.43901e+06
-292637
-79858
2.22734e+06
-266465
991177
-989421
-75862.1
406723
7.52915e+06
-7.52502e+06
-1.56149e+07
1.56174e+07
-2.82142e+06
2.81943e+06
-6.62622e+06
869819
-229543
6.59786e+06
281318
4.78043e+06
-4.75416e+06
445247
-7.04347e+06
7.04786e+06
-4.49379e+06
-305101
296446
47276.1
3.17677e+06
301774
4.94815e+06
377891
-1.41763e+06
-32226.7
-930400
930517
5.55308e+06
-7.86399e+06
7.86475e+06
-2.56671e+06
2.56698e+06
1.34576e+06
3.91021e+06
-7.6443e+06
7.64899e+06
-161422
21766.3
2.6846e+06
5.30443e+06
-3.14637e+06
363294
9.50545e+06
-9.5022e+06
138283
1.15662e+07
-1.15697e+07
-97262.2
97265.5
-5.50623e+06
-6.40268e+06
-54672.4
-4.77822e+06
6.37487e+06
-283150
1.29473e+06
-1.29289e+06
6.25164e+06
-6.24963e+06
-399309
-2.72059e+06
-541564
339205
-3.7686e+06
265585
-264406
7.05389e+06
82424.7
-34309.9
48249.8
-1825.15
-3.66591e+06
3.66575e+06
82203.1
-288347
288374
1.63574e+06
2.4455e+06
-2.44683e+06
-214292
3.42308e+06
481957
1.7496e+07
-1.74931e+07
106089
-133832
-51551.1
-186486
-935651
128980
457303
-1.22009e+06
-7.95369e+06
7.95556e+06
314828
292607
70882.7
81641.6
-3.39954e+06
170775
280422
-381559
-1.36593e+07
1.36594e+07
-7.35288e+06
-138920
7.3264e+06
1.70808e+06
1.92708e+07
-1.92685e+07
234684
-7.73153e+06
-366219
7.65725e+06
1.42162e+06
-1.42156e+06
-1.22071e+06
1.22124e+06
176806
-192138
339392
-133848
4.81187e+06
-4.8107e+06
-92530.3
-2.79579e+06
-610051
495405
961122
5.17803e+06
-5.1833e+06
-1.46184e+06
-340919
-838708
-7.46098e+06
7.46355e+06
5.47875e+06
-5.48411e+06
-23806.5
9545.36
-4527.05
-135821
-796807
-500386
888317
-888276
83607.8
36944.5
1.14346e+06
138294
191065
-1.83823e+06
1.83843e+06
80810.2
3.47091e+06
-86583.3
-6.30942e+06
6.31277e+06
2.67871e+06
-2.6767e+06
-4.10089e+06
-209601
5.06476e+06
-5.07569e+06
-871029
-3.51991e+06
274658
810528
-2.5386e+06
7.89087e+06
-7.88653e+06
-141973
-3.16759e+06
-1.5392e+06
1.53131e+06
1.34588e+06
-1.34454e+06
337670
7.74487e+06
-7.73949e+06
1.32988e+07
-1.32959e+07
401991
-388347
-3.89127e+06
-1.81227e+06
987688
-246043
6.29725e+06
-6.3012e+06
22577.7
-7.76656e+06
7.77489e+06
343439
507285
-27506.4
2.93203e+06
-2.9409e+06
55481.6
-582522
-80821.2
186635
-5530.79
-2.54002e+06
2.54044e+06
-362701
1.103e+06
2.64084e+06
9.37676e+06
-9.37685e+06
-1.96363e+07
1.96387e+07
-4.11505e+06
-2.65304e+06
-6.91594e+06
6.92103e+06
-2.09354e+07
2.0938e+07
-5.36477e+06
5.36006e+06
-3.82435e+06
3.8249e+06
938596
1.40553e+06
1.72909e+07
-1.72887e+07
105554
1.56943e+06
-1.56917e+06
2.14868e+06
215205
300392
2.10297e+06
-2.1018e+06
5.77415e+06
-3.72909e+06
361118
-178817
5.70709e+06
2.4696e+06
-131044
300304
-1.87715e+06
8.30353e+06
-8.302e+06
1.04275e+07
-1.04303e+07
4.1108e+06
-4.1101e+06
-5.77481e+06
1.54171e+06
-1.54119e+06
-1.44074e+06
1.44078e+06
42245.6
47765.7
-243608
225819
7.26624e+06
-7.26253e+06
-3.35476e+06
3.35512e+06
2.13344e+07
-2.13317e+07
109860
-659938
-100442
428112
-403232
-1.75984e+06
1.75974e+06
-36287.3
-92744.8
-2.38223e+06
83937.4
-1.51015e+06
-5.70758e+06
-7.4086e+06
7.41119e+06
-2.456e+06
166654
-74472.1
-5.81083e+06
5.81352e+06
352442
4.67639e+06
-4.67599e+06
-68485.2
-1.22148e+06
-890013
-463787
463808
-474594
1.45365e+07
-1.45347e+07
-3.57898e+06
872209
515753
3.16719e+06
-42756.6
-29754.8
206902
-206057
-1.85061e+06
83271.1
-894377
-1.69685e+06
5.72829e+06
5.99184e+06
282616
2.66356e+06
-2.1552e+06
2.04356e+06
115497
-119542
-7.21996e+06
1.97085e+06
1.33585e+06
62872.6
-274410
1.6756e+07
-1.67537e+07
2.35936e+06
7.19189e+06
727455
-726102
-1.12249e+06
1.05426e+06
-1.05396e+06
-5.6762e+06
5.67787e+06
643487
-2.01124e+07
2.01149e+07
257173
4.38927e+06
86473.5
43911
272074
2.93914e+06
-2.94504e+06
244850
6.41638e+06
-6.41975e+06
-186760
138805
48241.4
-48026.7
-2.46154e+06
-885052
-408370
1.62924e+07
-1.62892e+07
2.45841e+06
-217682
904312
419086
1.60578e+06
-1.60565e+06
8.75148e+06
-8.75009e+06
67064.9
-376237
-1.55463e+06
266843
1.21212e+06
2.3697e+06
480756
-483616
513926
-97699.5
196043
126782
-395888
131474
267501
-430863
765308
1.09713e+07
-1.09684e+07
-63041.8
-6.29427e+06
6.29717e+06
-2.12609e+06
2.12867e+06
110352
-5.92489e+06
5.92695e+06
-2.93724e+06
-3.609e+06
6.22183e+06
786192
363547
-381660
337749
-7.62454e+06
7.62988e+06
1.94785e+06
68245.6
-68069.2
1.8695e+07
-1.86918e+07
1098.15
-7.21702e+06
7.28063e+06
51740.6
378425
335257
5.41752e+06
-5.41654e+06
-2.58395e+06
-99877.2
3.58301e+06
-3.58246e+06
-204800
21231.7
-103453
1.90996e+06
-8.04225e+06
8.04519e+06
1.86285e+06
238970
14691.9
-1.43761e+06
9.0005e+06
-8.99889e+06
-1769.53
6.69356e+06
-6.59709e+06
-4.28618e+06
8.68089e+06
-8.68016e+06
6.60162e+06
316536
1.39403e+06
-263120
1.80371e+06
-1.8035e+06
1.11901e+06