/*--------------------------------*- C++ -*----------------------------------*\
| =========                 |                                                 |
| \\      /  F ield         | OpenFOAM: The Open Source CFD Toolbox           |
|  \\    /   O peration     | Version:  v3.0+                                 |
|   \\  /    A nd           | Web:      www.OpenFOAM.com                      |
|    \\/     M anipulation  |                                                 |
\*---------------------------------------------------------------------------*/
FoamFile
{
    version     2.0;
    format      ascii;
    class       volScalarField;
    location    "10000";
    object      sigmayz;
}
// * * * * * * * * * * * * * * * * * * * * * * * * * * * * * * * * * * * * * //

dimensions      [1 -1 -2 0 0 0 0];

internalField   nonuniform List<scalar> 
27023
(
-2.14371e-14
-1.80934e-13
-2.09888e-13
1.62351e-13
0
1.65035e-13
-4.34407e-12
-1.04806e-12
7.15242e-14
-1.38566e-13
1.22029e-12
-5.5868e-13
-1.4225e-13
-3.8262e-14
3.42426e-12
-7.6842e-13
-3.90512e-13
0
-1.93339e-12
0
1.03888e-12
-1.07686e-12
-3.21296e-12
-1.48834e-12
-2.46071e-13
-5.55106e-13
2.87851e-13
2.19785e-11
7.34213e-13
6.5251e-12
-5.36519e-12
-2.1244e-12
4.21448e-12
2.30813e-12
4.19436e-12
2.09488e-12
-1.49085e-12
2.98164e-12
-1.8284e-13
-1.30992e-13
-6.83848e-14
2.69869e-14
-5.56425e-12
-1.42328e-13
-1.42193e-13
-1.48202e-12
-2.2576e-12
1.85973e-12
1.85982e-12
1.23695e-12
-1.11146e-12
-1.88972e-13
1.10456e-12
2.4728e-14
8.58152e-14
3.63269e-12
7.8735e-12
3.39022e-12
2.03761e-12
3.70028e-13
-2.3924e-13
7.21277e-12
-1.77854e-12
2.30228e-11
-1.7678e-11
1.05944e-12
-5.6639e-12
1.98876e-13
-9.4044e-13
-2.49208e-12
0
-5.15862e-12
2.8136e-12
3.74933e-12
7.42205e-12
3.62744e-12
6.99714e-14
6.26623e-14
7.07694e-12
4.69077e-12
1.89588e-12
-2.91076e-12
-2.28532e-12
1.17778e-12
3.9468e-12
-1.73603e-12
1.47107e-12
-5.79581e-13
-4.33251e-13
2.79323e-12
4.64663e-11
1.35673e-13
-1.61747e-13
7.0882e-13
-1.13674e-13
-3.11736e-12
6.31343e-13
7.44352e-13
-3.9212e-12
7.12669e-12
-7.58961e-12
1.92154e-11
3.55438e-11
1.54049e-12
1.16645e-12
-2.56919e-13
2.15191e-14
-1.23793e-12
-1.6971e-12
-8.94699e-12
-4.40948e-12
1.65577e-12
3.93205e-13
5.26953e-12
2.23487e-12
2.90462e-12
4.59347e-12
1.91124e-13
5.11081e-14
-7.53229e-13
-5.74066e-13
-1.49092e-12
-7.70576e-13
-2.37378e-12
3.24409e-12
6.46891e-13
2.45584e-13
2.74073e-13
5.11955e-13
2.91214e-12
9.2309e-12
6.2832e-14
3.41543e-14
-1.50398e-13
-4.39397e-12
-1.10641e-11
2.51812e-12
1.74088e-12
-5.80558e-12
-3.70231e-12
-1.4337e-12
3.61462e-12
-2.33888e-12
2.50892e-12
-5.86494e-13
4.43906e-12
-1.34831e-12
3.68421e-12
3.22766e-12
4.28025e-13
-1.53281e-13
-1.22549e-12
-4.07073e-13
-5.43955e-12
-6.28193e-13
9.79357e-13
8.67729e-12
-5.36163e-12
-9.27942e-12
-2.54227e-12
4.14244e-12
-1.48746e-12
3.58309e-12
-1.14955e-11
-4.80743e-13
4.39678e-13
-8.20909e-13
-2.3029e-12
-1.70865e-12
3.15847e-12
4.89316e-11
6.16087e-12
4.60855e-13
4.22309e-11
0
3.46464e-12
-9.81506e-12
-1.75058e-12
7.06685e-12
1.56373e-13
3.33439e-12
-3.56186e-12
2.78391e-12
-6.86359e-12
2.32979e-12
-4.1392e-14
2.29549e-12
3.06463e-12
1.37158e-11
-7.2635e-12
-3.51993e-12
-1.00883e-12
2.58531e-12
-1.18877e-11
-1.25717e-12
2.95862e-12
8.08293e-14
9.43614e-13
-7.51206e-13
2.91731e-13
4.01674e-12
1.78156e-13
-7.59181e-13
7.10969e-12
0
2.34858e-13
1.26027e-12
-3.51462e-12
-6.4253e-12
5.31831e-12
0
1.43827e-15
5.62125e-14
-7.26387e-13
2.20089e-14
8.61031e-14
-2.14429e-12
-4.04019e-13
3.22438e-12
1.89431e-12
-5.63917e-12
-5.62906e-12
1.22564e-12
-8.32897e-14
-1.43967e-11
-1.82203e-12
4.0466e-12
-2.70749e-12
-3.17621e-12
-1.44297e-13
1.35158e-13
-1.62834e-11
-5.53181e-12
-9.8806e-13
-2.64098e-12
4.15144e-12
3.56226e-12
-1.21159e-11
-4.76209e-12
5.08994e-12
5.09023e-12
-1.3759e-12
2.20704e-12
1.0187e-11
1.75571e-12
-4.8221e-13
-1.22388e-11
-6.57812e-13
9.52441e-12
-3.34845e-12
-2.41786e-12
-5.07559e-12
3.80085e-13
3.05093e-13
1.14087e-12
-3.00146e-12
0
-4.54787e-12
-3.47968e-13
-2.26077e-12
-3.69665e-13
1.02026e-12
6.55164e-12
-4.11461e-13
-4.91841e-12
6.75196e-12
-1.55379e-12
3.86905e-12
-7.49219e-13
1.7262e-13
-2.10999e-13
-1.18222e-12
3.35354e-12
3.58297e-12
1.61544e-12
-1.04191e-11
-1.52406e-13
1.18029e-13
-7.19853e-12
-9.09786e-12
-3.91624e-12
4.93781e-12
-2.73814e-11
-7.53706e-13
-2.29259e-14
2.23423e-14
-4.72293e-12
1.08121e-11
1.3883e-13
-2.43852e-13
-9.18017e-12
-5.13925e-13
-4.22352e-12
-1.50017e-12
0
3.36332e-12
6.88578e-12
1.24809e-12
-3.44329e-13
0
4.56376e-14
-1.55781e-15
3.1483e-13
0
2.28552e-14
-2.6249e-14
1.65597e-13
2.30923e-12
-6.9938e-13
-1.1004e-11
8.65093e-12
-6.60137e-14
-6.58399e-14
1.77417e-13
2.01521e-13
-2.34939e-12
-6.81383e-12
9.06584e-14
-4.5691e-12
-5.04073e-12
-2.93052e-14
-7.58056e-14
-2.09345e-12
7.5662e-13
-4.44229e-13
1.47261e-12
-7.45231e-13
-7.63793e-12
3.87313e-12
8.39036e-13
5.05891e-13
2.01241e-12
-1.82432e-13
1.84632e-13
-3.23641e-12
-1.76056e-13
5.3945e-13
2.84438e-12
8.62436e-14
7.32702e-13
-8.17645e-13
1.87437e-12
2.07484e-11
0
1.6822e-14
-1.7858e-12
2.58524e-13
8.09544e-13
1.58072e-11
6.89395e-12
-6.71328e-12
7.81911e-12
-1.92754e-12
-1.09717e-12
-1.26271e-13
-4.51136e-14
-4.39628e-13
1.30405e-12
9.65688e-12
-4.13733e-12
9.06543e-13
3.00476e-12
7.51204e-12
-1.12043e-13
-1.35583e-12
2.18204e-11
2.71255e-12
-5.32941e-13
-3.35793e-13
-3.35708e-13
-2.90484e-12
6.33671e-13
-3.50221e-13
0
-1.18243e-13
-3.81041e-12
-8.80389e-12
-1.55225e-12
-5.57099e-12
-2.86305e-12
-5.43688e-12
1.35049e-12
-2.09968e-12
6.21275e-13
1.66227e-12
1.25624e-12
2.2597e-11
-3.40909e-12
-8.41773e-13
-9.84165e-14
-4.15249e-13
-2.31786e-11
-1.32805e-12
-2.10377e-11
5.46981e-13
-1.25821e-11
3.95827e-12
-2.86643e-13
-1.30364e-11
0
-1.74802e-12
-1.51367e-12
6.42997e-13
4.6123e-12
-2.55846e-13
1.00126e-13
3.82441e-13
-1.24549e-13
-6.08745e-13
3.6805e-12
-1.10266e-12
-8.82081e-13
1.04163e-14
-2.81004e-14
-1.43359e-11
-6.42423e-12
4.69879e-13
1.63371e-12
-6.7628e-12
-4.60264e-12
0
-4.56063e-12
-1.44321e-13
3.26519e-12
1.67836e-11
-2.45052e-12
0
3.32658e-12
-4.72531e-12
-1.12787e-13
-6.39736e-13
0
-3.77686e-12
8.97676e-12
-1.88086e-12
-2.2682e-12
9.95178e-12
-2.11784e-14
-1.9911e-13
-2.09333e-13
-1.17337e-11
-4.58403e-13
8.15099e-13
-5.31642e-12
-1.33308e-14
-1.92549e-15
-2.04759e-12
4.54042e-12
-7.90027e-13
-2.82809e-13
-2.32498e-13
-3.88729e-13
-3.88712e-13
-1.16252e-12
-1.00303e-12
-3.48703e-12
3.02764e-12
-1.06245e-12
1.01236e-12
2.97602e-13
-9.74069e-14
2.45857e-13
-7.28711e-12
3.15998e-12
1.28748e-11
-7.27023e-13
-4.25608e-12
-1.46678e-12
4.67587e-12
9.27906e-12
2.03682e-11
0
-2.25238e-12
-1.67703e-12
-7.87168e-12
0
-2.55606e-13
2.00346e-11
-1.24552e-11
4.96403e-14
1.51541e-13
5.83544e-12
4.13123e-12
3.33518e-14
-4.27675e-12
-3.61848e-12
4.34563e-13
2.84372e-12
1.33168e-11
-5.75541e-12
-2.10071e-12
6.23046e-13
-4.71696e-13
3.72e-12
4.79813e-12
1.26658e-12
1.11491e-12
-8.78471e-14
-2.70185e-13
4.95299e-12
4.79304e-13
1.73334e-13
3.34677e-14
9.13667e-12
-5.90969e-13
-3.43859e-13
3.60677e-12
1.59606e-12
-2.12938e-12
2.15451e-12
1.54847e-12
-1.55227e-12
-1.84959e-12
-4.27692e-13
-1.82078e-12
-2.18976e-12
2.29823e-12
4.93342e-12
1.57889e-12
-2.37577e-12
2.57563e-12
1.28782e-12
-2.53935e-12
-3.45736e-12
-2.14509e-12
-2.79579e-12
7.08562e-14
1.34775e-12
1.80003e-12
9.11517e-14
-2.13524e-11
-2.02788e-12
-3.27106e-12
-2.92437e-13
-1.14834e-12
-1.03573e-12
-3.06772e-12
2.7457e-12
5.89824e-12
-9.50903e-13
-1.0592e-12
9.78005e-12
7.79326e-13
-5.51174e-14
-3.19224e-11
1.58354e-13
-3.4662e-13
6.41954e-12
-2.31756e-12
5.26327e-12
1.16167e-13
-4.14387e-12
1.72827e-12
1.96015e-12
-7.456e-13
1.15774e-11
1.62823e-11
3.62486e-12
4.93188e-14
2.45067e-12
6.27591e-13
-7.28022e-13
-9.97032e-14
1.9016e-12
-6.32079e-12
-2.51831e-13
0
0
-4.62792e-13
6.04131e-14
-1.32984e-12
-1.21485e-11
1.51595e-13
0
1.51488e-12
-2.49462e-12
-1.64415e-13
5.38063e-13
8.44874e-12
-4.688e-12
1.40944e-12
7.79742e-12
1.43229e-12
0
8.22062e-12
7.43352e-13
2.3131e-12
-1.23403e-11
2.1238e-12
-5.4227e-14
0
1.07222e-11
-2.68543e-12
-3.62072e-12
-6.48433e-12
8.53569e-13
-3.71691e-13
-2.46725e-11
-3.69762e-12
-2.09752e-12
2.56306e-12
2.95502e-12
5.28201e-12
-3.43009e-12
1.72545e-12
3.83181e-13
4.36286e-12
9.23675e-13
1.88475e-12
-2.69776e-14
-2.70006e-14
2.05889e-12
1.64235e-12
6.20274e-12
-1.81046e-12
-3.20916e-11
-3.30446e-11
1.57628e-12
2.33421e-12
-5.20105e-12
-9.21606e-16
-1.33578e-14
2.12899e-15
1.52652e-15
3.30949e-12
-3.54053e-14
6.71691e-14
0
2.10521e-13
-1.60683e-13
-1.60563e-13
2.91834e-14
-3.18646e-13
1.54958e-12
-9.9586e-13
-8.42847e-13
-5.34679e-13
-3.63736e-11
1.67566e-12
1.66065e-13
-7.84575e-12
-1.158e-12
-3.49993e-12
1.38744e-12
2.35601e-12
4.87436e-12
-8.93848e-13
3.23324e-13
-1.07675e-12
0
-5.11815e-12
-2.78658e-12
3.24455e-12
0
4.98672e-13
-1.36099e-12
-2.96556e-12
2.91078e-13
7.39932e-15
1.96984e-14
4.07307e-12
-5.92994e-12
3.86978e-12
-3.3009e-12
5.29442e-12
4.9663e-12
-1.33605e-12
-1.86168e-12
0
-1.39185e-11
1.7772e-14
-2.17643e-12
3.29675e-12
-6.57214e-15
1.69804e-12
-9.02317e-12
1.45538e-12
8.26677e-12
5.77357e-12
0
-1.81373e-11
-2.88309e-14
-1.66926e-14
-3.78985e-13
2.34865e-12
-4.2538e-13
-1.56604e-12
-7.80731e-12
-1.04511e-11
-1.2066e-11
-4.97469e-12
9.8963e-14
-3.1302e-12
1.73291e-11
8.04185e-12
-2.3736e-13
2.71539e-13
9.28155e-15
2.51054e-12
-2.20482e-13
6.35926e-13
-9.58189e-12
-4.84902e-12
2.42444e-12
1.18184e-13
7.58306e-13
1.32602e-15
1.20156e-14
-5.8327e-12
-1.15252e-12
-4.80279e-12
-1.22534e-12
-4.79086e-13
7.80605e-13
3.22026e-11
-6.63366e-14
-1.26048e-13
0
-4.97107e-12
-7.92288e-12
5.89347e-13
4.4685e-13
9.13367e-14
6.38769e-12
4.82947e-12
-4.99286e-12
-1.50629e-11
-3.19489e-12
0
-2.16311e-12
-8.6932e-12
-9.10694e-13
4.30284e-12
2.64044e-12
1.78211e-12
2.01259e-12
5.08172e-15
2.01383e-12
1.36237e-13
2.12313e-15
5.64256e-12
-9.569e-13
-4.34817e-12
-2.11726e-14
-1.36265e-12
-1.53565e-13
1.0934e-11
1.97039e-12
-4.19431e-13
-6.48477e-13
-8.99656e-13
2.4749e-12
5.20946e-12
1.02809e-11
4.37152e-12
0
-6.54573e-12
2.31892e-12
-1.98323e-11
2.4467e-12
-8.56518e-12
2.52703e-13
-3.3585e-13
-5.45939e-12
3.92447e-12
-1.38437e-12
2.9794e-13
3.85866e-12
-1.73401e-12
-6.9796e-12
-2.46544e-15
-7.12691e-12
-1.36271e-12
3.29744e-13
6.59456e-13
2.69694e-12
-7.48201e-12
5.3106e-12
4.30551e-12
0
2.78935e-12
-1.03069e-12
2.15531e-13
0
4.64293e-12
-2.27675e-13
-4.17472e-12
-3.44363e-12
9.55376e-12
2.17633e-12
1.5799e-13
0
0
8.10151e-12
4.56261e-12
3.12095e-12
-2.09411e-12
-3.14413e-11
-1.2477e-14
0
2.89141e-12
-4.62724e-12
-1.32463e-12
-2.36567e-12
4.6379e-12
-1.89689e-11
2.21416e-14
-3.45143e-12
3.23391e-12
3.41758e-13
-4.14409e-13
-1.82035e-12
3.38032e-13
5.23233e-14
-1.01883e-11
5.709e-12
2.75599e-13
3.07231e-12
7.42541e-13
1.90038e-12
-1.68063e-12
-5.10096e-12
-5.27781e-12
0
-6.58693e-12
2.97739e-12
9.80462e-13
-2.87832e-13
-5.41431e-13
-6.07803e-12
5.35502e-13
6.38556e-12
5.6236e-12
9.92784e-13
3.49328e-12
1.67909e-11
-1.64116e-12
-1.10355e-13
6.55309e-13
-2.02487e-12
-9.12371e-13
3.00272e-12
6.78492e-12
0
-4.7146e-13
4.09106e-13
2.72049e-12
-9.26142e-13
4.10685e-12
3.09461e-12
-2.89602e-12
-7.7881e-13
-1.91838e-13
-1.02722e-12
4.53124e-14
6.54458e-12
8.83697e-13
-6.89087e-13
-8.78335e-12
4.5328e-12
-4.23302e-12
-3.54551e-12
0
5.94566e-13
2.8303e-12
1.76083e-11
-9.0069e-12
-3.44457e-12
-9.02734e-15
-2.96093e-14
-9.55775e-13
3.04902e-12
-3.90086e-12
1.17737e-13
2.24874e-12
3.68559e-13
-4.80777e-11
1.74969e-12
-6.75923e-13
8.7604e-13
1.83052e-13
4.63157e-12
2.00125e-12
-1.20861e-12
1.88298e-12
8.39006e-12
-3.21444e-14
-1.2081e-11
-3.91309e-14
-1.0789e-12
0
-6.85098e-12
6.64706e-12
-8.87612e-13
1.65992e-12
-9.96942e-13
9.30049e-13
3.19189e-12
7.20243e-13
6.51887e-13
3.70198e-12
-6.49473e-12
1.6833e-12
-8.3609e-13
-2.03757e-14
-2.39114e-14
1.11886e-12
-2.02135e-13
-3.10349e-12
9.27677e-13
4.13889e-12
2.5268e-12
1.20831e-11
1.72304e-12
-1.14675e-11
-2.93796e-12
2.91547e-13
3.02797e-11
1.00606e-12
3.5998e-12
0
-3.73964e-12
1.14464e-13
-6.00612e-13
2.83155e-12
-7.84586e-12
-4.03563e-13
-7.39117e-14
-5.25111e-13
-3.35493e-12
-1.068e-11
-9.63478e-12
-1.6726e-12
0
-9.48616e-14
-8.40132e-13
-3.65069e-14
-4.94886e-15
-1.53804e-12
5.74256e-12
-3.39514e-12
-1.15169e-12
0
-3.40063e-14
6.01638e-15
2.43704e-12
9.22401e-12
-1.53026e-13
0
-2.79605e-12
-5.55286e-13
-9.81708e-12
-3.56487e-12
-8.22485e-13
-1.40367e-12
-8.84205e-13
-6.86683e-13
1.23536e-11
-2.04995e-13
8.56137e-14
9.09272e-14
-8.57219e-13
7.95393e-12
-7.15582e-12
-3.75106e-12
4.58645e-12
4.47512e-12
-3.17579e-12
-2.9878e-12
-1.25129e-11
8.52692e-14
2.03398e-13
0
-1.14859e-11
-1.6064e-13
3.3466e-12
1.23137e-12
-2.06999e-12
-1.0916e-12
-1.35357e-11
-4.51377e-12
-1.0941e-12
6.8238e-15
8.84372e-12
-1.39677e-13
-1.37153e-12
-1.66676e-11
-8.84881e-13
6.86423e-13
-1.14935e-12
-2.98846e-12
2.60469e-12
-4.24631e-13
1.19803e-13
9.45751e-12
-1.51634e-13
6.80001e-12
0
-3.20851e-12
-2.22336e-12
5.71111e-13
3.30067e-12
-9.73659e-13
1.74901e-13
-1.7706e-11
-2.50203e-12
1.79193e-14
9.26819e-15
8.93869e-13
-1.48913e-14
-9.54375e-12
3.26395e-13
8.84863e-13
-1.56827e-12
2.51857e-13
1.46269e-12
-1.0802e-11
1.99898e-12
5.2501e-12
0
1.08567e-14
1.22377e-14
-1.05223e-13
4.70978e-12
6.00677e-12
1.5824e-13
-2.3393e-12
-4.85777e-12
-2.73649e-13
-3.90581e-13
-6.06564e-12
3.76305e-13
2.45518e-12
2.08754e-14
2.80884e-12
-6.16679e-12
-2.38216e-12
2.2427e-12
-4.71047e-12
-2.04062e-13
-2.94946e-12
1.37694e-12
1.68987e-11
7.07693e-12
4.15309e-12
-1.09303e-11
1.79243e-12
4.85823e-12
-5.32202e-12
2.35132e-13
-1.01428e-12
9.91345e-13
3.3975e-12
-5.73983e-13
1.50931e-12
3.49428e-12
2.20976e-12
-3.47603e-11
-1.1798e-11
9.48185e-12
2.83534e-15
1.04026e-14
6.08905e-12
3.94424e-12
-3.22426e-12
3.18454e-14
-8.80217e-12
5.23731e-13
3.91928e-12
-4.86811e-13
-1.71177e-12
3.94687e-14
-5.79823e-12
1.03647e-12
1.1298e-12
-5.91212e-14
-5.00118e-12
3.56732e-12
3.12685e-12
-4.29317e-12
-6.77107e-12
5.89922e-13
-4.02267e-12
-3.01962e-12
-1.76655e-13
1.51753e-12
4.58379e-12
-8.2328e-12
2.97787e-12
1.23819e-12
-4.76002e-12
7.64212e-13
-1.242e-11
-1.89368e-12
1.21831e-12
-5.05711e-12
1.12858e-12
-4.52143e-13
-1.88259e-12
-1.03324e-11
1.93558e-12
-1.9381e-12
3.34873e-12
-9.70757e-12
3.02883e-13
-8.893e-15
-2.07069e-13
-1.80574e-13
-5.18326e-13
-5.97191e-12
5.40686e-12
-2.47105e-12
3.34523e-13
-1.52042e-12
-8.41742e-14
-2.71418e-14
4.09368e-14
-1.15887e-12
-3.74518e-12
-8.51482e-12
-1.54279e-12
-2.1092e-12
-1.02421e-14
-6.36943e-15
-5.94787e-13
-1.83407e-12
-2.07411e-11
2.08444e-11
1.92133e-12
5.08857e-12
-1.72989e-13
-4.57403e-12
-3.15782e-11
2.84455e-12
1.02981e-11
-1.9836e-12
3.39667e-12
2.62498e-12
-5.25507e-12
9.82367e-13
-3.61947e-12
1.13048e-12
0
1.84668e-12
9.68277e-14
-2.99597e-12
4.54302e-12
-5.58983e-12
2.79648e-12
-5.21349e-13
7.65412e-13
-1.05811e-13
-9.72836e-14
7.18754e-12
-1.2933e-11
-5.56634e-14
5.56961e-14
1.10326e-11
2.64194e-12
5.84135e-14
2.04845e-12
-4.48298e-13
7.57923e-13
-3.36817e-13
5.19483e-12
2.59724e-11
1.41461e-12
9.73347e-13
1.98308e-12
3.61127e-12
2.89832e-12
4.19298e-12
-7.12282e-13
2.87316e-11
-1.91133e-11
-1.02971e-13
2.87601e-12
-7.87844e-12
2.85361e-11
-1.60997e-12
-2.90314e-12
1.58904e-12
-5.8309e-14
-5.81765e-14
1.634e-11
-4.07556e-15
-1.10766e-13
-7.49032e-13
-3.31283e-13
-4.37764e-12
1.5836e-12
3.51838e-12
-1.0941e-12
-1.68305e-12
-5.21738e-13
3.85908e-13
-6.27464e-12
-4.0373e-12
-6.66785e-13
1.25868e-11
-9.03479e-12
3.33462e-14
1.7068e-12
2.28881e-11
1.51904e-11
5.97912e-12
3.13782e-12
-2.22934e-13
1.63724e-13
-3.67466e-12
3.68803e-12
-5.20964e-12
1.03798e-11
9.38545e-12
-4.27625e-12
-3.63992e-12
-3.22245e-13
-6.93746e-13
-8.8888e-14
1.57382e-14
-3.92573e-12
-2.3376e-12
-5.7313e-12
-2.18166e-12
5.66986e-13
4.44737e-14
5.79742e-13
-1.6497e-12
9.12504e-13
2.76955e-12
2.75889e-11
-1.96166e-12
2.09499e-11
3.69836e-13
-5.09375e-12
-9.10085e-14
-2.75715e-12
-3.78728e-12
5.07257e-14
3.25016e-12
-8.23754e-13
2.05005e-13
-3.08719e-12
4.5674e-13
-1.04124e-12
-1.21988e-11
-1.52469e-12
9.37152e-13
3.31002e-13
-2.79557e-12
4.13784e-12
-5.57563e-12
-1.17928e-12
-5.73826e-12
7.64449e-12
-8.10043e-13
-3.85997e-12
-5.43999e-12
1.86298e-12
-1.36402e-11
0
1.79564e-12
4.52898e-12
-2.82723e-12
9.28382e-13
8.07188e-12
6.40144e-12
-5.64798e-12
6.17426e-12
9.26718e-13
-4.73348e-12
-8.04659e-12
-2.26967e-12
0
9.06631e-12
0
-1.81658e-12
-5.3027e-14
-1.5007e-13
-5.8777e-12
-6.27057e-14
-2.65615e-12
-1.81066e-12
1.63007e-12
0
0
-3.44614e-13
-3.5918e-13
-6.67403e-12
8.76983e-13
1.5393e-11
-2.32882e-13
2.90275e-12
2.57821e-12
3.83207e-13
3.52297e-13
-7.20727e-14
9.78621e-14
-2.94198e-12
1.10361e-12
0
-1.84446e-12
3.41862e-12
-1.25978e-12
0
2.87237e-14
1.94166e-14
4.13037e-13
-1.59547e-12
1.86675e-13
-1.93375e-13
-6.22731e-14
1.47364e-12
-3.85704e-12
1.45945e-12
-2.65888e-12
-1.0043e-12
-1.25517e-12
3.89703e-12
4.03483e-14
3.47703e-14
0
-3.22168e-12
1.26613e-12
3.33851e-12
0
2.86301e-12
1.73091e-12
9.16013e-13
1.52631e-12
1.00954e-11
2.13831e-11
-3.4357e-12
7.33698e-12
-6.0619e-13
-2.31356e-13
3.1828e-12
1.47832e-12
-1.46243e-12
0
-6.35812e-12
-3.24041e-12
-7.28368e-12
2.43765e-12
-1.92653e-12
1.26987e-12
1.8093e-12
-2.59076e-12
5.47458e-12
-4.9839e-14
9.67089e-13
2.06713e-12
-4.89197e-12
4.52382e-12
-6.08181e-12
-1.96137e-12
1.91308e-12
0
5.38293e-12
-2.23705e-12
-2.46894e-13
-3.25536e-12
5.26874e-12
-2.28713e-13
2.63032e-12
-2.26325e-13
4.82463e-12
1.60687e-12
-4.04669e-13
3.60216e-12
4.32966e-16
-6.36939e-15
-2.58584e-12
-1.49121e-13
-3.16422e-11
1.3076e-12
-1.63986e-12
-3.6621e-13
-5.47449e-12
-5.09549e-13
-1.97509e-11
-5.18567e-12
-1.04841e-12
-8.9548e-13
-1.6227e-12
1.78626e-12
-3.52654e-13
-4.05626e-12
-7.43942e-13
-2.9025e-12
-2.99381e-12
2.27028e-12
5.92045e-13
-2.98703e-14
1.05968e-14
-3.60466e-13
-4.76689e-12
9.7062e-12
-5.97831e-12
-3.26087e-12
1.24729e-12
-4.243e-14
2.0539e-13
1.26017e-11
-9.74079e-12
9.91089e-13
6.87794e-13
7.48359e-13
5.68026e-13
1.32245e-11
-1.24253e-11
-3.46944e-12
1.7509e-12
1.57387e-12
-5.62352e-13
8.65604e-13
4.28136e-12
1.00983e-12
-1.4322e-12
1.00896e-13
-3.89216e-12
3.62406e-12
3.45484e-12
1.62609e-12
-3.70616e-13
2.52009e-13
-3.53725e-12
2.92315e-12
-1.6852e-12
0
7.89318e-12
-6.08889e-13
-6.09026e-13
-3.3529e-12
-5.32754e-13
4.54509e-13
-1.67219e-13
2.73318e-13
5.05002e-12
-3.09285e-13
9.68431e-14
-1.78438e-12
1.0345e-12
-1.16319e-11
-2.54704e-12
-8.38298e-12
7.83411e-14
6.05281e-14
2.30564e-12
-8.31989e-12
0
2.76291e-12
3.7524e-12
5.83218e-14
1.43649e-12
2.77869e-12
4.23816e-12
-1.58216e-12
-2.07758e-12
-3.98796e-14
0
8.87736e-14
1.57925e-12
2.41107e-12
-3.40804e-11
4.21725e-12
5.29977e-12
-1.90209e-13
-1.87379e-13
1.05153e-13
1.46705e-12
-2.0048e-12
-4.34863e-13
2.54312e-12
-2.32413e-12
3.93145e-13
-2.8156e-13
-3.35026e-13
-3.28818e-13
-1.29738e-12
-4.6892e-15
6.70555e-15
8.19273e-12
-4.1153e-13
2.70983e-12
0
3.40037e-14
2.72719e-13
-2.17392e-12
-9.10328e-13
3.9051e-12
7.16818e-13
3.908e-12
-1.65811e-13
-6.76797e-13
6.76801e-13
0
4.5532e-13
4.23627e-13
-2.29421e-12
-4.69018e-12
4.92583e-12
1.19886e-13
1.35467e-12
8.13745e-12
1.28528e-11
-2.41106e-12
-4.32097e-12
-2.73784e-12
2.7378e-12
-1.77112e-11
-1.65336e-12
9.69485e-13
1.11329e-12
-9.62889e-12
-2.22384e-11
7.69127e-12
-6.69673e-12
6.31267e-12
2.26104e-12
5.63557e-13
1.34102e-14
-3.30366e-13
0
-1.18708e-11
-7.33283e-13
2.42696e-12
-4.35132e-14
-2.44037e-12
1.51066e-12
-4.38408e-11
-3.57897e-12
1.23075e-12
-7.80101e-13
-4.43234e-12
-2.50084e-12
2.46836e-12
2.84984e-13
-3.30105e-13
2.10579e-12
-7.91719e-13
8.4178e-14
2.39601e-13
2.07873e-12
1.09594e-12
-2.96441e-12
-1.09479e-12
-1.49559e-12
-5.61531e-13
-4.62801e-13
-1.41293e-12
-4.10299e-12
-6.72059e-12
4.628e-12
-8.94624e-14
-8.63657e-14
-5.43815e-13
1.35367e-12
-1.39652e-11
1.89641e-11
0
8.07839e-13
-8.07823e-13
4.36721e-12
1.34814e-12
-1.62795e-11
-3.85423e-13
-3.20057e-12
-1.66977e-11
1.16868e-11
7.73615e-15
2.66781e-12
-9.00269e-12
-6.49836e-12
8.07732e-12
-3.58135e-15
1.12435e-13
2.03108e-12
2.94193e-12
1.11851e-12
0
-1.94857e-12
-9.62291e-13
2.39022e-12
8.24693e-14
2.0483e-13
-3.28128e-12
-1.22256e-13
-2.14048e-13
-7.53627e-13
-3.32178e-12
1.81102e-12
1.01516e-11
3.89542e-13
-1.5867e-12
2.76495e-12
6.7148e-12
-6.94259e-12
-1.31991e-12
-1.73551e-12
-1.73545e-12
-3.02367e-14
5.77294e-14
3.29825e-12
-4.57501e-13
1.19243e-12
-4.77548e-13
2.27392e-13
3.05026e-13
8.75726e-13
8.94683e-14
-6.39041e-12
-3.65217e-11
-2.12726e-11
2.523e-12
1.10984e-11
-1.69507e-12
-1.08982e-11
-8.43871e-12
-2.61398e-12
-7.03466e-12
6.07726e-13
6.07859e-13
2.61931e-11
0
-3.24572e-12
-1.9218e-12
-3.22918e-12
-3.44173e-12
8.26602e-14
-9.7225e-13
-3.42175e-13
-1.32422e-12
-1.7427e-12
-2.12375e-12
-5.2166e-12
-5.12736e-13
5.71674e-13
-1.46464e-12
-1.03926e-12
6.99442e-13
2.93466e-13
2.10665e-13
9.36794e-14
-2.82841e-11
3.01086e-13
-9.79874e-14
1.62428e-12
1.85246e-13
-2.44977e-13
-5.98269e-13
-1.2361e-12
-2.83526e-12
0
6.58444e-12
-9.54726e-12
-2.38352e-13
-5.82958e-13
4.58922e-12
-5.46331e-12
-3.13385e-12
1.22375e-11
-7.45258e-15
-8.03113e-13
-2.98009e-12
2.14421e-12
2.07464e-12
7.26496e-13
1.08328e-14
-1.85652e-12
-2.69412e-14
1.52643e-12
3.51794e-12
-1.52783e-12
9.86087e-13
-1.23896e-12
0
5.57949e-12
-3.74495e-12
-1.14775e-13
-5.36614e-13
3.71896e-12
-9.41263e-12
-3.02837e-13
1.50413e-12
-7.37425e-14
-1.22649e-14
-3.53645e-14
1.33861e-12
-2.57241e-12
6.92925e-14
-1.90123e-12
-4.03132e-12
-3.00316e-12
1.26394e-11
1.00591e-12
3.06847e-11
-3.31709e-12
-3.55985e-13
1.21031e-11
1.60662e-12
4.93494e-13
2.19617e-12
-6.50668e-13
5.48751e-14
-1.9649e-13
-4.11166e-12
8.0951e-14
-5.49553e-12
-4.69194e-13
1.19431e-12
-1.12039e-11
6.6418e-12
9.07374e-12
-1.19461e-13
-7.84352e-14
-9.87035e-13
2.38083e-12
-6.7341e-13
-1.29065e-12
7.73675e-12
-1.55263e-12
-3.41484e-13
1.97575e-12
-6.795e-12
-2.00485e-13
-3.5548e-13
1.41873e-14
4.45207e-13
-6.08747e-12
-1.52826e-12
4.85735e-13
-1.55845e-12
-3.00245e-12
1.70625e-11
1.48167e-14
3.96715e-14
-2.69364e-11
-1.76887e-13
-3.01241e-12
-1.6802e-12
-2.29879e-12
0
-5.43162e-12
-5.90625e-12
2.76362e-12
2.76359e-12
-9.14533e-14
0
-1.76373e-13
-2.76806e-11
-8.50464e-13
-3.19543e-12
-1.79302e-11
3.10732e-11
3.0977e-14
9.82316e-13
2.4142e-12
-1.83018e-12
2.16225e-12
-1.29822e-13
-5.26226e-14
-9.28691e-13
-3.8338e-12
2.98753e-14
-1.04306e-11
-3.2636e-12
1.89152e-13
-9.81774e-13
2.66716e-12
0
-1.54454e-12
8.09157e-12
-1.98237e-13
2.40914e-12
0
-1.4408e-11
-3.74507e-13
3.5636e-12
1.04493e-12
5.98127e-13
3.3846e-12
-2.43068e-12
-3.20322e-13
-2.92423e-13
1.98611e-12
-2.43157e-11
1.06555e-11
0
-2.47373e-12
-8.95852e-13
-2.239e-12
1.06376e-11
3.57774e-13
-1.48621e-12
5.67251e-12
-4.2706e-15
-1.01093e-14
-1.55048e-12
5.48872e-12
3.81747e-12
7.10386e-13
-8.62623e-12
4.66913e-13
-1.22841e-12
3.2052e-12
3.86056e-12
-5.31159e-13
-6.69408e-12
3.37323e-12
2.0291e-12
0
1.59022e-12
-7.49971e-12
-2.7425e-13
-3.62381e-12
-3.09376e-12
8.60252e-12
8.8686e-12
9.23387e-13
-6.35812e-12
2.04847e-12
9.78679e-13
2.48619e-13
1.11579e-12
-5.21033e-13
-5.91982e-14
-6.16598e-12
0
-1.23459e-12
1.44965e-11
-1.35849e-11
-2.0588e-12
1.24412e-12
6.92877e-12
-9.55308e-13
-9.83814e-13
0
0
-1.62667e-12
3.0066e-12
4.26584e-12
-7.45893e-12
3.38618e-12
-7.00038e-14
5.57948e-12
-5.94783e-13
3.56534e-13
1.22894e-12
4.1863e-12
4.26343e-12
4.26372e-12
8.8697e-13
3.54147e-12
-3.23263e-12
-4.11506e-13
4.19393e-12
1.7021e-12
5.72965e-12
8.24478e-12
-6.09132e-12
-5.82541e-12
-3.64572e-12
-3.13538e-12
-4.87684e-12
-6.86963e-13
1.80905e-13
4.96707e-12
1.12813e-12
0
-3.72064e-12
-2.89151e-12
-4.32279e-12
-3.1089e-12
-7.76828e-12
-1.49042e-12
-3.46495e-12
5.01818e-12
4.68542e-13
-9.03803e-13
0
-2.57359e-12
-2.87407e-14
-5.88226e-12
8.75799e-14
1.97162e-12
-5.3706e-12
-6.71951e-12
-2.30086e-12
6.37619e-13
0
9.21594e-13
2.04546e-12
-9.85347e-13
-3.7995e-13
2.3671e-15
5.84505e-14
4.65114e-13
6.19128e-13
-9.17314e-13
1.98827e-11
1.00127e-12
8.54134e-13
-1.29546e-12
2.10779e-11
-5.6659e-12
-7.58357e-13
2.80861e-14
-1.56442e-14
-9.37807e-12
1.20364e-11
-2.13146e-12
-1.84918e-14
3.35728e-14
-2.23091e-13
1.13028e-13
-4.47038e-12
-2.79402e-13
1.62802e-12
-3.48583e-13
3.00817e-13
-2.59616e-12
3.45984e-14
-3.00211e-14
-2.51106e-12
-3.37097e-12
1.93079e-12
9.49668e-12
-1.72403e-13
-1.95162e-12
-3.42383e-12
0
3.02791e-12
6.31509e-13
-1.19458e-11
-8.09664e-13
3.25856e-12
3.89655e-12
-1.16148e-11
-5.30002e-13
-2.43009e-12
-3.34856e-12
-1.27611e-12
-2.48587e-12
-1.75869e-12
-1.74596e-11
-1.88919e-12
-4.06792e-12
1.46251e-11
-6.06139e-12
-1.49336e-12
8.55184e-15
-2.0831e-15
1.1208e-15
-6.56858e-12
-3.15459e-14
-3.16873e-14
1.68569e-13
0
0
-3.53756e-11
-2.55452e-12
-4.70461e-12
0
-1.14313e-11
1.36242e-11
-3.26664e-12
5.27421e-13
-1.44489e-11
-1.78127e-12
1.18975e-12
7.77156e-13
-7.43178e-12
1.8371e-12
1.35073e-11
-1.36324e-11
-1.3656e-12
-2.66964e-12
2.81979e-13
1.09165e-13
1.2694e-12
-1.6172e-11
-1.93118e-11
0
-2.45633e-13
8.7751e-13
2.5606e-12
1.06144e-12
-8.97444e-12
-6.2374e-13
7.40152e-12
1.82312e-14
-6.84296e-12
-1.21805e-12
-1.32087e-12
3.54617e-12
6.11179e-12
-3.23405e-13
-6.39245e-12
8.14486e-12
5.13974e-13
-4.20385e-13
4.25802e-12
-3.35469e-12
1.67211e-12
-1.24652e-12
0
-1.83927e-14
1.38108e-12
-1.02871e-12
-3.99445e-12
9.30051e-13
-1.88722e-12
-9.79104e-13
8.64406e-13
3.84196e-13
-4.99437e-12
6.27949e-13
7.41525e-12
-1.89206e-12
-9.55357e-13
-5.84954e-12
-6.6947e-13
1.70697e-13
3.40707e-12
3.12217e-12
-1.76471e-13
8.89086e-15
1.30165e-14
-2.08638e-12
-6.74059e-12
-7.36336e-12
3.98923e-12
3.44125e-12
7.9313e-14
-1.31249e-13
0
2.678e-12
7.03766e-13
-2.88201e-12
3.27148e-12
2.19287e-11
-2.81172e-12
-1.17203e-12
-3.60058e-12
-2.1738e-11
4.2208e-12
3.67934e-12
-3.70619e-13
7.15483e-14
-4.95457e-14
3.83918e-12
1.84593e-12
1.73021e-13
-2.91647e-12
-1.18858e-12
4.40279e-12
-1.60861e-12
-4.09513e-12
3.44965e-13
6.43918e-14
-8.99585e-14
-1.79884e-13
0
-4.24935e-12
2.53969e-14
2.8328e-14
-4.36761e-12
-2.39209e-12
0
0
4.28671e-13
-5.18338e-12
-7.31101e-12
-1.66951e-12
9.88411e-13
9.88439e-13
-1.97664e-12
1.11497e-12
1.30529e-12
-2.42406e-12
-2.03324e-11
-7.188e-13
1.52198e-12
-2.23688e-12
2.58503e-12
-1.63997e-12
3.04273e-14
5.89172e-15
-1.30424e-11
8.69046e-12
-2.00812e-12
-9.87069e-13
1.01466e-11
5.02674e-12
1.46253e-12
2.79906e-12
-3.35658e-12
8.15713e-13
2.39739e-12
1.62706e-12
1.52211e-11
-3.76058e-12
-1.46464e-11
-5.2949e-12
-4.29517e-13
-1.65107e-12
9.09895e-12
-3.10735e-12
1.90298e-12
-1.3101e-12
1.60406e-13
1.78246e-12
4.28115e-12
-4.34082e-12
1.8708e-11
1.23002e-12
1.3334e-12
-4.02054e-12
3.43721e-13
-3.26266e-12
-4.06415e-12
-4.71933e-12
-7.208e-13
5.88843e-12
1.55056e-11
-2.50411e-12
-2.32284e-12
-2.78367e-14
7.43305e-15
5.60318e-15
-9.38235e-14
2.50756e-13
-1.62949e-12
-1.3827e-13
-4.01542e-12
-6.11254e-11
2.58977e-13
1.63522e-12
-2.10823e-12
9.798e-12
2.69229e-13
1.3675e-13
-2.84102e-14
-6.6487e-12
-8.62296e-12
6.663e-12
-9.16605e-12
4.42934e-13
-1.13242e-11
-2.3978e-12
-2.56691e-12
1.23227e-12
1.71169e-12
1.99311e-12
-2.26415e-12
3.4482e-14
3.51904e-14
-6.96955e-12
-1.92899e-13
6.40923e-13
-2.54973e-12
3.37007e-12
-3.249e-13
3.07735e-12
3.06075e-12
0
3.23034e-12
-1.74866e-12
9.8586e-14
4.72319e-12
0
-1.66093e-12
8.10212e-12
1.99885e-12
-5.4674e-12
3.17311e-12
3.86613e-12
2.74691e-12
-8.76766e-13
3.90507e-12
1.43695e-13
-3.72335e-14
1.73528e-12
-2.73655e-12
-3.66156e-14
1.85718e-14
3.27729e-12
9.26377e-14
-2.1796e-13
1.00484e-12
2.8168e-12
2.6357e-13
-7.43746e-14
5.64251e-13
-2.36792e-12
1.91629e-12
1.01404e-12
-4.94839e-13
2.29297e-12
-1.22026e-12
-7.31111e-12
-2.36906e-12
8.37845e-12
-1.06255e-12
-2.92363e-12
0
3.57983e-14
3.42714e-12
8.08694e-12
4.72077e-12
6.48299e-12
4.5184e-12
-6.16551e-12
1.21007e-11
-1.3936e-11
-1.10398e-12
-1.24539e-12
1.36109e-13
9.72032e-13
5.72322e-13
-1.12323e-11
-7.9778e-13
1.13767e-12
9.26035e-13
-1.25832e-12
4.14353e-12
1.86284e-11
9.10251e-14
1.15797e-13
7.6697e-13
-7.91839e-13
1.11036e-13
9.84327e-14
3.9344e-12
6.46206e-13
-1.1276e-12
-9.90221e-14
-7.25001e-12
-2.28027e-12
4.85739e-12
-2.43848e-12
1.03151e-13
-1.445e-11
-6.54301e-13
-1.8462e-12
2.26791e-12
-9.38315e-13
-2.09522e-11
2.04565e-13
-3.76115e-12
-7.77145e-14
-3.46129e-12
4.08898e-12
0
-4.00559e-12
-6.32339e-12
2.25541e-12
9.50285e-12
1.49224e-12
0
-3.63779e-12
3.21265e-12
-9.29202e-12
-4.66285e-12
-1.5655e-13
-1.42363e-11
-4.30917e-12
2.59295e-12
8.11416e-13
-4.32021e-14
-4.77753e-14
-2.02735e-12
-7.27873e-13
-1.04993e-12
-5.18444e-13
-1.20257e-12
-2.64451e-12
-1.68692e-12
1.72877e-12
4.1798e-12
0
1.65486e-14
-2.07661e-11
-2.20576e-13
1.83276e-12
-2.64606e-12
-9.06831e-12
4.00247e-13
5.46432e-14
5.64347e-12
-8.17773e-13
6.63515e-12
3.95796e-12
-3.03346e-12
3.32748e-13
8.16574e-13
1.89812e-12
-4.34029e-13
2.21882e-12
1.06046e-12
1.74567e-12
3.53196e-12
-8.32921e-13
1.86671e-12
2.5678e-13
6.26551e-13
2.9452e-12
-1.83801e-14
1.08902e-11
-3.74586e-13
1.17572e-12
3.09866e-14
2.91516e-14
3.96951e-12
8.12719e-13
-6.61593e-13
-2.85588e-13
-1.11942e-13
1.78988e-14
3.18987e-12
1.209e-13
3.46353e-14
6.2001e-12
-7.52095e-12
-9.69619e-13
-5.10524e-12
0
2.46921e-13
-3.02681e-12
2.48449e-12
-9.68017e-13
-5.06596e-13
3.61405e-13
7.69152e-14
-7.12949e-12
4.70116e-11
-3.30734e-12
-5.48386e-12
-5.16193e-12
-6.46442e-12
-4.97006e-12
9.73107e-12
-1.90553e-12
-1.70342e-12
-3.53314e-14
2.31373e-14
2.41192e-12
-2.10853e-13
-2.67287e-12
-5.34423e-12
5.74026e-13
-6.92206e-13
1.48742e-12
-1.57023e-12
9.92868e-13
1.36068e-12
3.63395e-13
3.00667e-12
-3.41693e-12
5.4103e-12
-7.74078e-12
1.43254e-12
-1.09114e-11
5.52709e-12
-2.69685e-12
-4.83455e-12
-1.12368e-12
1.66496e-12
-1.90952e-12
7.3025e-13
-1.65306e-11
3.65773e-12
6.33507e-14
-3.41711e-13
-1.59752e-13
1.59053e-13
-1.57659e-11
1.39152e-12
-2.27131e-12
-4.19432e-12
-1.61695e-11
4.16308e-12
-1.93624e-12
-2.82238e-12
-3.02939e-12
-1.71535e-12
0
-6.53751e-12
-9.66069e-12
0
7.75359e-12
2.89779e-12
4.40896e-12
-9.16006e-12
1.4175e-12
1.37066e-11
5.24659e-14
4.98952e-11
1.36157e-13
6.70906e-14
2.51915e-12
-1.13687e-11
-1.09293e-12
-2.61458e-12
2.4973e-12
-2.3723e-12
-4.93687e-13
1.419e-13
-4.36401e-12
1.02905e-12
9.34985e-12
-3.00427e-12
-6.48271e-12
-3.66986e-12
7.13116e-12
6.90688e-13
5.30031e-12
-8.36008e-12
1.14267e-12
4.16513e-13
1.25064e-13
4.90069e-14
-3.39797e-12
-1.33182e-12
0
-5.14067e-13
1.08935e-13
1.08806e-13
-1.8041e-13
-1.80486e-13
-6.60482e-14
-6.10046e-12
1.00967e-12
0
0
2.97961e-12
-2.36444e-12