/*--------------------------------*- C++ -*----------------------------------*\
| =========                 |                                                 |
| \\      /  F ield         | OpenFOAM: The Open Source CFD Toolbox           |
|  \\    /   O peration     | Version:  v3.0+                                 |
|   \\  /    A nd           | Web:      www.OpenFOAM.com                      |
|    \\/     M anipulation  |                                                 |
\*---------------------------------------------------------------------------*/
FoamFile
{
    version     2.0;
    format      ascii;
    class       volSymmTensorField;
    location    "10000";
    object      sigma;
}
// * * * * * * * * * * * * * * * * * * * * * * * * * * * * * * * * * * * * * //

dimensions      [1 -1 -2 0 0 0 0];

internalField   nonuniform List<symmTensor> 
27023
(
(-1.97778e+07 -1.63239e+07 1.66171e-13 -1.58813e+07 -2.14371e-14 -8.84774e+06)
(1.97808e+07 -1.63269e+07 1.08794e-13 1.58838e+07 -1.80934e-13 8.84912e+06)
(1.27334e+07 -1.20574e+07 7.21167e-13 1.26182e+07 -2.09888e-13 6.29025e+06)
(-1.27308e+07 -1.20555e+07 5.53523e-13 -1.26184e+07 1.62351e-13 -6.28965e+06)
(-1.99835e+07 -1.5553e+07 0 -1.49205e+07 0 -8.66038e+06)
(1.99867e+07 -1.55559e+07 -5.49462e-13 1.49226e+07 1.65035e-13 8.66169e+06)
(1.07893e+08 -1.52389e+07 4.56519e-12 5.69969e+06 -4.34407e-12 2.81847e+07)
(-1.07887e+08 -1.52366e+07 -1.12762e-12 -5.69874e+06 -1.04806e-12 -2.8183e+07)
(4.78058e+06 -6.0685e+06 -1.06673e-13 8.8344e+06 7.15242e-14 3.37815e+06)
(-4.77486e+06 -6.06808e+06 -5.02569e-13 -8.84057e+06 -1.38566e-13 -3.37826e+06)
(7.80593e+07 -1.49134e+07 -6.85647e-13 8.83549e+06 1.22029e-12 2.15604e+07)
(-7.80496e+07 -1.49095e+07 -9.70908e-13 -8.83626e+06 -5.5868e-13 -2.15581e+07)
(859750 -1.4138e+06 -6.93192e-14 2.33012e+06 -1.4225e-13 791472)
(-878740 -1.4213e+06 3.68769e-14 -2.33088e+06 -3.8262e-14 -796372)
(-3.12344e+07 -2.56415e+06 8.35773e-13 -834670 3.42426e-12 -7.957e+06)
(2.54646e+06 1.1858e+07 1.02348e-12 132197 -7.6842e-13 664629)
(1.71936e+06 1.13356e+07 -9.26898e-13 483468 -3.90512e-13 546565)
(-6.6934e+07 -2.58147e+06 0 -1.4578e+06 0 -1.69694e+07)
(6.69366e+07 -2.58231e+06 3.3907e-12 1.45835e+06 -1.93339e-12 1.69702e+07)
(4.90664e+07 -2.03803e+06 0 2.26675e+06 0 1.27368e+07)
(-4.90654e+07 -2.03731e+06 -7.34573e-14 -2.26177e+06 1.03888e-12 -1.27353e+07)
(1.07269e+08 -1.37081e+07 4.11513e-15 4.86937e+06 -1.07686e-12 2.78239e+07)
(-1.07264e+08 -1.37059e+07 -2.65168e-12 -4.86845e+06 -3.21296e-12 -2.78222e+07)
(5.4881e+07 -1.35463e+06 -9.38195e-13 7.29372e+06 -1.48834e-12 1.54268e+07)
(-5.48799e+07 -1.35233e+06 2.40355e-12 -7.28968e+06 -2.46071e-13 -1.54255e+07)
(8.62394e+06 -281407 3.87185e-12 831294 -5.55106e-13 2.34604e+06)
(-3.83821e+07 4.05411e+06 1.79757e-12 -5.20253e+06 2.87851e-13 -1.08142e+07)
(4.07583e+06 -1.41008e+06 8.46938e-12 -39543 2.19785e-11 1.00148e+06)
(-3.78754e+07 3.73002e+06 -1.40386e-12 -5.69337e+06 7.34213e-13 -1.08103e+07)
(3.72589e+07 -3.15207e+06 -5.20937e-12 -144764 6.5251e-12 9.20877e+06)
(1.79088e+07 -670334 1.00027e-11 1.05153e+06 -5.36519e-12 4.70443e+06)
(4.91133e+07 -2.50669e+06 4.17219e-13 2.25258e+06 -2.1244e-12 1.27449e+07)
(-4.91133e+07 -2.5067e+06 5.14341e-12 -2.24956e+06 4.21448e-12 -1.27442e+07)
(-4.99322e+07 -2.16153e+06 -4.95982e-13 -102247 2.30813e-12 -1.24146e+07)
(-3.09212e+07 -1.63798e+06 1.01828e-12 -905650 4.19436e-12 -7.89689e+06)
(3.88052e+07 -1.8581e+06 -1.09993e-11 137748 2.09488e-12 9.66253e+06)
(4.47142e+07 -1.07059e+06 1.75822e-12 3.853e+06 -1.49085e-12 1.20505e+07)
(-4.47098e+07 -1.06919e+06 3.51641e-12 -3.85405e+06 2.98164e-12 -1.20497e+07)
(4.58105e+06 -6.05469e+06 1.9707e-13 8.25129e+06 -1.8284e-13 3.18396e+06)
(-4.57875e+06 -6.05518e+06 -2.85408e-13 -8.25585e+06 -1.30992e-13 -3.18452e+06)
(-1.27063e+07 -1.20741e+07 -2.11236e-13 -1.33722e+07 -6.83848e-14 -6.47062e+06)
(1.27091e+07 -1.2076e+07 -9.38261e-14 1.33723e+07 2.69869e-14 6.47135e+06)
(-2.52415e+07 -1.99563e+06 -1.11302e-11 -211909 -5.56425e-12 -6.3155e+06)
(-1.90455e+07 -1.57549e+07 -1.14667e-13 -1.46426e+07 -1.42328e-13 -8.3587e+06)
(1.90486e+07 -1.57578e+07 1.14645e-13 1.4645e+07 -1.42193e-13 8.36007e+06)
(6.60502e+07 -2.49991e+06 5.23164e-12 1.36286e+06 -1.48202e-12 1.67265e+07)
(-6.60476e+07 -2.49912e+06 -3.77553e-12 -1.36228e+06 -2.2576e-12 -1.67258e+07)
(5.19183e+07 -1.62711e+06 -4.91849e-12 5.66152e+06 1.85973e-12 1.42867e+07)
(-5.19166e+07 -1.62647e+06 4.91848e-12 -5.65778e+06 1.85982e-12 -1.42854e+07)
(3.43714e+07 -2.71638e+06 -3.32472e-12 -163651 1.23695e-12 8.48764e+06)
(5.00941e+07 -759503 3.71465e-12 5.32856e+06 -1.11146e-12 1.37515e+07)
(-5.00931e+07 -758807 -1.45025e-12 -5.32495e+06 -1.88972e-13 -1.37503e+07)
(-4.87059e+07 -2.37857e+06 8.65777e-12 -75478.2 1.10456e-12 -1.21036e+07)
(479.571 -88679.7 4.72424e-15 578858 2.4728e-14 143745)
(-476.553 -88433.9 1.0418e-13 -575956 8.58152e-14 -143025)
(5.48667e+07 -2.19613e+06 1.80842e-12 206926 3.63269e-12 1.36649e+07)
(2.29553e+07 -1.78604e+06 2.93103e-12 281344 7.8735e-12 5.76549e+06)
(4.0819e+07 -1.60322e+06 1.37082e-11 -42359.7 3.39022e-12 1.01175e+07)
(-1.86074e+07 -3.019e+06 -2.45782e-12 36687.2 2.03761e-12 -4.60776e+06)
(1.21288e+07 -1.24664e+07 -1.12193e-12 1.38761e+07 3.70028e-13 6.45234e+06)
(-1.21266e+07 -1.24646e+07 -7.53472e-13 -1.38758e+07 -2.3924e-13 -6.45171e+06)
(3.38328e+07 -1.66244e+06 -1.99733e-11 75096.3 7.21277e-12 8.41324e+06)
(5.22344e+06 -2.04432e+06 8.06615e-12 264188 -1.77854e-12 1.36159e+06)
(6.05453e+06 -855243 4.58817e-12 -176755 2.30228e-11 1.4584e+06)
(-2.45201e+07 -3.25849e+06 -1.18988e-11 -94232.6 -1.7678e-11 -6.10732e+06)
(1.58996e+07 -271520 -2.35607e-12 1.14364e+06 1.05944e-12 4.22879e+06)
(4.36634e+07 -1.80585e+06 1.22733e-12 1.47727e+06 -5.6639e-12 1.12003e+07)
(1.06858e+07 136970 -5.31064e-12 899148 1.98876e-13 2.87445e+06)
(-3.8909e+07 4.23627e+06 1.15978e-12 -4.3685e+06 -9.4044e-13 -1.0738e+07)
(-2.35475e+07 -2.91935e+06 -1.16415e-11 -223773 -2.49208e-12 -5.89814e+06)
(4.28154e+07 -1.45322e+06 0 4.04727e+06 0 1.16276e+07)
(-4.28108e+07 -1.45167e+06 -3.55364e-12 -4.04825e+06 -5.15862e-12 -1.16267e+07)
(7.47674e+07 -4.42675e+06 -3.41527e-13 6.90862e+06 2.8136e-12 2.02655e+07)
(-7.47649e+07 -4.42437e+06 -1.97615e-12 -6.90625e+06 3.74933e-12 -2.02643e+07)
(9.95318e+07 -1.55375e+06 -2.12748e-12 137706 7.42205e-12 2.473e+07)
(-9.95299e+07 -1.55366e+06 -1.26962e-12 -137696 3.62744e-12 -2.47295e+07)
(179124 -362899 1.28061e-14 1.00377e+06 6.99714e-14 293499)
(-176959 -360582 -6.78179e-14 -1.00328e+06 6.26623e-14 -292841)
(-1.17316e+08 -6.21846e+06 7.89246e-12 -1.64957e+06 7.07694e-12 -2.95177e+07)
(1.17319e+08 -6.21892e+06 -3.61015e-12 1.64966e+06 4.69077e-12 2.95186e+07)
(-2.91526e+07 1.59979e+06 1.26367e-12 -3.85844e+06 1.89588e-12 -8.19072e+06)
(7.54269e+07 -1.41393e+07 4.25425e-12 8.37492e+06 -2.91076e-12 2.07929e+07)
(-7.5417e+07 -1.41352e+07 -3.34581e-12 -8.37538e+06 -2.28532e-12 -2.07906e+07)
(7.28371e+07 -4.89396e+06 -6.27852e-13 7.30382e+06 1.17778e-12 1.98846e+07)
(-7.28348e+07 -4.89167e+06 1.58013e-12 -7.30135e+06 3.9468e-12 -1.98834e+07)
(-1.05678e+08 -792760 -5.03952e-12 16735.4 -1.73603e-12 -2.62168e+07)
(1.0568e+08 -792731 -2.7082e-12 -16736 1.47107e-12 2.62172e+07)
(-4.35254e+07 -1.80677e+06 2.96866e-12 -1.43622e+06 -5.79581e-13 -1.11559e+07)
(4.19432e+06 -3.08871e+06 5.60611e-12 195484 -4.33251e-13 1.0892e+06)
(-1.96885e+07 -2.95157e+06 -4.86359e-12 82225 2.79323e-12 -4.86471e+06)
(1.88642e+07 -2.82901e+06 2.86602e-12 182716 4.64663e-11 4.72592e+06)
(2.47922e+07 -1.5967e+07 1.44213e-13 1.31421e+07 1.35673e-13 9.41227e+06)
(-2.4789e+07 -1.59638e+07 -2.87329e-13 -1.31396e+07 -1.61747e-13 -9.41086e+06)
(2.17982e+07 8.81967e+06 -4.04773e-13 2.36417e+06 7.0882e-13 5.99519e+06)
(-8.84554e+06 -2.22866e+06 -8.78575e-14 -498158 -1.13674e-13 -2.31836e+06)
(-5.50329e+07 -402342 -3.88447e-12 -6.83735e+06 -3.11736e-12 -1.53513e+07)
(5.50278e+07 -400856 -4.08971e-12 6.84032e+06 6.31343e-13 1.53507e+07)
(-2.9082e+07 2.19795e+06 3.70117e-12 -3.99884e+06 7.44352e-13 -8.20803e+06)
(-1.9618e+07 -3.27345e+06 -5.93861e-12 -202360 -3.9212e-12 -4.91783e+06)
(934117 -3.5567e+06 3.2207e-12 -35933.5 7.12669e-12 222858)
(-3.20603e+07 -1.90647e+06 -2.202e-12 -12252.1 -7.58961e-12 -7.95786e+06)
(-2.00694e+07 -157082 -9.27377e-12 -115732 1.92154e-11 -5.00834e+06)
(2.04005e+07 -53466.4 -3.54956e-12 429398 3.55438e-11 5.16832e+06)
(8.75916e+07 -9.49643e+06 -4.01094e-14 7.16698e+06 1.54049e-12 2.35115e+07)
(-8.75875e+07 -9.493e+06 2.18128e-12 -7.16485e+06 1.16645e-12 -2.351e+07)
(3.52783e+06 -2.10784e+06 1.40073e-11 -154149 -2.56919e-13 837079)
(9.79304e+07 -9.71165e+06 -1.34212e-12 5.43499e+06 2.15191e-14 2.5647e+07)
(-9.7926e+07 -9.70935e+06 9.60318e-13 -5.43386e+06 -1.23793e-12 -2.56457e+07)
(5.41564e+07 -2.31831e+06 -5.18323e-12 456701 -1.6971e-12 1.35506e+07)
(3.81762e+07 -1.90974e+06 2.88984e-11 406418 -8.94699e-12 9.57313e+06)
(2.33279e+07 -3.69385e+06 -1.30888e-11 -177979 -4.40948e-12 5.74397e+06)
(9.82526e+07 -1.01649e+07 -1.01226e-13 6.43277e+06 1.65577e-12 2.59746e+07)
(-9.82485e+07 -1.01626e+07 1.04991e-12 -6.43154e+06 3.93205e-13 -2.59732e+07)
(5.43037e+07 -379742 -4.95402e-12 6.73805e+06 5.26953e-12 1.51457e+07)
(-5.43033e+07 -378023 7.57608e-13 -6.73557e+06 2.23487e-12 -1.5145e+07)
(1.00387e+08 -903595 2.22415e-12 173136 2.90462e-12 2.49509e+07)
(-1.00385e+08 -903477 5.38166e-12 -173076 4.59347e-12 -2.49504e+07)
(2.41249e+07 3.05392e+06 -3.62204e-13 -1.36805e+06 1.91124e-13 5.64644e+06)
(-3.96177e+07 543114 -1.59631e-12 -2.5874e+06 5.11081e-14 -1.04719e+07)
(-2.95577e+07 -1.24643e+06 2.51786e-12 -2.46807e+06 -7.53229e-13 -7.94624e+06)
(2.39945e+07 -2.08525e+06 -1.41336e-11 364177 -5.74066e-13 6.04388e+06)
(2.51415e+06 -1.46796e+06 8.3819e-12 32846 -1.49092e-12 631960)
(-8.124e+07 -3.08607e+07 -7.91344e-13 -1.32678e+07 -7.70576e-13 -2.34493e+07)
(8.1251e+07 -3.08643e+07 2.14543e-12 1.32692e+07 -2.37378e-12 2.34524e+07)
(1.16213e+08 -1.46443e+07 -3.90937e-12 2.45814e+06 3.24409e-12 2.94448e+07)
(-1.16208e+08 -1.46431e+07 1.81611e-12 -2.45781e+06 6.46891e-13 -2.94433e+07)
(2.43649e+07 -1.54071e+07 -5.66472e-14 1.23302e+07 2.45584e-13 9.10482e+06)
(-2.43617e+07 -1.54039e+07 3.34967e-13 -1.23275e+07 2.74073e-13 -9.10335e+06)
(8.9039e+07 -1.02595e+07 3.44325e-13 7.75081e+06 5.11955e-13 2.40155e+07)
(-8.90347e+07 -1.02558e+07 2.42931e-12 -7.74836e+06 2.91214e-12 -2.40138e+07)
(-1.80164e+07 -1.75692e+06 -1.11784e-12 -180281 9.2309e-12 -4.51496e+06)
(-2.11903e+06 -1.59162e+06 2.54254e-14 -1.26999e+06 6.2832e-14 -840886)
(2.1538e+06 -1.58538e+06 -1.24932e-14 1.16526e+06 3.41543e-14 823525)
(-1.68122e+07 -1.153e+06 1.47773e-13 -1.2626e+06 -1.50398e-13 -4.48472e+06)
(2.07153e+07 -2.58457e+06 -1.01428e-11 231258 -4.39397e-12 5.19726e+06)
(-1.05953e+08 72424.7 -7.87199e-12 -181356 -1.10641e-11 -2.63341e+07)
(1.05955e+08 72413.2 -2.05181e-13 181358 2.51812e-12 2.63345e+07)
(1.02037e+07 3.89466e+06 2.46163e-12 1.41175e+06 1.74088e-12 2.88203e+06)
(6.86562e+07 -2.95053e+06 2.55735e-12 2.14027e+06 -5.80558e-12 1.7566e+07)
(-6.86535e+07 -2.94965e+06 2.86362e-13 -2.13965e+06 -3.70231e-12 -1.75652e+07)
(-1.00884e+08 -1.68864e+07 -7.31525e-13 -7.35677e+06 -1.4337e-12 -2.68567e+07)
(1.00891e+08 -1.68901e+07 -5.63112e-12 7.35849e+06 3.61462e-12 2.68589e+07)
(-7.12647e+06 3.7707e+06 -2.50363e-12 -827638 -2.33888e-12 -1.97358e+06)
(1.0435e+08 -1.4886e+07 -2.39998e-12 6.06109e+06 2.50892e-12 2.73953e+07)
(-1.04344e+08 -1.48832e+07 -1.62458e-12 -6.05985e+06 -5.86494e-13 -2.73935e+07)
(-1.69024e+07 -553466 1.88277e-12 -924784 4.43906e-12 -4.4233e+06)
(-1.85392e+07 -2.15474e+06 -9.47368e-12 8053.2 -1.34831e-12 -4.59796e+06)
(4.99136e+07 240136 -3.3642e-12 6.20788e+06 3.68421e-12 1.39249e+07)
(4.44732e+07 -2.57555e+06 1.21341e-12 1.48672e+06 3.22766e-12 1.14036e+07)
(4.19426e+07 -2.42541e+07 2.2438e-13 1.72887e+07 4.28025e-13 1.46965e+07)
(-4.19375e+07 -2.42511e+07 -3.13655e-13 -1.72866e+07 -1.53281e-13 -1.46947e+07)
(5.2618e+07 -2.06173e+07 1.19578e-12 1.26584e+07 -1.22549e-12 1.61964e+07)
(-5.26148e+07 -2.06145e+07 -6.89492e-13 -1.26556e+07 -4.07073e-13 -1.61949e+07)
(-3.02173e+07 -3.17735e+06 3.00661e-12 -6201.03 -5.43955e-12 -7.49907e+06)
(-3.18282e+07 -849927 2.93985e-12 -2.33571e+06 -6.28193e-13 -8.47677e+06)
(-3.30708e+07 -644266 2.13364e-11 -369258 9.79357e-13 -8.29716e+06)
(3.30338e+07 -631082 -9.08961e-12 660242 8.67729e-12 8.36017e+06)
(3.13936e+07 -2.04156e+06 6.13334e-12 944044 -5.36163e-12 8.02362e+06)
(6.78383e+07 -3.04249e+06 6.35401e-12 2.15954e+06 -9.27942e-12 1.73679e+07)
(-6.78357e+07 -3.04161e+06 -2.78638e-12 -2.15899e+06 -2.54227e-12 -1.73671e+07)
(-6.15702e+07 -1.84683e+06 4.52734e-12 217025 4.14244e-12 -1.5223e+07)
(-2.55212e+07 -2.96894e+06 -1.01056e-11 -32463 -1.48746e-12 -6.34039e+06)
(-5.32445e+07 -1.43707e+06 9.67941e-12 -45304.1 3.58309e-12 -1.32223e+07)
(3.67058e+06 -3.33415e+06 1.03651e-11 427961 -1.14955e-11 1.01693e+06)
(-6.27833e+07 -2.17517e+07 -5.62742e-13 -1.17704e+07 -4.80743e-13 -1.84983e+07)
(6.27906e+07 -2.17521e+07 -5.93004e-13 1.17714e+07 4.39678e-13 1.85004e+07)
(-9.15931e+07 -1.51745e+07 -4.09053e-13 -7.26615e+06 -8.20909e-13 -2.4529e+07)
(9.16006e+07 -1.5179e+07 2.18605e-12 7.26833e+06 -2.3029e-12 2.45314e+07)
(-2.08617e+07 2.68663e+06 -3.48551e-13 -2.85659e+06 -1.70865e-12 -5.885e+06)
(2.16054e+06 2.90039e+06 -1.6921e-12 249570 3.15847e-12 597996)
(5.95531e+06 -4.06433e+06 1.47528e-12 174877 4.89316e-11 1.52102e+06)
(-1.18027e+08 -7.74437e+06 7.14031e-12 -1.92211e+06 6.16087e-12 -2.97618e+07)
(1.1803e+08 -7.74486e+06 2.42447e-13 1.92216e+06 4.60855e-13 2.97626e+07)
(-2.16818e+07 -3.12456e+06 -2.35412e-12 162079 4.22309e-11 -5.33947e+06)
(2.16199e+07 -2.84833e+06 0 318746 0 5.44343e+06)
(-3.37709e+07 -2.63277e+06 1.28652e-11 -526219 3.46464e-12 -8.50982e+06)
(2.73583e+06 -2.07916e+06 1.34665e-11 162848 -9.81506e-12 719221)
(-6.64717e+06 3.51981e+06 -3.34027e-12 -1.27001e+06 -1.75058e-12 -1.96441e+06)
(-2.21611e+07 -3.31124e+06 -2.46829e-12 148147 7.06685e-12 -5.46187e+06)
(1.07352e+07 4.84603e+06 3.92327e-13 1.87652e+06 1.56373e-13 3.12923e+06)
(-4.46398e+07 -2.58044e+06 1.04347e-12 -1.49942e+06 3.33439e-12 -1.14481e+07)
(-9.63052e+07 -1.5746e+07 -4.04329e-12 -6.45433e+06 -3.56186e-12 -2.54967e+07)
(9.63119e+07 -1.57497e+07 -2.60437e-12 6.45604e+06 2.78391e-12 2.54988e+07)
(-3.35327e+07 -2.15846e+06 -3.02594e-12 226613 -6.86359e-12 -8.26392e+06)
(-6.11245e+07 -2.15676e+06 -6.94945e-12 -266788 2.32979e-12 -1.52324e+07)
(-6.5076e+07 -1.72145e+06 1.96933e-12 -389271 -4.1392e-14 -1.62433e+07)
(-5.21359e+07 -384531 1.85753e-12 -6.99781e+06 2.29549e-12 -1.46723e+07)
(5.21324e+07 -382090 -1.26683e-12 7.00309e+06 3.06463e-12 1.46727e+07)
(-5.59244e+07 -1.59914e+06 -6.72317e-12 -30536.4 1.37158e-11 -1.38836e+07)
(-1.99548e+07 -3.18861e+06 4.67746e-12 21062.5 -7.2635e-12 -4.94596e+06)
(-9.15726e+07 -1.65764e+07 -3.17622e-12 -8.27596e+06 -3.51993e-12 -2.47745e+07)
(9.15797e+07 -1.6581e+07 2.15448e-13 8.27787e+06 -1.00883e-12 2.47767e+07)
(-2.8006e+07 3.45087e+06 -8.59723e-13 -3.75074e+06 2.58531e-12 -7.8795e+06)
(4.71353e+06 -2.77269e+06 -2.39144e-12 18809.1 -1.18877e-11 1.17419e+06)
(1.16967e+08 -1.48628e+07 1.82316e-12 3.84018e+06 -1.25717e-12 2.99746e+07)
(-1.16961e+08 -1.48615e+07 3.04226e-12 -3.8399e+06 2.95862e-12 -2.99733e+07)
(-6.90735e+07 -594317 -1.20078e-11 -23176.2 8.08293e-14 -1.71443e+07)
(-8.85036e+07 -1.73117e+07 1.13171e-12 -8.08952e+06 9.43614e-13 -2.39667e+07)
(8.85125e+07 -1.73163e+07 6.8699e-13 8.09101e+06 -7.51206e-13 2.39693e+07)
(-3.72094e+07 930191 6.38623e-13 -2.71219e+06 2.91731e-13 -9.90535e+06)
(3.32197e+07 -2.66215e+06 5.30886e-12 885349 4.01674e-12 8.46214e+06)
(-3.94915e+07 3.83557e+06 1.21234e-12 -4.62449e+06 1.78156e-13 -1.09461e+07)
(9.76134e+07 -1.01352e+06 3.86886e-12 -13325.9 -7.59181e-13 2.42166e+07)
(-9.76117e+07 -1.01333e+06 7.48752e-12 13302.6 7.10969e-12 -2.42161e+07)
(-1.88541e+07 -1.4819e+07 0 -1.3078e+07 0 -7.92301e+06)
(1.88573e+07 -1.48218e+07 -7.67108e-13 1.30799e+07 2.34858e-13 7.92427e+06)
(-2.5023e+07 97604.3 2.87458e-12 -2.16679e+06 1.26027e-12 -6.74635e+06)
(-6.80761e+07 -1.91102e+06 -1.73681e-12 -150511 -3.51462e-12 -1.69284e+07)
(9.74031e+07 -384007 3.41398e-12 118229 -6.4253e-12 2.4197e+07)
(-9.74013e+07 -383813 4.1939e-12 -118257 5.31831e-12 -2.41966e+07)
(25590.4 -192477 0 113466 0 34502.7)
(-25422.8 -191550 1.33818e-15 -112959 1.43827e-15 -34335.3)
(2.11873e+07 9.89917e+06 -7.28103e-13 1.73127e+06 5.62125e-14 5.68656e+06)
(-2.66849e+07 -705778 2.83702e-12 -2.38463e+06 -7.26387e-13 -7.21275e+06)
(-1.12774e+07 -5.81459e+06 -3.29808e-13 -1.85601e+06 2.20089e-14 -3.25867e+06)
(1.12811e+07 -5.80993e+06 1.9387e-13 1.85336e+06 8.61031e-14 3.25893e+06)
(-3.28126e+07 3.02151e+06 -1.7435e-12 -4.25216e+06 -2.14429e-12 -9.19652e+06)
(2.5284e+06 3.66275e+06 1.82265e-12 532060 -4.04019e-13 759363)
(6.97789e+06 -3.76003e+06 3.47569e-12 44291.2 3.22438e-12 1.74235e+06)
(-1.04068e+08 -3.25744e+06 2.70114e-12 -725834 1.89431e-12 -2.60016e+07)
(1.04071e+08 -3.25775e+06 3.71693e-12 725870 -5.63917e-12 2.60022e+07)
(-1.81429e+07 -1.52037e+06 1.17759e-11 -80030.5 -5.62906e-12 -4.52149e+06)
(-8.17254e+07 -2.9987e+07 1.03795e-12 -1.17997e+07 1.22564e-12 -2.32055e+07)
(8.17361e+07 -2.99904e+07 1.01616e-13 1.18006e+07 -8.32897e-14 2.32084e+07)
(-3.1396e+07 -1.48398e+06 -3.14152e-12 -46435.2 -1.43967e-11 -7.80151e+06)
(9.16921e+07 -4.48894e+06 -2.18789e-12 2.46092e+06 -1.82203e-12 2.33613e+07)
(-9.16894e+07 -4.48821e+06 4.85997e-12 -2.46061e+06 4.0466e-12 -2.33605e+07)
(7.54245e+07 -5.02693e+06 -7.28657e-13 7.30769e+06 -2.70749e-12 2.05275e+07)
(-7.5422e+07 -5.02392e+06 -2.81303e-12 -7.30487e+06 -3.17621e-12 -2.05262e+07)
(1.94191e+06 -2.91463e+06 2.67133e-14 4.78494e+06 -1.44297e-13 1.66907e+06)
(-1.94209e+06 -2.91623e+06 1.83622e-13 -4.78895e+06 1.35158e-13 -1.67011e+06)
(4.92522e+06 -2.87916e+06 -8.84924e-12 -448493 -1.62834e-11 1.11077e+06)
(9.44182e+07 -3.53255e+06 -1.47814e-12 2.04017e+06 -5.53181e-12 2.39333e+07)
(-9.44156e+07 -3.53191e+06 -2.48191e-12 -2.03995e+06 -9.8806e-13 -2.39326e+07)
(-6.28206e+07 -1.6648e+06 -3.3161e-12 -86551.5 -2.64098e-12 -1.56085e+07)
(9.15855e+07 -2.54109e+06 4.12665e-12 670487 4.15144e-12 2.28906e+07)
(-9.15833e+07 -2.54079e+06 -1.75785e-12 -670385 3.56226e-12 -2.289e+07)
(1.0103e+08 -210935 6.50363e-12 116912 -1.21159e-11 2.50965e+07)
(3.78477e+07 -2.09005e+06 2.99546e-13 312219 -4.76209e-12 9.46825e+06)
(-1.13501e+08 -1.74889e+07 5.09038e-12 -4.55145e+06 5.08994e-12 -2.92911e+07)
(1.13507e+08 -1.74907e+07 -5.09063e-12 4.55181e+06 5.09023e-12 2.92927e+07)
(4.02795e+07 3.27472e+06 3.29453e-12 5.41906e+06 -1.3759e-12 1.13387e+07)
(6.49383e+07 -2.06534e+06 -3.65397e-13 87874.2 2.20704e-12 1.61343e+07)
(6.4268e+07 -2.13997e+06 -1.19819e-11 169589 1.0187e-11 1.59883e+07)
(-5.11268e+07 -2.65031e+06 -1.11074e-12 -651945 1.75571e-12 -1.28474e+07)
(2.36311e+07 8.6787e+06 1.29367e-12 1.49274e+06 -4.8221e-13 6.23373e+06)
(298918 -3.97385e+06 1.11947e-11 534315 -1.22388e-11 206742)
(-3.50236e+07 5.46221e+06 1.03574e-12 -4.62812e+06 -6.57812e-13 -9.8384e+06)
(5.35792e+07 -825694 -7.96976e-13 -89257 9.52441e-12 1.32719e+07)
(-5.00428e+07 -2.11553e+06 7.69157e-13 -515925 -3.34845e-12 -1.25447e+07)
(-1.08459e+08 -7.70131e+06 -3.12418e-12 -4.0058e+06 -2.41786e-12 -2.79047e+07)
(1.08463e+08 -7.7025e+06 4.75191e-12 4.00631e+06 -5.07559e-12 2.79058e+07)
(-2.33029e+07 -3.01075e+06 -7.91243e-12 140838 3.80085e-13 -5.74697e+06)
(-1.73115e+07 8.15342e+06 -1.24635e-12 -2.55166e+06 3.05093e-13 -4.92845e+06)
(-6.85079e+07 -336359 3.17911e-12 3448.87 1.14087e-12 -1.69973e+07)
(-6.9282e+07 -1.13388e+06 -8.04062e-12 -164901 -3.00146e-12 -1.72312e+07)
(8.3321e+07 -1.54428e+06 0 12389.5 0 2.06767e+07)
(-6.34699e+07 -580239 -6.76965e-12 -165261 -4.54787e-12 -1.57892e+07)
(5.50828e+07 -2.84121e+06 -6.67372e-12 2.20339e+06 -3.47968e-13 1.42139e+07)
(-5.50797e+07 -2.84145e+06 2.52332e-12 -2.20168e+06 -2.26077e-12 -1.42127e+07)
(2.17097e+07 4.05839e+06 8.29818e-13 -1.81218e+06 -3.69665e-13 4.93698e+06)
(3.71104e+06 6.48797e+06 -2.15611e-12 853746 1.02026e-12 1.13262e+06)
(5.86308e+07 556456 -1.00394e-11 452615 6.55164e-12 1.46598e+07)
(9.41378e+07 -1.83074e+06 3.11066e-12 652126 -4.11461e-13 2.35193e+07)
(-9.41355e+07 -1.83043e+06 -6.00064e-12 -651989 -4.91841e-12 -2.35187e+07)
(1.03464e+08 -1.46624e+07 -5.74202e-12 5.36847e+06 6.75196e-12 2.70036e+07)
(-1.03459e+08 -1.46599e+07 -2.84141e-13 -5.36743e+06 -1.55379e-12 -2.70019e+07)
(7.82343e+06 -1.73774e+06 -1.09418e-12 241417 3.86905e-12 2.00105e+06)
(-1.48955e+07 8.80329e+06 -4.89456e-12 -1.6604e+06 -7.49219e-13 -4.10785e+06)
(8.04049e+07 -2.70674e+07 -2.01515e-13 1.24312e+07 1.7262e-13 2.30345e+07)
(-8.0394e+07 -2.70648e+07 1.39825e-13 -1.24308e+07 -2.10999e-13 -2.30317e+07)
(4.07149e+07 -1.15239e+06 2.29857e-11 697558 -1.18222e-12 1.02753e+07)
(-2.35585e+07 -1.82907e+06 8.63857e-12 -1.03056e+06 3.35354e-12 -6.10105e+06)
(-4.40915e+07 -1.63072e+06 1.15492e-12 66639.7 3.58297e-12 -1.09235e+07)
(1.03699e+07 -1.87993e+06 -5.99542e-12 184987 1.61544e-12 2.61888e+06)
(6.06837e+06 -2.62383e+06 -2.23177e-12 -113329 -1.04191e-11 1.47757e+06)
(-6.36033e+07 -2.10024e+07 -5.26987e-14 -1.09844e+07 -1.52406e-13 -1.85067e+07)
(6.36107e+07 -2.10027e+07 -3.32066e-14 1.09851e+07 1.18029e-13 1.85087e+07)
(-5.50103e+07 -2.05122e+06 -7.24678e-12 -1.51272e+06 -7.19853e-12 -1.40245e+07)
(5.50154e+07 -2.05214e+06 1.19451e-12 1.50995e+06 -9.09786e-12 1.40251e+07)
(4.64864e+07 -2.69919e+06 -2.26701e-11 -291049 -3.91624e-12 1.1462e+07)
(-5.71589e+07 -2.18516e+06 2.33342e-12 -12632.7 4.93781e-12 -1.41854e+07)
(1.14613e+07 -3.26449e+06 3.08216e-11 -164933 -2.73814e-11 2.80286e+06)
(-1.12081e+07 -3.13114e+06 -4.64613e-12 31208.3 -7.53706e-13 -2.77321e+06)
(-23252.4 -74198.5 -2.07333e-14 -854892 -2.29259e-14 -217885)
(22699.4 -73540.5 -2.20425e-14 858589 2.23423e-14 218666)
(-2.36893e+07 -2.37672e+06 -6.16429e-12 -70762 -4.72293e-12 -5.89536e+06)
(-2.9517e+07 -2.03058e+06 1.46814e-11 -179559 1.08121e-11 -7.36832e+06)
(1.35772e+07 1.16853e+07 -3.06441e-12 459783 1.3883e-13 3.48286e+06)
(4.68554e+07 -4.55492e+06 -2.65594e-14 4.9567e+06 -2.43852e-13 1.28556e+07)
(2.58837e+06 -1.53878e+06 -8.90817e-12 -331641 -9.18017e-12 559940)
(-2.2757e+07 -3.03943e+06 3.96582e-12 -200779 -5.13925e-13 -5.69628e+06)
(-8.96876e+07 -5.37659e+06 -6.26389e-13 -4.208e+06 -4.22352e-12 -2.32974e+07)
(8.96905e+07 -5.37762e+06 2.81105e-12 4.20855e+06 -1.50017e-12 2.32983e+07)
(-1.04144e+08 -1.13869e+06 0 19853.4 0 -2.58353e+07)
(1.04146e+08 -1.13874e+06 -1.56842e-12 -19855.7 3.36332e-12 2.58358e+07)
(-5.06017e+07 -2.19664e+06 -5.27856e-12 89268.7 6.88578e-12 -1.25332e+07)
(6.73604e+07 -2.13485e+06 2.98984e-12 104129 1.24809e-12 1.67393e+07)
(-9.75171e+07 -1.00028e+06 3.14004e-12 88198.1 -3.44329e-13 -2.41741e+07)
(9.75189e+07 -1.00033e+06 0 -88166 0 2.41745e+07)
(1.50885e+06 -1.71753e+06 -1.27583e-13 2.38176e+06 4.56376e-14 965340)
(8.7123e+06 1.10893e+07 -1.3203e-12 618897 -1.55781e-15 2.31526e+06)
(-8.99456e+07 -1.30123e+07 9.73801e-13 -7.1459e+06 3.1483e-13 -2.40904e+07)
(8.9951e+07 -1.30164e+07 0 7.14805e+06 0 2.40922e+07)
(-1.36485e+07 -368956 -2.00698e-13 2.7051e+06 2.28552e-14 -2.71528e+06)
(1.53937e+07 -7.40104e+06 3.68589e-14 2.75966e+06 -2.6249e-14 4.50422e+06)
(-1.53869e+07 -7.39801e+06 -1.4729e-14 -2.7676e+06 1.65597e-13 -4.50449e+06)
(3.30957e+07 2.59316e+06 -5.04462e-12 4.88114e+06 2.30923e-12 9.42282e+06)
(3.39045e+07 -2.68333e+06 -1.00985e-11 317152 -6.9938e-13 8.49109e+06)
(-6.56035e+06 -3.91191e+06 -4.04251e-12 424548 -1.1004e-11 -1.52242e+06)
(-205620 -1.96072e+06 2.73435e-11 586824 8.65093e-12 94584.5)
(-922.761 24054.8 5.08584e-14 499609 -6.60137e-14 123734)
(934.916 23047.3 -5.08104e-14 -497924 -6.58399e-14 -123313)
(947995 -2.54507e+06 1.74069e-13 6.75143e+06 1.77417e-13 1.91038e+06)
(-948665 -2.54695e+06 4.19609e-13 -6.75693e+06 2.01521e-13 -1.91191e+06)
(4.56871e+07 -2.6143e+06 4.94212e-12 177125 -2.34939e-12 1.13798e+07)
(-5.10323e+07 -2.41824e+06 -1.92443e-12 -3.81683e+06 -6.81383e-12 -1.36092e+07)
(5.10357e+07 -2.41989e+06 5.59682e-13 3.81686e+06 9.06584e-14 1.361e+07)
(1.43767e+06 276835 -5.49485e-12 146240 -4.5691e-12 393001)
(3.31198e+07 -2.95019e+06 2.16365e-12 144877 -5.04073e-12 8.25365e+06)
(1.97283e+06 -2.46861e+06 -5.59939e-14 2.91186e+06 -2.93052e-14 1.21199e+06)
(-1.97486e+06 -2.47896e+06 -8.7642e-14 -2.91907e+06 -7.58056e-14 -1.21428e+06)
(-4.13624e+07 2.47209e+06 1.06137e-12 -6.25005e+06 -2.09345e-12 -1.18136e+07)
(-2.78103e+07 6.00416e+06 1.1223e-12 134754 7.5662e-13 -6.86688e+06)
(-2.21829e+07 1.50733e+06 -7.36352e-13 2.60433e+06 -4.44229e-13 -4.85785e+06)
(3.4406e+07 -3.07642e+06 -9.54371e-13 -51888.3 1.47261e-12 8.52396e+06)
(-7.93382e+07 -414791 5.96295e-12 -115668 -7.45231e-13 -1.97141e+07)
(1.05709e+07 -2.47383e+06 -1.60181e-12 20151.6 -7.63793e-12 2.62785e+06)
(4.63317e+07 1.77527e+06 -4.04338e-12 5.41418e+06 3.87313e-12 1.28392e+07)
(-5.56012e+07 -3.54086e+06 5.86101e-13 -6.20481e+06 8.39036e-13 -1.53353e+07)
(-1.95383e+07 6.02027e+06 -1.32523e-13 -2.70811e+06 5.05891e-13 -5.51979e+06)
(5.55933e+07 -3.45398e+06 -2.72222e-12 6.10471e+06 2.01241e-12 1.53085e+07)
(-9.03637e+07 -888264 -7.39685e-12 485415 -1.82432e-13 -2.23006e+07)
(9.11565e+06 -2.18696e+06 -3.3721e-13 731832 1.84632e-13 2.44336e+06)
(3.86144e+07 -1.76041e+06 -1.00374e-11 247820 -3.23641e-12 9.6425e+06)
(-3.30583e+07 -2.29915e+07 -5.68995e-13 -1.87338e+07 -1.76056e-13 -1.28507e+07)
(3.30624e+07 -2.29944e+07 -9.47772e-13 1.87365e+07 5.3945e-13 1.28524e+07)
(-1.79596e+07 -823171 7.64938e-13 -1.46967e+06 2.84438e-12 -4.82079e+06)
(1.15931e+07 1.04907e+07 -2.13995e-12 912156 8.62436e-14 3.10281e+06)
(8.53069e+07 -7.76068e+06 -1.25774e-13 6.89983e+06 7.32702e-13 2.28784e+07)
(-8.53036e+07 -7.75787e+06 -1.62704e-12 -6.89795e+06 -8.17645e-13 -2.28771e+07)
(-6.64642e+07 -683351 2.58562e-11 520488 1.87437e-12 -1.6362e+07)
(6.67722e+07 -661691 -1.4095e-11 -543044 2.07484e-11 1.64328e+07)
(66957.7 -180678 0 133820 0 49817.1)
(-66609.6 -179808 2.20573e-15 -133230 1.6822e-14 -49584.3)
(-3.60498e+07 5.15243e+06 -2.18418e-12 -4.05364e+06 -1.7858e-12 -9.95049e+06)
(1.9336e+07 -1.84747e+07 -6.01713e-13 1.81095e+07 2.58524e-13 9.29099e+06)
(-1.9333e+07 -1.84716e+07 1.28043e-12 -1.81063e+07 8.09544e-13 -9.28944e+06)
(-2.83774e+07 -1.15963e+06 -3.16881e-12 411012 1.58072e-11 -6.93902e+06)
(1.32746e+07 -1.54965e+06 3.04067e-12 357964 6.89395e-12 3.38252e+06)
(-5.13183e+07 -2.62944e+06 3.89399e-12 -408335 -6.71328e-12 -1.28344e+07)
(5.13414e+07 -2.6481e+06 -6.04116e-13 359185 7.81911e-12 1.2828e+07)
(9.71904e+07 -3.859e+06 4.42858e-13 1.88129e+06 -1.92754e-12 2.45817e+07)
(-9.71879e+07 -3.85841e+06 -2.71824e-12 -1.88106e+06 -1.09717e-12 -2.4581e+07)
(-36551.6 -6489.51 2.88783e-14 124736 -1.26271e-13 21880.2)
(36575.4 -6415.49 -2.14086e-14 -123681 -4.51136e-14 -21612.7)
(6.42151e+06 1.27965e+07 -7.92762e-13 -172591 -4.39628e-13 1.55048e+06)
(-1.13273e+08 -6.73661e+06 4.99563e-12 -3.1521e+06 1.30405e-12 -2.88875e+07)
(1.13277e+08 -6.73737e+06 -5.6058e-12 3.1524e+06 9.65688e-12 2.88884e+07)
(-5.93167e+06 -2.20326e+06 8.89359e-13 -64827.6 -4.13733e-12 -1.48785e+06)
(-4.44136e+07 -98807.2 1.57988e-12 -3.61289e+06 9.06543e-13 -1.19163e+07)
(-9.44639e+07 -582493 1.68742e-12 -206002 3.00476e-12 -2.34895e+07)
(9.44658e+07 -582648 -4.98823e-12 206011 7.51204e-12 2.349e+07)
(-9.96427e+07 -2.27475e+07 7.01209e-14 -8.15357e+06 -1.12043e-13 -2.67464e+07)
(9.96523e+07 -2.27515e+07 2.02439e-12 8.15503e+06 -1.35583e-12 2.67492e+07)
(1.91503e+07 -3.41704e+06 -9.51939e-12 -234267 2.18204e-11 4.69345e+06)
(-4.11697e+07 -2.83823e+06 4.29489e-12 207559 2.71255e-12 -1.01635e+07)
(-6.72416e+06 1.09155e+07 1.20624e-12 -686849 -5.32941e-13 -1.83882e+06)
(-2.86283e+07 -1.85772e+07 -5.61483e-13 -1.41433e+07 -3.35793e-13 -1.06125e+07)
(2.86317e+07 -1.858e+07 5.61623e-13 1.41465e+07 -3.35708e-13 1.06141e+07)
(-1.12062e+08 -6.14951e+06 -3.6716e-12 -1.92892e+06 -2.90484e-12 -2.82834e+07)
(1.12065e+08 -6.15001e+06 -2.32169e-12 1.92901e+06 6.33671e-13 2.82842e+07)
(-1.87728e+07 9.61387e+06 -1.90613e-12 -1.01063e+06 -3.50221e-13 -4.90868e+06)
(-6.31885e+07 -2.33797e+06 0 -476518 0 -1.57966e+07)
(-2.32156e+07 1.76099e+06 -1.77283e-13 1.4638e+06 -1.18243e-13 -5.39705e+06)
(-6.41852e+07 -1.84825e+06 9.65197e-12 184018 -3.81041e-12 -1.588e+07)
(-6.38274e+07 -1.91704e+06 -6.16322e-12 -426881 -8.80389e-12 -1.59428e+07)
(-3.81244e+07 1.53392e+06 -2.34027e-12 -5.44959e+06 -1.55225e-12 -1.08116e+07)
(-4.19071e+07 -590718 7.26089e-12 -85792.4 -5.57099e-12 -1.04193e+07)
(4.19775e+07 -815127 4.07193e-12 4.42228e+06 -2.86305e-12 1.15127e+07)
(3.20306e+07 -1.95764e+06 4.42108e-12 72993.5 -5.43688e-12 7.96556e+06)
(-4.19716e+07 -816417 3.06725e-12 -4.42439e+06 1.35049e-12 -1.15118e+07)
(1.10082e+08 -1.38118e+07 3.37628e-12 5.27181e+06 -2.09968e-12 2.86217e+07)
(-1.10077e+08 -1.38097e+07 1.53097e-12 -5.27098e+06 6.21275e-13 -2.86201e+07)
(-3.37386e+07 5.11031e+06 -3.90437e-13 -4.77757e+06 1.66227e-12 -9.55665e+06)
(1.31827e+07 2.7805e+06 -1.68884e-12 2.09873e+06 1.25624e-12 3.79162e+06)
(1.82467e+07 -2.06022e+06 -1.32786e-12 141802 2.2597e-11 4.56256e+06)
(-6.54988e+07 -2.45276e+06 6.06083e-12 46407.7 -3.40909e-12 -1.62401e+07)
(-5.26592e+07 -740622 -1.49607e-12 -6.54637e+06 -8.41773e-13 -1.46901e+07)
(-3.68828e+06 4.21463e+06 1.46854e-13 1.21499e+06 -9.84165e-14 -613672)
(-3.30991e+07 6.44615e+06 -1.80125e-12 -3.90836e+06 -4.15249e-13 -9.18231e+06)
(1.23824e+07 -2.61722e+06 2.60561e-11 52420.6 -2.31786e-11 3.08532e+06)
(4.45298e+07 -127841 6.952e-13 3.78391e+06 -1.32805e-12 1.19876e+07)
(4.63069e+06 -3.85277e+06 -6.90588e-12 153775 -2.10377e-11 1.18712e+06)
(2.00362e+06 1.17989e+07 -7.1506e-13 118069 5.46981e-13 526434)
(-9.74665e+06 -3.38933e+06 1.23593e-12 88497.1 -1.25821e-11 -2.39638e+06)
(4.0816e+07 -1.84262e+06 6.48518e-13 429609 3.95827e-12 1.02339e+07)
(2.21709e+07 -1.72465e+06 -1.56268e-11 448359 -2.86643e-13 5.61229e+06)
(-9.31337e+07 -689062 -9.82687e-12 -30466.7 -1.30364e-11 -2.31159e+07)
(-4.3831e+07 -1.69325e+06 0 -380360 0 -1.09697e+07)
(7.4812e+07 -5.57212e+06 8.03732e-13 7.72529e+06 -1.74802e-12 2.04792e+07)