/*--------------------------------*- C++ -*----------------------------------*\
| =========                 |                                                 |
| \\      /  F ield         | OpenFOAM: The Open Source CFD Toolbox           |
|  \\    /   O peration     | Version:  v3.0+                                 |
|   \\  /    A nd           | Web:      www.OpenFOAM.com                      |
|    \\/     M anipulation  |                                                 |
\*---------------------------------------------------------------------------*/
FoamFile
{
    version     2.0;
    format      ascii;
    class       volScalarField;
    location    "10000";
    object      sigmazz;
}
// * * * * * * * * * * * * * * * * * * * * * * * * * * * * * * * * * * * * * //

dimensions      [1 -1 -2 0 0 0 0];

internalField   nonuniform List<scalar> 
27023
(
-8.84774e+06
8.84912e+06
6.29025e+06
-6.28965e+06
-8.66038e+06
8.66169e+06
2.81847e+07
-2.8183e+07
3.37815e+06
-3.37826e+06
2.15604e+07
-2.15581e+07
791472
-796372
-7.957e+06
664629
546565
-1.69694e+07
1.69702e+07
1.27368e+07
-1.27353e+07
2.78239e+07
-2.78222e+07
1.54268e+07
-1.54255e+07
2.34604e+06
-1.08142e+07
1.00148e+06
-1.08103e+07
9.20877e+06
4.70443e+06
1.27449e+07
-1.27442e+07
-1.24146e+07
-7.89689e+06
9.66253e+06
1.20505e+07
-1.20497e+07
3.18396e+06
-3.18452e+06
-6.47062e+06
6.47135e+06
-6.3155e+06
-8.3587e+06
8.36007e+06
1.67265e+07
-1.67258e+07
1.42867e+07
-1.42854e+07
8.48764e+06
1.37515e+07
-1.37503e+07
-1.21036e+07
143745
-143025
1.36649e+07
5.76549e+06
1.01175e+07
-4.60776e+06
6.45234e+06
-6.45171e+06
8.41324e+06
1.36159e+06
1.4584e+06
-6.10732e+06
4.22879e+06
1.12003e+07
2.87445e+06
-1.0738e+07
-5.89814e+06
1.16276e+07
-1.16267e+07
2.02655e+07
-2.02643e+07
2.473e+07
-2.47295e+07
293499
-292841
-2.95177e+07
2.95186e+07
-8.19072e+06
2.07929e+07
-2.07906e+07
1.98846e+07
-1.98834e+07
-2.62168e+07
2.62172e+07
-1.11559e+07
1.0892e+06
-4.86471e+06
4.72592e+06
9.41227e+06
-9.41086e+06
5.99519e+06
-2.31836e+06
-1.53513e+07
1.53507e+07
-8.20803e+06
-4.91783e+06
222858
-7.95786e+06
-5.00834e+06
5.16832e+06
2.35115e+07
-2.351e+07
837079
2.5647e+07
-2.56457e+07
1.35506e+07
9.57313e+06
5.74397e+06
2.59746e+07
-2.59732e+07
1.51457e+07
-1.5145e+07
2.49509e+07
-2.49504e+07
5.64644e+06
-1.04719e+07
-7.94624e+06
6.04388e+06
631960
-2.34493e+07
2.34524e+07
2.94448e+07
-2.94433e+07
9.10482e+06
-9.10335e+06
2.40155e+07
-2.40138e+07
-4.51496e+06
-840886
823525
-4.48472e+06
5.19726e+06
-2.63341e+07
2.63345e+07
2.88203e+06
1.7566e+07
-1.75652e+07
-2.68567e+07
2.68589e+07
-1.97358e+06
2.73953e+07
-2.73935e+07
-4.4233e+06
-4.59796e+06
1.39249e+07
1.14036e+07
1.46965e+07
-1.46947e+07
1.61964e+07
-1.61949e+07
-7.49907e+06
-8.47677e+06
-8.29716e+06
8.36017e+06
8.02362e+06
1.73679e+07
-1.73671e+07
-1.5223e+07
-6.34039e+06
-1.32223e+07
1.01693e+06
-1.84983e+07
1.85004e+07
-2.4529e+07
2.45314e+07
-5.885e+06
597996
1.52102e+06
-2.97618e+07
2.97626e+07
-5.33947e+06
5.44343e+06
-8.50982e+06
719221
-1.96441e+06
-5.46187e+06
3.12923e+06
-1.14481e+07
-2.54967e+07
2.54988e+07
-8.26392e+06
-1.52324e+07
-1.62433e+07
-1.46723e+07
1.46727e+07
-1.38836e+07
-4.94596e+06
-2.47745e+07
2.47767e+07
-7.8795e+06
1.17419e+06
2.99746e+07
-2.99733e+07
-1.71443e+07
-2.39667e+07
2.39693e+07
-9.90535e+06
8.46214e+06
-1.09461e+07
2.42166e+07
-2.42161e+07
-7.92301e+06
7.92427e+06
-6.74635e+06
-1.69284e+07
2.4197e+07
-2.41966e+07
34502.7
-34335.3
5.68656e+06
-7.21275e+06
-3.25867e+06
3.25893e+06
-9.19652e+06
759363
1.74235e+06
-2.60016e+07
2.60022e+07
-4.52149e+06
-2.32055e+07
2.32084e+07
-7.80151e+06
2.33613e+07
-2.33605e+07
2.05275e+07
-2.05262e+07
1.66907e+06
-1.67011e+06
1.11077e+06
2.39333e+07
-2.39326e+07
-1.56085e+07
2.28906e+07
-2.289e+07
2.50965e+07
9.46825e+06
-2.92911e+07
2.92927e+07
1.13387e+07
1.61343e+07
1.59883e+07
-1.28474e+07
6.23373e+06
206742
-9.8384e+06
1.32719e+07
-1.25447e+07
-2.79047e+07
2.79058e+07
-5.74697e+06
-4.92845e+06
-1.69973e+07
-1.72312e+07
2.06767e+07
-1.57892e+07
1.42139e+07
-1.42127e+07
4.93698e+06
1.13262e+06
1.46598e+07
2.35193e+07
-2.35187e+07
2.70036e+07
-2.70019e+07
2.00105e+06
-4.10785e+06
2.30345e+07
-2.30317e+07
1.02753e+07
-6.10105e+06
-1.09235e+07
2.61888e+06
1.47757e+06
-1.85067e+07
1.85087e+07
-1.40245e+07
1.40251e+07
1.1462e+07
-1.41854e+07
2.80286e+06
-2.77321e+06
-217885
218666
-5.89536e+06
-7.36832e+06
3.48286e+06
1.28556e+07
559940
-5.69628e+06
-2.32974e+07
2.32983e+07
-2.58353e+07
2.58358e+07
-1.25332e+07
1.67393e+07
-2.41741e+07
2.41745e+07
965340
2.31526e+06
-2.40904e+07
2.40922e+07
-2.71528e+06
4.50422e+06
-4.50449e+06
9.42282e+06
8.49109e+06
-1.52242e+06
94584.5
123734
-123313
1.91038e+06
-1.91191e+06
1.13798e+07
-1.36092e+07
1.361e+07
393001
8.25365e+06
1.21199e+06
-1.21428e+06
-1.18136e+07
-6.86688e+06
-4.85785e+06
8.52396e+06
-1.97141e+07
2.62785e+06
1.28392e+07
-1.53353e+07
-5.51979e+06
1.53085e+07
-2.23006e+07
2.44336e+06
9.6425e+06
-1.28507e+07
1.28524e+07
-4.82079e+06
3.10281e+06
2.28784e+07
-2.28771e+07
-1.6362e+07
1.64328e+07
49817.1
-49584.3
-9.95049e+06
9.29099e+06
-9.28944e+06
-6.93902e+06
3.38252e+06
-1.28344e+07
1.2828e+07
2.45817e+07
-2.4581e+07
21880.2
-21612.7
1.55048e+06
-2.88875e+07
2.88884e+07
-1.48785e+06
-1.19163e+07
-2.34895e+07
2.349e+07
-2.67464e+07
2.67492e+07
4.69345e+06
-1.01635e+07
-1.83882e+06
-1.06125e+07
1.06141e+07
-2.82834e+07
2.82842e+07
-4.90868e+06
-1.57966e+07
-5.39705e+06
-1.588e+07
-1.59428e+07
-1.08116e+07
-1.04193e+07
1.15127e+07
7.96556e+06
-1.15118e+07
2.86217e+07
-2.86201e+07
-9.55665e+06
3.79162e+06
4.56256e+06
-1.62401e+07
-1.46901e+07
-613672
-9.18231e+06
3.08532e+06
1.19876e+07
1.18712e+06
526434
-2.39638e+06
1.02339e+07
5.61229e+06
-2.31159e+07
-1.09697e+07
2.04792e+07
-2.04778e+07
7.45156e+06
-7.83978e+06
3.1387e+06
-1.06687e+07
1.06703e+07
232614
5.62302e+06
-1.41027e+07
762221
1.40842e+07
246875
-245909
-4.84949e+06
1.34585e+07
1.10579e+07
1.66196e+07
8.83387e+06
-1.18164e+07
5.79202e+06
-1.46135e+07
3.3977e+06
1.98867e+06
1.24845e+06
-2.19756e+07
-2.35861e+07
2.35866e+07
-2.05652e+07
1.92869e+06
1.554e+07
-9.1918e+06
2.28027e+07
-2.28022e+07
-1.78242e+07
1.78253e+07
1.63784e+07
1.00793e+06
4.33946e+06
-4.34004e+06
-2.06799e+07
2.06743e+07
1.53532e+07
-1.53523e+07
-72611.7
72924.8
-5.77021e+06
-3.6202e+06
-1.31768e+07
-1.2738e+06
-3.24658e+06
-2.4777e+07
2.47798e+07
-2.40096e+07
2.40125e+07
1.46147e+07
-1.46136e+07
1.59641e+07
-1.59624e+07
-3.63818e+06
209585
-3.31539e+06
-1.26534e+07
6.65767e+06
1.54585e+07
-5.30461e+06
-2.89184e+07
2.89202e+07
-1.38798e+07
7.07242e+06
3.59272e+06
1.85275e+07
1.59861e+07
-1.22664e+07
-4.25213e+06
2.37131e+07
-2.37121e+07
-6.2898e+06
6.36308e+06
5.79754e+06
-5.79712e+06
2.36778e+07
-2.36771e+07
621017
3.88552e+06
-4.31976e+06
4.48175e+06
2.24165e+07
2.24828e+06
-2.16686e+07
2.16709e+07
-9.07788e+06
1.22805e+07
750334
-1.36701e+07
1.36709e+07
1.07138e+07
-1.07123e+07
9.1978e+06
-1.93748e+07
-1.12607e+07
-9.1608e+06
9.16238e+06
-1.24079e+07
-2.24738e+06
1.24503e+07
-1.24492e+07
-1.0788e+07
2.76873e+07
-2.76839e+07
2.15921e+07
-2.15897e+07
-1.44693e+07
-2.11741e+07
2.11764e+07
-6.55001e+06
-9.2834e+06
2.15718e+07
-2.15712e+07
-1.66121e+07
-2.36928e+07
2.36933e+07
1.36516e+07
-2.29323e+07
2.29333e+07
-1.40459e+07
1.40473e+07
-3.50907e+06
1.84099e+07
-1.84082e+07
-1.11906e+07
-2.22952e+06
-2.8006e+06
-4.05144e+06
1.77689e+07
-1.77674e+07
-2.75722e+07
2.75731e+07
-1.0082e+07
-1.68991e+07
1.08106e+07
1.02301e+06
-1.29634e+07
-1.19426e+07
5.73331e+06
-4.37794e+06
4.37744e+06
-1.96221e+07
-2.60478e+07
2.60483e+07
1.0015e+07
1.01726e+06
-2.33025e+07
2.33039e+07
-1.188e+07
-1.33727e+07
1.33725e+07
195951
1.33768e+06
-3.86505e+06
-1.02764e+07
-8.60819e+06
1.23853e+07
-1.2384e+07
-1.19428e+07
-252127
1.95666e+07
-1.95658e+07
4.41153e+06
-1.24711e+07
1.24724e+07
-3.58322e+06
1.21223e+07
-1.21206e+07
-2.33445e+07
2.33468e+07
-1.3708e+07
1.37097e+07
1.32072e+07
-1.01492e+07
1.01223e+07
1.3144e+07
-1.49145e+07
1.49162e+07
-9.24061e+06
4.90496e+06
-5.65351e+06
-1.38668e+07
1.00055e+06
-2.5247e+06
-5.04239e+06
-2.20035e+07
1.45461e+07
-1.45442e+07
1.01554e+07
1.47655e+07
-1.47641e+07
-9.56836e+06
-1.95374e+07
1.95386e+07
-3.59606e+06
-915743
-1.26908e+07
1.26915e+07
2.24148e+07
-2.24142e+07
1.70521e+07
7.1575e+06
1.1565e+07
1.9862e+07
-1.9861e+07
2.55387e+07
-2.55381e+07
7.98617e+06
-6.36555e+06
3.2888e+06
-3.34889e+06
1.00314e+07
-1.00296e+07
-1.0414e+07
-58596.4
-131040
131670
58882.8
-6.41191e+06
713343
-714071
-1.41728e+07
1.41744e+07
-8.63757e+06
8.63904e+06
1.2053e+07
-1.20514e+07
1.95448e+06
1.78828e+07
-1.78816e+07
-1.31693e+07
-6.24736e+06
-1.70647e+07
1.70659e+07
-7.9054e+06
1.90277e+07
-1.90267e+07
-1.02518e+07
-8.13332e+06
1.60584e+07
-1.31204e+07
1.3122e+07
1.57791e+07
1.16181e+06
-49059
-7.48385e+06
-2.34891e+07
2.34902e+07
-1.98206e+06
1.40149e+07
-2.8857e+07
2.88579e+07
-67470.9
67749.8
1.43645e+07
-1.43643e+07
1.24377e+07
-1.91668e+06
2.81507e+07
-2.81502e+07
-9.4081e+06
-1.40861e+07
2.01571e+06
5.36454e+06
1.17998e+07
9.4754e+06
5.08646e+06
-977691
-4.11655e+06
-1.53349e+07
1.05757e+07
1.45443e+07
-1.39302e+07
-7.20948e+06
-5.70224e+06
173085
-172783
1.94827e+07
-1.94816e+07
1.13595e+07
-982058
-6.21244e+06
-2.21732e+06
1.27365e+07
1.35598e+07
-1.42036e+07
-1.42993e+06
8.97394e+06
-9.70144e+06
-3.7088e+06
8.01772e+06
-8.0165e+06
1.27584e+07
1.78811e+07
-1.701e+06
-8.91817e+06
2.36843e+07
-2.36834e+07
-2.44636e+07
2.4464e+07
133120
-132592
-1.16397e+06
-1.85048e+06
-7.26278e+06
-1.04357e+06
-1.32085e+07
1.32107e+07
7.80289e+06
3.4251e+06
-3.42614e+06
-2.61107e+07
2.61113e+07
-2.04447e+07
2.1453e+07
-2.14519e+07
-3.22567e+06
1.61304e+07
-1.01423e+07
-5.82926e+06
1.60137e+07
1.80581e+06
2.14347e+07
-2.14341e+07
8.56474e+06
-2.83341e+06
2.63519e+07
-2.6349e+07
-8.58989e+06
-2.29524e+07
-7.73547e+06
2.29537e+07
5.7996e+06
-5.77332e+06
1.16216e+07
8.71364e+06
-1.21382e+07
-480564
-1.21661e+07
-6.41061e+06
2.13079e+07
-4.23419e+06
8.45149e+06
-8.44921e+06
-2.43655e+07
2.4366e+07
6.15409e+06
1.81395e+06
-2.28378e+07
2.28388e+07
-1.33909e+07
1.09303e+07
8.88102e+06
4.50462e+06
9.94771e+06
9.63143e+06
-9.62985e+06
-3.55902e+06
1.36482e+07
-1.36467e+07
-2.4147e+07
2.41476e+07
323281
-9.21877e+06
-1.94169e+06
-2.12958e+07
2.0129e+07
-2.01269e+07
9.02131e+06
1.12663e+06
-6.40932e+06
-1.4431e+07
-5.87771e+06
-9.80472e+06
-3.79937e+06
-9.09442e+06
1.03057e+07
2.45374e+07
-2.45369e+07
2.20481e+07
-2.20456e+07
1.61094e+07
-1.58632e+07
-3.69822e+06
1.43721e+06
2.39497e+07
-2.39491e+07
-1.67275e+07
-1.5153e+07
439815
-6.1818e+06
1.98179e+06
1.55985e+06
-1.5595e+06
-6.73426e+06
-2.646e+06
2.73316e+07
-2.73296e+07
-820443
6.95544e+06
-1.1113e+06
2.92621e+07
-2.92614e+07
-9.61275e+06
9.61576e+06
-1.15225e+07
-7.44616e+06
7.44739e+06
-3.54796e+06
-1.65501e+06
810970
1.49677e+06
2.24117e+07
-2.24111e+07
-3.10657e+06
-1.33984e+07
1.33991e+07
2.4952e+07
-2.49515e+07
-9.54317e+06
9.52483e+06
1.61512e+07
-1.61495e+07
-2.64794e+07
2.64819e+07
3.09194e+06
-1.57833e+07
2.68445e+07
-2.68422e+07
-1.6502e+07
-1.39606e+06
1.53048e+07
-1.53033e+07
2.0046e+07
-2.00454e+07
-1.56802e+07
-2.35595e+07
2.35605e+07
-2.74069e+07
2.74074e+07
1.56787e+07
6.81873e+06
9.75976e+06
4.28432e+06
1.78092e+07
-1.78084e+07
-2.19357e+07
1.46246e+06
1.94764e+06
2.19361e+07
7.97614e+06
1.27678e+07
-9.78725e+06
1.35263e+07
-1.35254e+07
263044
3.7636e+06
-1.18159e+07
1.77229e+07
-1.77293e+07
6.82522e+06
-849219
213467
-212975
-9.94579e+06
-1.1471e+07
-8.21596e+06
2.69452e+07
-2.69434e+07
-1.64523e+07
-1.22439e+07
-1.60455e+07
7.49387e+06
1.58159e+07
-1.58141e+07
-1.56051e+07
6.75129e+06
1.64596e+07
-8.69949e+06
8.76372e+06
1.60469e+07
-1.44242e+07
1.53527e+07
-1.53511e+07
-2.18646e+07
2.18651e+07
1.41861e+07
-5.6429e+06
9.20323e+06
2.22267e+07
-2.22242e+07
-2.07548e+07
2.07557e+07
-11299.6
-7.4195e+06
1.79174e+07
-1.79167e+07
-1.01776e+07
2.99254e+06
-2.9931e+06
-8.12926e+06
-8.5808e+06
2.20647e+07
-1.32648e+07
-1.38155e+07
-1.66694e+07
9.2163e+06
-9.89052e+06
-3.1953e+06
2.52292e+07
-2.52287e+07
-1.48654e+06
468115
4.64654e+06
-9.82684e+06
-4.1404e+06
-2.45359e+06
-1.58495e+06
9.17842e+06
-7.21601e+06
782469
4.36337e+06
-9.81099e+06
8.02101e+06
-2.02012e+07
4.94113e+06
-5.21864e+06
-4.52533e+06
4.52491e+06
9.62872e+06
-3.23717e+06
3.23578e+06
-7.16344e+06
-4.29637e+06
1.80733e+07
-1.80717e+07
9.1329e+06
2.4602e+06
-2.46082e+06
-8.2517e+06
-4.35316e+06
8.57819e+06
-1.17788e+07
1.37889e+07
8.70935e+06
-2.34389e+07
1.078e+07
7.959e+06
1.32398e+07
9.39107e+06
-9.38955e+06
3.3096e+06
-3.67389e+06
832904
-833739
1.45715e+07
-343711
9.78544e+06
7.2624e+06
-1.01972e+07
1.01981e+07
-1.6244e+07
-3.26186e+06
8.15675e+06
-440248
440195
-9.26866e+06
-6.323e+06
-86575.8
1.09782e+06
-5.17864e+06
1.5877e+07
9.23801e+06
-1.18824e+07
-1.05094e+07
1.05089e+07
-1.86218e+07
-1.45822e+07
455345
1.92348e+06
-1.08309e+07
-1.90899e+07
1.90923e+07
834197
-7.77431e+06
-1.7885e+07
-4.70166e+06
4.70133e+06
-9.5154e+06
4.64236e+06
9.60562e+06
-2.32476e+07
2.32485e+07
-4.45558e+06
-1.33763e+07
1.33916e+07
1.79114e+07
-1.79089e+07
7.28012e+06
-9.97996e+06
321598
-320985
-8.98496e+06
894871
2.78078e+06
2.4557e+07
-2.45564e+07
-3.00764e+06
2.80672e+07
-2.80642e+07
1.4016e+06
1.16134e+07
-4.28565e+06
-1.92358e+07
-8.35465e+06
-2.494e+06
1.92377e+07
1.76806e+07
2.19957e+06
-7.77935e+06
-1.1113e+07
1.11136e+07
1.10472e+07
-1.14132e+07
1.57922e+07
8.91017e+06
1.06941e+07
-2.35434e+06
1.78029e+06
-3.7285e+06
-6.74479e+06
629629
2.29462e+06
-3.34622e+06
-2.737e+06
81886.2
1.01865e+07
6.16738e+06
-1.33101e+07
-9.69857e+06
-4.85361e+06
-1.62157e+07
1.52908e+07
-1.88092e+07
1.88109e+07
3.17648e+06
-1.37435e+06
-9.94843e+06
9.94773e+06
1.98172e+07
-1.98164e+07
-6.54365e+06
-2.619e+06
1.31543e+07
-1.94184e+06
1.94185e+06
2.38232e+07
-2.38227e+07
1.66474e+06
471467
-8.45041e+06
-2.67342e+06
-2.07466e+06
-549338
-2.37562e+06
-433686
1.62101e+07
1.75113e+07
-1.75101e+07
1.03565e+07
-1.03127e+07
4.65404e+06
4.04433e+06
2.39172e+07
-2.39166e+07
2.38076e+06
4.62184e+06
1.03734e+07
-3.44478e+06
-1.48985e+07
-6.26976e+06
5.81013e+06
-4.91025e+06
1.76948e+07
-2.7958e+06
-5.56608e+06
2.10277e+07
1.81738e+07
-1.81725e+07
-1.88338e+07
3.57397e+06
1.12332e+07
-7.81854e+06
8.06098e+06
2.10495e+07
-2.10334e+07
-9.16746e+06
-2.15626e+07
-2.65642e+06
2.65573e+06
3.58056e+06
-3.58137e+06
6.21408e+06
8.51826e+06
-7.8738e+06
2.47095e+07
-2.44695e+07
2.44725e+07
4.27854e+06
-4.27888e+06
-3.53555e+06
2.52617e+07
-2.52611e+07
-1.0245e+07
1.00247e+07
-2.97701e+06
58191.4
-57914.7
-9.31454e+06
-4.55621e+06
2.0075e+07
-5.4633e+06
-2.48513e+07
2.48535e+07
1.00049e+07
1.90759e+07
-1.89399e+07
7.16541e+06
4.80886e+06
-682848
1.07235e+07
-1.0719e+07
-2.3744e+07
2.37446e+07
-4.70213e+06
-1.24708e+07
1.24741e+07
-2.29799e+07
2.29807e+07
5.43123e+06
-1.19664e+07
1.0187e+07
-3.90588e+06
1.00267e+07
-1.00248e+07
-7.91763e+06
3.05982e+06
1.72452e+07
-167991
-1.08893e+07
1.08909e+07
-1.02303e+07
5.19434e+06
2.04961e+07
2.13677e+07
-2.13669e+07
1.52797e+07
-2.36717e+06
-7.84082e+06
7.68436e+06
2.68663e+07
-2.68634e+07
-1.08914e+07
1.87593e+07
-1.87583e+07
1.06673e+07
-1.70918e+07
-1.36011e+07
1.35977e+07
1.0406e+07
6.43263e+06
503768
-879991
-1.2714e+07
4.53976e+06
-3.74343e+06
123402
-122739
1.71131e+07
3.59251e+06
-3.59302e+06
2.2642e+07
-2.26396e+07
-2532.79
2.69578e+07
-2.69552e+07
-1.9971e+07
1.9973e+07
-2.6915e+07
2.69154e+07
6.95978e+06
2.48772e+07
-2.48767e+07
1.88502e+06
-8.19319e+06
-924593
-8.06574e+06
5.33325e+06
-7.32195e+06
1.92754e+07
-1.92745e+07
-6.11299e+06
6.11399e+06
5.34642e+06
-735339
430328
1.57651e+07
2.64603e+06
1.14827e+07
-1.70352e+07
2.4594e+06
-3.38456e+06
2.23943e+06
-2.24055e+06
1.58576e+07
-1.22416e+07
1.56009e+07
-1.01746e+07
-5.6655e+06
1.35629e+06
1.19094e+07
-1.19069e+07
1.15863e+07
5.67678e+06
-9.41385e+06
9.44037e+06
-3.97063e+06
-1.20812e+07
-2.40715e+07
-1.45234e+07
1.45247e+07
1.69692e+07
-8.54278e+06
1.09954e+07
-1.1926e+07
1.43667e+07
2.40732e+07
1.1924e+07
1.33401e+07
1.10645e+07
7.23007e+06
1.08278e+07
-3.7776e+06
9.09867e+06
6.66017e+06
5.04216e+06
-1.58659e+06
-5.41246e+06
9.36234e+06
-1.0994e+07
-6.08416e+06
1.96082e+07
-1.96076e+07
-1.402e+07
4.23211e+06
-4.08502e+06
-4.79075e+06
1.67923e+07
-1.81512e+07
2.18902e+06
-2.01206e+07
-6.92106e+06
3.09768e+06
1.8153e+07
8.99518e+06
-1.32733e+07
5.78226e+06
-2.47071e+06
1.52919e+07
-1.5062e+07
1.02919e+07
221552
-221531
-1.69817e+07
-2.05032e+07
2.05055e+07
942306
2.3256e+07
-2.3254e+07
2.73773e+06
9.10765e+06
-9.10612e+06
-1.10002e+07
125126
2.42254e+06
2.59716e+07
-2.59712e+07
-1.13707e+06
-1.99149e+07
2.15638e+07
-8.03938e+06
2.27061e+07
-2.27039e+07
-1.25751e+07
3.60897e+06
2.3328e+06
-1.85176e+07
1.04883e+07
-1.04908e+07
152135
-151493
1.50794e+06
6.06432e+06
1.59034e+07
-1.59016e+07
2.35039e+07
-2.35026e+07
-1.82193e+07
4.12248e+06
8.58845e+06
2.20612e+07
-2.20596e+07
942112
-280151
280751
-1.90712e+07
1.90675e+07
-2.33889e+07
2.33899e+07
-2.02216e+07
2.38775e+07
-2.38769e+07
1.72993e+07
-1.72973e+07
1.1123e+07
-5.27016e+06
-2.2367e+07
2.16177e+07
1.01973e+07
786945
-2.1617e+07
4.48509e+06
1.27013e+07
1.19585e+07
1.32771e+07
7.67647e+06
2.27193e+07
-2.27188e+07
-6.54102e+06
-2.05266e+07
2.05287e+07
2.58133e+07
-2.58121e+07
-8.87535e+06
-1.79936e+07
1.79948e+07
1.03801e+07
-1.03802e+07
-9.91618e+06
1.00286e+07
-1.00244e+07
9.69514e+06
-2.45129e+07
2.45134e+07
6.19206e+06
-4.30687e+06
-9.93533e+06
-1.7825e+06
9.66551e+06
-9.66531e+06
3.78474e+06
-9.32198e+06
3.83189e+06
-7.50988e+06
-75519.4
75968.5
-2.77221e+07
2.77231e+07
-3.77274e+06
6.92521e+06
2.77859e+07
-2.77832e+07
-1.03426e+07
1.00515e+07
4.95397e+06
-1.63558e+07
1.63939e+07
1.10695e+07
-714711
-1.67672e+07
2.20145e+06
-2.73001e+07
2.73024e+07
-1.11803e+07
1.11811e+07
-1.59475e+07
1.59483e+07
807980
-808463
4.34761e+06
-1.52021e+07
-3.068e+06
-8.50317e+06
-1.00496e+07
-2.0637e+06
1.36226e+06
-1.36339e+06
-4.41147e+06
-557416
8.90074e+06
-1.11007e+07
1.11018e+07
8.42485e+06
-450356
-1.17241e+07
1.83878e+07
-1.83868e+07
-1.18447e+07
1.58384e+06
-1.75222e+07
1.7523e+07
-8.00023e+06
-1.88819e+07
1.88832e+07
-1.41951e+07
-8.41456e+06
-1.11564e+07
-5.1607e+06
5.5005e+06
-5.54867e+06
2.18982e+07
5.31622e+06
1.52603e+07
-1.52586e+07
566344
1.33957e+07
-1.33941e+07
2.02883e+06
2.02767e+07
-2.02757e+07
-1.00845e+07
1.0086e+07
-1.07664e+06
-6.07542e+06
6.0768e+06
-1.90725e+07
1.90731e+07
1.16677e+07
-7.87526e+06
-1.1552e+07
1.36431e+07
-1.36415e+07
1.15129e+07
-3.94918e+06
-1.15545e+07
1.15519e+07
2.58726e+06
2.48644e+07
-2.4861e+07
3.59044e+06
1.4808e+07
2.38703e+07
-2.38698e+07
-323238
324392
-3.15629e+06
2.28442e+07
-2.28431e+07
2.67859e+06
1.05759e+07
-1.05764e+07
1.97556e+06
-1.97643e+06
-221501
1.06623e+07
2.43874e+07
-2.43841e+07
-2.87095e+07
2.87106e+07
9.40183e+06
1.08727e+06
-4.21509e+06
4.21444e+06
6.60109e+06
44519.5
-44294.1
-2.54846e+07
2.54851e+07
-7.75831e+06
5.40506e+06
-5.40499e+06
3.21639e+06
-2.33709e+07
2.3372e+07
-6.48902e+06
-3.2239e+06
-2.44526e+07
2.44533e+07
-2.41236e+07
2.41264e+07
-7.18558e+06
694447
-1.60244e+07
8.26655e+06
-4.98994e+06
-2.87411e+06
9.09899e+06
1.03051e+07
-1.04286e+07
1.03818e+07
-2.0163e+07
2.01637e+07
2.41409e+07
-2.41404e+07
1.9244e+07
-1.01064e+07
-2.25667e+06
891073
-2.25631e+07
-9.88979e+06
1.55875e+07
1.4533e+07
-1.57313e+07
1.38529e+07
-1.3852e+07
-1.18836e+07
1.18852e+07
2.22677e+06
-2.75144e+06
-1.06613e+07
414747
-1.04397e+06
8.39316e+06
-9.37795e+06
-3.98514e+06
1.13598e+07
-1.13593e+07
311588
-1.29309e+07
1.29319e+07
-5.41958e+06
-2.67968e+07
2.68004e+07
-2.49197e+07
2.49217e+07
-4.09398e+06
-1.91498e+07
1.9151e+07
2.9873e+07
-2.98721e+07
2.12372e+07
-2.12358e+07
1.41824e+07
-1.41806e+07
2.12908e+07
5.69208e+06
7.02553e+06
-3.25113e+06
-1.16418e+07
1.16434e+07
-1.94501e+07
1.94513e+07
-6.11472e+06
5.8786e+06
-5.72042e+06
2.7669e+07
-2.76684e+07
1.06364e+07
-1.40315e+07
1.39899e+07
-8.52938e+06
-1.01782e+07
1.47699e+07
-4.58537e+06
1.0468e+07
-1.04586e+07
1.25424e+06
-1.06628e+07
9.94972e+06
986061
-986767
1.80808e+07
3.88788e+06
4.17357e+06
-5.57059e+06
-1.28386e+07
-2.08064e+07
4.98638e+06
6.73474e+06
-6.73392e+06
2.15003e+07
-2.14995e+07
1.3774e+07
-1.37725e+07
-5.84588e+06
5.0448e+06
4.78395e+06
3.37967e+06
-5.93852e+06
-1.76155e+07
6.47112e+06
7.15363e+06
3.37651e+06
-2.04826e+07
2.04754e+07
2.0608e+06
-2.06241e+06
5.67922e+06
5.06839e+06
-1.39856e+07
1.39867e+07
1.47213e+07
-1.47194e+07
2.56022e+07
-2.56018e+07
-7.16085e+06
-3.36782e+06
3.35344e+06
1.82633e+06
-1.87033e+07
1.89298e+07
-2.30405e+07
2.30411e+07
1.03995e+07
-397775
1.9177e+07
-1.91749e+07
-1.1147e+07
1.10486e+07
8.33843e+06
-3.33403e+06
-1.06711e+07
-5.18543e+06
9.97841e+06
-9.98053e+06
1.66384e+07
-1.66368e+07
-1.54861e+07
2.33064e+07
-2.33057e+07
2.17283e+07
-2.1726e+07
2.09282e+07
1.04273e+07
-1.04282e+07
-8.33455e+06
8.33575e+06
2.76194e+06
-6.13243e+06
-1.40069e+07
-1.051e+07
1.05109e+07
-3.96662e+06
3.9659e+06
583114
1.3887e+07
-1.73997e+07
1.74009e+07
1.24539e+07
5.37913e+06
-2.84802e+07
2.84816e+07
5.23932e+06
1.46536e+07
-1.85696e+07
5.95156e+06
-1.81771e+07
-2.06609e+07
2.06621e+07
7.47602e+06
2.18449e+07
-2.18438e+07
4.12938e+06
7.16287e+06
1.81765e+07
-1.62614e+07
1.62626e+07
-7.99297e+06
8.86212e+06
-82917.3
2.39798e+07
-2.39791e+07
2.32422e+06
-3.13578e+06
1.47714e+07
-1.47703e+07
8.55511e+06
-9.37718e+06
9.31648e+06
3.15442e+06
1.20699e+06
-1.15288e+06
1.36534e+07
-1.36525e+07
3.1022e+06
-4.30803e+06
-8.90359e+06
1.64674e+07
-1.20368e+06
-5.07367e+06
-1.65669e+06
584908
9.41473e+06
2.00327e+07
-7.33126e+06
2.19389e+07
-2.19361e+07
-1.00156e+07
1.35695e+06
-1.35809e+06
2.23644e+07
-2.23623e+07
7.20949e+06
-2.38241e+07
2.38265e+07
9.0797e+06
1.98878e+07
-2.75405e+06
-605919
605366
1.6005e+06
-1.86259e+07
1.86268e+07
-1.24525e+07
1.2294e+06
1.31008e+07
-225929
-1.92144e+07
8.94537e+06
-6.30287e+06
6.30385e+06
1.44998e+07
-1.44981e+07
-1.00533e+07
4.61621e+06
9.36944e+06
-2.16258e+07
2.16273e+07
-2.28191e+06
2.16141e+06
-2.16192e+06
-159789
-2.41056e+07
2.41061e+07
-3.50392e+06
6.68667e+06
-8.19016e+06
6.60673e+06
-6.64949e+06
1.18984e+07
-1.18977e+07
-8.86296e+06
8.8068e+06
-1.15035e+07
1.16175e+07
1.4126e+07
-9.93396e+06
-1.46178e+07
886368
-1.79696e+07
-4.16802e+06
1.01064e+07
-1.01047e+07
-205641
6.78348e+06
-6.78277e+06
1.96519e+07
-1.96516e+07
1.62676e+07
2.20029e+07
1.55087e+06
2.66256e+06
1.08233e+07
789277
-1.83135e+07
-1.76665e+07
1.21541e+07
7.79363e+06
-1.00911e+07
-3.45912e+06
1.00134e+07
-1.32523e+07
1.32532e+07
1.45125e+07
-1.45127e+07
1.64978e+07
-1.65096e+07
7.77562e+06
-1.29709e+07
1.29715e+07
1.19847e+06
-1.33855e+07
1.34648e+07
-2.16121e+07
2.16132e+07
5.62977e+06
1.37491e+07
-3.02047e+06
-1.0008e+07
-1.80441e+07
-69028.8
69469
8.83777e+06
-4.75105e+06
5.65043e+06
-5.63326e+06
2.80972e+06
1.07399e+07
-1.07381e+07
-1.8475e+07
1.84763e+07
9.81713e+06
-1.90991e+07
2.4813e+07
-2.48125e+07
-1.66559e+07
1.66572e+07
7.87463e+06
6.2906e+06
6.35651e+06
8.51233e+06
1.41903e+07
-1.41328e+07
5.84405e+06
-1.25545e+07
1.25297e+07
-1.39587e+07
1.39605e+07
1.33619e+07
9.51755e+06
-9.51605e+06
1.00662e+07
-1.00661e+07
1.34097e+07
-7.3823e+06
7.31871e+06
-4.98339e+06
4.31406e+06
438274
-5.61523e+06
-9.95413e+06
2.86504e+06
-2.86595e+06
-8.52196e+06
9.95597e+06
-1.62866e+07
1.62875e+07
6.48488e+06
7.96372e+06
8.50434e+06
9.98216e+06
1.2112e+07
-1.21104e+07
1.06188e+07
-2.53924e+07
2.53949e+07
1.13155e+07
1.00954e+07
-5.70154e+06
-1.57262e+07
1.57715e+07
-1.57702e+07
5.31403e+06
1.18295e+07
9.64004e+06
-2.20507e+07
2.20512e+07
1.4306e+07
-1.43023e+07
8.60102e+06
-9.12613e+06
-6.5608e+06
-2.0104e+06
6.98813e+06
5.91715e+06
7.82019e+06
-7.30227e+06
913239
-1.01269e+06
-1.85631e+07
1.85644e+07
2.00069e+06
2.52741e+07
-1.97265e+07
1.97276e+07
1.62231e+07
-1.32057e+07
9.64049e+06
-8.51221e+06
1.32136e+07
-2.33041e+07
2.33045e+07
3.3669e+06
1.33504e+07
-1.94187e+07
1.94203e+07
1.11995e+07
-8.6627e+06
1.38683e+07
1315.56
-1104.22
9.02768e+06
2.289e+07
-2.28878e+07
8.28013e+06
-558372
7.11299e+06
1.66692e+07
-1.34676e+07
-693973
-2.52718e+07
383070
-382794
-5.37468e+06
1.17459e+07
4.11193e+06
292588
-292253
1.23508e+07
-1.72291e+07
1.72302e+07
2.7637e+07
-2.76349e+07
-1.34821e+07
1.34838e+07
9.76006e+06
1.00034e+06
-1.01402e+06
-9.85502e+06
-4.80539e+06
7.65105e+06
579681
-9.54766e+06
-9.35679e+06
1.86008e+07
-1.85989e+07
-1.87485e+07
1.87494e+07
-2.40701e+06
-1.02519e+07
-2.24212e+07
6.44517e+06
-1.13102e+07
-360666
1.05586e+07
1.10603e+07
2.80768e+07
-2.80736e+07
-1.77645e+07
-6.41859e+06
-1.40171e+07
1.40184e+07
-3.02588e+06
-887023
251422
7.87493e+06
-24086.9
23824.8
-4.21007e+06
2.75359e+06
-2.75386e+06
-237352
-2.48418e+07
2.48438e+07
-3.99727e+06
-1.12924e+07
1.31962e+07
1.12912e+07
-1.83655e+07
1.83608e+07
4.44911e+06
-5.70523e+06
-9.45708e+06
1.23936e+06
-2.45922e+07
2.45943e+07
1.2077e+07
-1.2076e+07
-2.29964e+07
3.81451e+06
-2.86899e+07
2.86916e+07
9.98451e+06
-9.98288e+06
-9.79003e+06
1.81258e+07
-2.64503e+06
-1.64745e+07
1.64756e+07
2.49977e+07
-2.49973e+07
-285427
-1.49948e+06
1.16856e+07
2.16704e+07
9.78968e+06
5.90817e+06
-1.84666e+07
1.84677e+07
-4.3599e+06
6.94768e+06
-1.164e+07
-1.61412e+07
-4.19855e+06
-1.09804e+07
1.6095e+07
-1.60941e+07
2.0167e+07
-2.46907e+07
2.46912e+07
133653
-133157
1.19068e+07
1.08049e+07
2.52317e+07
-1.29564e+07
-1.37134e+07
1.37141e+07
-1.38691e+07
1.00272e+07
-1.88805e+07
9.76124e+06
-4.43099e+06
-2.66377e+07
2.66384e+07
-1.71474e+07
-1.76206e+07
1.76225e+07
-2.89436e+07
2.89455e+07
-2.52285e+07
71456.4
-71100.3
8.16807e+06
-2.71665e+07
2.7167e+07
-1.53373e+07
1.53382e+07
-3.76609e+06
3.76524e+06
1.32844e+07
4.82595e+06
2.02036e+07
-2.02029e+07
-3.75516e+06
-5.55385e+06
1.8122e+07
-1.81209e+07
-1.05711e+07
-7.50604e+06
2.26446e+07
-2.26432e+07
-9.34109e+06
4.10516e+06
-4.10543e+06
1.42193e+07
52577.6
-7.84326e+06
2.84976e+07
-2.84944e+07
1.91809e+07
1.3819e+07
-1.38179e+07
-1.15626e+07
1.15646e+07
2.00775e+06
-2.00866e+06
5.09202e+06
1.68581e+07
-2.48848e+06
2.48779e+06
-1.61366e+07
1.61375e+07
-5.70259e+06
1.56995e+06
7.13072e+06
1.3869e+07
3.96649e+06
3.30699e+06
2.17739e+07
-2.17714e+07
2.06029e+07
-2.06018e+07
-3.00465e+07
3.0048e+07
-7.98631e+06
-9.46882e+06
9.32762e+06
1.96502e+07
-1.96493e+07
-8.48668e+06
-239167
240095
-3.87906e+06
-1.45166e+07
1.02463e+07
-1.02446e+07
-2.23419e+07
5.60653e+06
-1.15849e+07
-2.45356e+07
2.45361e+07
-7.70834e+06
-1.0861e+07
1.08638e+07
549002
7.33445e+06
-711578
-1.38443e+07
-1.95736e+07
1.95756e+07
-2.04754e+06
-9.15933e+06
2.44079e+07
-1.46405e+07
1.46422e+07
4.77095e+06
2.05584e+07
-2.05574e+07
207378
-6.69633e+06
-6.08462e+06
1.5969e+06
-4.81637e+06
1.77287e+06
-1.93759e+07
1.93766e+07
1.85461e+07
-1.85453e+07
-3.09165e+06
-2.46461e+07
2.46469e+07
-2.20089e+06
3.0637e+06
2.19834e+06
-8.33308e+06
8.33379e+06
9.19573e+06
-7.66823e+06
4.27188e+06
1.6451e+06
-8.84872e+06
6.85846e+06
1.84502e+07
-1.84504e+07
-4.50826e+06
-9.62475e+06
1.51887e+07
-6.68043e+06
-2.11482e+07
-1.6966e+07
-6.14079e+06
4.22181e+06
1.86758e+06
3.34356e+06
-2.65633e+07
2.65642e+07
-2.52467e+07
2.52473e+07
619136
1.12689e+06
-1.12663e+06
-1.07426e+07
-5.15671e+06
8.85709e+06
-1.11282e+06
2.41767e+06
-1.88991e+07
-1.98391e+06
1.02716e+06
-2.58999e+07
2.59005e+07
-5.99066e+06
1.68945e+06
2.02968e+07
1.04788e+07
-1.04772e+07
-1.73154e+07
2.10848e+07
5.13767e+06
1.48059e+07
6.21622e+06
-1.35467e+07
1.61052e+06
-1.54355e+06
-5.66512e+06
140929
-2.65388e+07
2.65393e+07
1.26428e+06
-1.27184e+06
7.02112e+06
1.35411e+06
1.50447e+07
-1.50395e+07
6.66656e+06
-4.70453e+06
6.55031e+06
-1.6692e+07
1.66931e+07
2.02764e+07
-1.47119e+06
1.379e+07
-9.1908e+06
399598
-1.62719e+07
641674
-9.73313e+06
-142246
857651
6.67248e+06
702112
6.75679e+06
-1.19641e+07
2.54833e+07
-2.54828e+07
-1.19754e+07
1.19759e+07
7.16699e+06
-7.17565e+06
2.75657e+06
-1.41191e+07
1.13354e+07
-1.05619e+07
1.05636e+07
-1.99705e+07
7.94449e+06
-660776
1.13652e+07
-1.12182e+07
-7.44465e+06
-3.49753e+06
-894072
898420
-1.0971e+07
1.09718e+07
-2.85605e+06
2.85458e+06
1.50683e+07
-1.54603e+07
6.52598e+06
-3.96402e+06
-8.00959e+06
7.38099e+06
172202
-829042
-1.27055e+06
-7.06934e+06
1.53892e+07
-655440
3.29444e+06
1.41937e+07
1.83016e+07
-1.83028e+07
1.14297e+07
-783749
-3.23445e+06
1.99249e+07
-1.99242e+07
1.92237e+07
-1.92226e+07
-9.99129e+06
-3.62045e+06
-6.81551e+06
-8.99159e+06
9.04757e+06
8.51902e+06
-7.44899e+06
-2.27308e+06
-7.38488e+06
-4.66765e+06
4.55355e+06
-2.48604e+06
-2.34949e+06
647174
-645429
3.21605e+06
-1.3371e+07
1.54131e+07
-3.64918e+06
-1.37979e+07
1.37992e+07
-2.26671e+07
1.46742e+07
-1.46732e+07
186614
-186285
8.48351e+06
2.0418e+07
-2.04169e+07
10096.4
-9.81155e+06
184462
255002
-5.59276e+06
5.58568e+06
-1.78932e+07
1.78942e+07
-5.12486e+06
1.55004e+06
1.33932e+07
2.40979e+07
-2.40953e+07
2.11006e+07
-2.10992e+07
1.12714e+06
-1.38749e+07
1.38754e+07
9.99245e+06
7.28048e+06
-2.21276e+07
2.21283e+07
2.69226e+06
-7.65886e+06
-8.78323e+06
3.34046e+06
-12459.9
12064.1
-1.6079e+07
1.608e+07
-1.32967e+07
1.32976e+07
2.35069e+06
-2.35181e+06
-6.2793e+06
1.12066e+06
-1.12142e+06
-1.34315e+07
-1.85467e+07
8.55449e+06
1.49335e+07
-1.49325e+07
1.77463e+06
-1.55778e+07
1.72896e+06
-1.55672e+06
-1.70323e+07
-1.47501e+07
1.47519e+07
-7.76494e+06
-4.44227e+06
-1.69556e+07
-2.5996e+07
2.59989e+07
1.54159e+07
1.80509e+07
-1.80518e+07
1.34801e+07
-1.34789e+07
-18805.1
18573.4
8.8328e+06
1.00701e+07
6.08969e+06
2.41397e+07
1.01944e+07
1.03843e+07
-8.82989e+06
-8.54619e+06
2.43079e+07
-2.43072e+07
1.20159e+06
2.15013e+07
-2.15007e+07
-9.51358e+06
-1.23691e+07
1.23695e+07
-2.08002e+07
9.25116e+06
-2.24584e+07
2.24596e+07
-1.89162e+07
9.90896e+06
1.51727e+07
7.30334e+06
7.52066e+06
-1.80404e+07
1.80415e+07
7.78744e+06
-7.78259e+06
-4.44512e+06
-696353
2.0374e+07
7.68768e+06
-2.05122e+06
-1.08882e+07
1.09126e+07
-4.06856e+06
-2.74922e+07
2.74927e+07
-2.17548e+07
2.17561e+07
1.81256e+06
-4.4524e+06
4.45535e+06
2.39437e+07
-1.66976e+07
1.15992e+07
-2.06455e+06
-2.16525e+07
8.3277e+06
2.28805e+07
380671
2.11033e+06
-598535
-8.34232e+06
-1.25011e+07
1.48539e+07
-1.48528e+07
1.97609e+06
-2.88974e+07
2.88994e+07
1.49335e+07
-1.49323e+07
-1.08255e+07
-6.52659e+06
-3.88044e+06
-2.46902e+06
1.40452e+07
2.29508e+07
-2.29501e+07
1.4777e+07
-5.15764e+06
3.74454e+06
-3.37957e+06
272606
-272140
-2.33403e+07
-304339
1.83259e+07
-1.83246e+07