/*--------------------------------*- C++ -*----------------------------------*\
| =========                 |                                                 |
| \\      /  F ield         | OpenFOAM: The Open Source CFD Toolbox           |
|  \\    /   O peration     | Version:  v3.0+                                 |
|   \\  /    A nd           | Web:      www.OpenFOAM.com                      |
|    \\/     M anipulation  |                                                 |
\*---------------------------------------------------------------------------*/
FoamFile
{
    version     2.0;
    format      ascii;
    class       volScalarField;
    location    "10000";
    object      sigmaxy;
}
// * * * * * * * * * * * * * * * * * * * * * * * * * * * * * * * * * * * * * //

dimensions      [1 -1 -2 0 0 0 0];

internalField   nonuniform List<scalar> 
27023
(
-1.63239e+07
-1.63269e+07
-1.20574e+07
-1.20555e+07
-1.5553e+07
-1.55559e+07
-1.52389e+07
-1.52366e+07
-6.0685e+06
-6.06808e+06
-1.49134e+07
-1.49095e+07
-1.4138e+06
-1.4213e+06
-2.56415e+06
1.1858e+07
1.13356e+07
-2.58147e+06
-2.58231e+06
-2.03803e+06
-2.03731e+06
-1.37081e+07
-1.37059e+07
-1.35463e+06
-1.35233e+06
-281407
4.05411e+06
-1.41008e+06
3.73002e+06
-3.15207e+06
-670334
-2.50669e+06
-2.5067e+06
-2.16153e+06
-1.63798e+06
-1.8581e+06
-1.07059e+06
-1.06919e+06
-6.05469e+06
-6.05518e+06
-1.20741e+07
-1.2076e+07
-1.99563e+06
-1.57549e+07
-1.57578e+07
-2.49991e+06
-2.49912e+06
-1.62711e+06
-1.62647e+06
-2.71638e+06
-759503
-758807
-2.37857e+06
-88679.7
-88433.9
-2.19613e+06
-1.78604e+06
-1.60322e+06
-3.019e+06
-1.24664e+07
-1.24646e+07
-1.66244e+06
-2.04432e+06
-855243
-3.25849e+06
-271520
-1.80585e+06
136970
4.23627e+06
-2.91935e+06
-1.45322e+06
-1.45167e+06
-4.42675e+06
-4.42437e+06
-1.55375e+06
-1.55366e+06
-362899
-360582
-6.21846e+06
-6.21892e+06
1.59979e+06
-1.41393e+07
-1.41352e+07
-4.89396e+06
-4.89167e+06
-792760
-792731
-1.80677e+06
-3.08871e+06
-2.95157e+06
-2.82901e+06
-1.5967e+07
-1.59638e+07
8.81967e+06
-2.22866e+06
-402342
-400856
2.19795e+06
-3.27345e+06
-3.5567e+06
-1.90647e+06
-157082
-53466.4
-9.49643e+06
-9.493e+06
-2.10784e+06
-9.71165e+06
-9.70935e+06
-2.31831e+06
-1.90974e+06
-3.69385e+06
-1.01649e+07
-1.01626e+07
-379742
-378023
-903595
-903477
3.05392e+06
543114
-1.24643e+06
-2.08525e+06
-1.46796e+06
-3.08607e+07
-3.08643e+07
-1.46443e+07
-1.46431e+07
-1.54071e+07
-1.54039e+07
-1.02595e+07
-1.02558e+07
-1.75692e+06
-1.59162e+06
-1.58538e+06
-1.153e+06
-2.58457e+06
72424.7
72413.2
3.89466e+06
-2.95053e+06
-2.94965e+06
-1.68864e+07
-1.68901e+07
3.7707e+06
-1.4886e+07
-1.48832e+07
-553466
-2.15474e+06
240136
-2.57555e+06
-2.42541e+07
-2.42511e+07
-2.06173e+07
-2.06145e+07
-3.17735e+06
-849927
-644266
-631082
-2.04156e+06
-3.04249e+06
-3.04161e+06
-1.84683e+06
-2.96894e+06
-1.43707e+06
-3.33415e+06
-2.17517e+07
-2.17521e+07
-1.51745e+07
-1.5179e+07
2.68663e+06
2.90039e+06
-4.06433e+06
-7.74437e+06
-7.74486e+06
-3.12456e+06
-2.84833e+06
-2.63277e+06
-2.07916e+06
3.51981e+06
-3.31124e+06
4.84603e+06
-2.58044e+06
-1.5746e+07
-1.57497e+07
-2.15846e+06
-2.15676e+06
-1.72145e+06
-384531
-382090
-1.59914e+06
-3.18861e+06
-1.65764e+07
-1.6581e+07
3.45087e+06
-2.77269e+06
-1.48628e+07
-1.48615e+07
-594317
-1.73117e+07
-1.73163e+07
930191
-2.66215e+06
3.83557e+06
-1.01352e+06
-1.01333e+06
-1.4819e+07
-1.48218e+07
97604.3
-1.91102e+06
-384007
-383813
-192477
-191550
9.89917e+06
-705778
-5.81459e+06
-5.80993e+06
3.02151e+06
3.66275e+06
-3.76003e+06
-3.25744e+06
-3.25775e+06
-1.52037e+06
-2.9987e+07
-2.99904e+07
-1.48398e+06
-4.48894e+06
-4.48821e+06
-5.02693e+06
-5.02392e+06
-2.91463e+06
-2.91623e+06
-2.87916e+06
-3.53255e+06
-3.53191e+06
-1.6648e+06
-2.54109e+06
-2.54079e+06
-210935
-2.09005e+06
-1.74889e+07
-1.74907e+07
3.27472e+06
-2.06534e+06
-2.13997e+06
-2.65031e+06
8.6787e+06
-3.97385e+06
5.46221e+06
-825694
-2.11553e+06
-7.70131e+06
-7.7025e+06
-3.01075e+06
8.15342e+06
-336359
-1.13388e+06
-1.54428e+06
-580239
-2.84121e+06
-2.84145e+06
4.05839e+06
6.48797e+06
556456
-1.83074e+06
-1.83043e+06
-1.46624e+07
-1.46599e+07
-1.73774e+06
8.80329e+06
-2.70674e+07
-2.70648e+07
-1.15239e+06
-1.82907e+06
-1.63072e+06
-1.87993e+06
-2.62383e+06
-2.10024e+07
-2.10027e+07
-2.05122e+06
-2.05214e+06
-2.69919e+06
-2.18516e+06
-3.26449e+06
-3.13114e+06
-74198.5
-73540.5
-2.37672e+06
-2.03058e+06
1.16853e+07
-4.55492e+06
-1.53878e+06
-3.03943e+06
-5.37659e+06
-5.37762e+06
-1.13869e+06
-1.13874e+06
-2.19664e+06
-2.13485e+06
-1.00028e+06
-1.00033e+06
-1.71753e+06
1.10893e+07
-1.30123e+07
-1.30164e+07
-368956
-7.40104e+06
-7.39801e+06
2.59316e+06
-2.68333e+06
-3.91191e+06
-1.96072e+06
24054.8
23047.3
-2.54507e+06
-2.54695e+06
-2.6143e+06
-2.41824e+06
-2.41989e+06
276835
-2.95019e+06
-2.46861e+06
-2.47896e+06
2.47209e+06
6.00416e+06
1.50733e+06
-3.07642e+06
-414791
-2.47383e+06
1.77527e+06
-3.54086e+06
6.02027e+06
-3.45398e+06
-888264
-2.18696e+06
-1.76041e+06
-2.29915e+07
-2.29944e+07
-823171
1.04907e+07
-7.76068e+06
-7.75787e+06
-683351
-661691
-180678
-179808
5.15243e+06
-1.84747e+07
-1.84716e+07
-1.15963e+06
-1.54965e+06
-2.62944e+06
-2.6481e+06
-3.859e+06
-3.85841e+06
-6489.51
-6415.49
1.27965e+07
-6.73661e+06
-6.73737e+06
-2.20326e+06
-98807.2
-582493
-582648
-2.27475e+07
-2.27515e+07
-3.41704e+06
-2.83823e+06
1.09155e+07
-1.85772e+07
-1.858e+07
-6.14951e+06
-6.15001e+06
9.61387e+06
-2.33797e+06
1.76099e+06
-1.84825e+06
-1.91704e+06
1.53392e+06
-590718
-815127
-1.95764e+06
-816417
-1.38118e+07
-1.38097e+07
5.11031e+06
2.7805e+06
-2.06022e+06
-2.45276e+06
-740622
4.21463e+06
6.44615e+06
-2.61722e+06
-127841
-3.85277e+06
1.17989e+07
-3.38933e+06
-1.84262e+06
-1.72465e+06
-689062
-1.69325e+06
-5.57212e+06
-5.56914e+06
8.1119e+06
3.41344e+06
-1.56178e+06
-1.82504e+07
-1.8253e+07
1.55534e+06
-2.51787e+06
373462
-188100
571015
-415470
-413735
-3.52992e+06
-1.70527e+06
-4.81292e+06
-2.30102e+06
-1.73094e+06
-1.76651e+06
4.34483e+06
-1.20413e+06
4.74852e+06
3.54486e+06
-1.54582e+06
-921571
-1.3569e+06
-1.35704e+06
-228063
-3.52672e+06
-1.75224e+06
3.06359e+06
-1.35255e+06
-1.35235e+06
-3.49865e+06
-3.50042e+06
-1.52725e+06
4.25721e+06
-7.84759e+06
-7.84807e+06
-72975.6
-75525
-2.79636e+06
-2.79492e+06
-219036
-220091
4.00169e+06
-2.69284e+06
-2.46814e+06
1.06561e+07
9.02828e+06
-2.05383e+07
-2.05426e+07
-2.10766e+07
-2.10808e+07
-1.89411e+06
-1.89248e+06
-2.47596e+07
-2.47562e+07
5.15768e+06
4.23617e+06
-1.07447e+06
-2.71685e+06
5.44563e+06
-182191
-2.57781e+06
-1.56346e+07
-1.56362e+07
-1.4577e+06
-1.64624e+06
-3.12224e+06
-1.88572e+06
-2.08695e+06
2.69948e+06
-361303
-5.46404e+06
-5.46273e+06
-362332
-698883
-1.02453e+07
-1.02431e+07
-4.28994e+06
-4.28931e+06
-1.18116e+06
6.25468e+06
-50125.2
4.6455e+06
170298
-3.22884e+06
-1.70962e+07
-1.70993e+07
-2.40034e+06
-4.7051e+06
-708666
-1.72436e+06
-1.72617e+06
-1.98902e+07
-1.98871e+07
6.46659e+06
-421236
-2.76516e+06
-1.04059e+07
-1.04091e+07
-2.38816e+06
1.11274e+07
-570561
-573475
2.04719e+06
-2.55895e+07
-2.5586e+07
-1.53201e+07
-1.53158e+07
-49509.4
-2.90716e+07
-2.90738e+07
-1.95882e+06
-1.51759e+06
-1.64984e+06
-1.64952e+06
-2.3654e+06
-1.62031e+06
-1.62038e+06
-995159
-6.299e+06
-6.30069e+06
-2.7383e+06
-2.73982e+06
-911127
-3.22354e+07
-3.22324e+07
-1.83287e+06
-2.22322e+06
-1.25014e+06
2.61864e+06
-3.68346e+06
-3.67908e+06
-7.21873e+06
-7.21953e+06
-2.65316e+06
-2.20186e+06
1.5667e+06
-1.4671e+06
1.26925e+06
2.71832e+06
-3.38241e+06
-7.64934e+06
-7.64884e+06
-1.06811e+06
-422884
-422974
-2.98508e+06
-602631
-7.14466e+06
-7.14745e+06
-1.06694e+06
-1.56447e+06
-1.58251e+06
1.41231e+06
5.07271e+06
-2.21849e+06
4.10496e+06
-2.84837e+06
-589989
-592127
-2.03014e+06
1.23726e+07
-3.28513e+06
-3.28421e+06
-2.76084e+06
-2.63894e+06
-2.6372e+06
-1.88021e+06
-2.30513e+07
-2.30482e+07
-1.67359e+07
-1.67408e+07
-2.67581e+07
-2.67614e+07
-1.3902e+06
2.31754e+06
2.27352e+06
-2.61138e+06
-2.5204e+07
-2.52072e+07
-1.84773e+06
8.81238e+06
1.89167e+06
-2.56e+06
1.1971e+07
-1.86509e+06
1.06718e+07
-176951
-470951
-468640
-3.25751e+06
-280454
-276892
-3.21297e+06
-4.08869e+06
-4.09111e+06
-1.84964e+06
-3.25829e+06
-1.84853e+06
-1.84773e+06
-1.62833e+06
-1.62805e+06
-990188
4.36881e+06
3.0565e+06
-4.56203e+06
-4.56072e+06
-2.81719e+06
-2.81679e+06
-3.45929e+06
-3.06853e+06
-829191
-901234
266083
266091
90868.7
-12103.4
-130157
-130779
-12163.3
-2.1831e+06
-1.2891e+06
-1.29477e+06
-2.19847e+07
-2.19877e+07
-1.5623e+07
-1.5626e+07
-2.36489e+07
-2.36458e+07
7.82042e+06
-3.12405e+06
-3.12117e+06
-1.95128e+06
-4.14945e+06
-2.80498e+06
-2.80784e+06
-2.29695e+06
-3.76999e+06
-3.7685e+06
-1.80892e+06
-1.9815e+06
-1.08361e+06
-2.58326e+07
-2.58358e+07
-2.40573e+06
-3.23318e+06
3.46649e+06
-3.91129e+06
-5.89624e+06
-5.89798e+06
1.19196e+07
747149
-5.87115e+06
-5.87181e+06
-246470
-247637
-2.80058e+06
-2.79877e+06
-2.02244e+06
-1.6286e+06
-956058
-955979
1.77914e+06
-598224
6.90966e+06
-93570.8
-1.17111e+06
-2.69922e+06
-2.17005e+06
-1.76945e+06
3.38966e+06
-2.25514e+06
-1.9858e+06
-1.70571e+06
-1.34587e+06
5.75027e+06
-3.19515e+06
-109116
-109987
-4.15845e+06
-4.15613e+06
1.34257e+06
1.01474e+06
-2.53989e+06
-1.35839e+06
-257662
-1.50472e+06
207895
-1.81971e+06
-183166
242203
4.34257e+06
-1.31634e+07
-1.31599e+07
2.62193e+06
-1.57949e+06
-3.03338e+06
-3.19446e+06
-5.92642e+06
-5.92521e+06
-396250
-396350
-11574.1
-11638.9
-1.72265e+06
1.01625e+07
-1.59578e+06
5.52576e+06
341151
339847
-1.8897e+06
-6.0726e+06
-6.07376e+06
-2.2615e+06
-2.26182e+06
-1.2314e+06
-5.42164e+06
-5.41978e+06
9.63984e+06
-1.71671e+06
-2.21666e+06
-3.44404e+06
-2.51092e+06
-2.26178e+06
-2.43317e+06
-2.43286e+06
-1.99355e+06
1.42351e+06
-2.13321e+07
-2.13283e+07
-1.57213e+06
-731517
5.58736e+06
-725475
-2.14828e+06
-2.10607e+06
-2.15112e+06
2.79872e+06
-2.56992e+06
1.13993e+07
-2.53535e+06
2.82685e+06
-304200
-137281
-8.83321e+06
-8.82972e+06
-739312
-739380
-3.12733e+06
-2.06394e+06
-5.61066e+06
-5.61218e+06
-1.9461e+06
-1.5786e+06
-3.23192e+06
-1.34653e+06
-2.91088e+06
-1.8444e+07
-1.84409e+07
-2.48064e+06
-563187
-563054
-1.11849e+06
-1.11866e+06
-1.2168e+06
-2.88748e+06
-2.84115e+06
-317785
-1.53295e+07
-1.53276e+07
-2.4878e+06
6.13102e+06
-3.29993e+06
-1.79838e+06
-1.84162e+06
4.81482e+06
4.93371e+06
5.41701e+06
-2.78615e+06
-1.73082e+06
-1.73069e+06
-1.7835e+07
-1.78313e+07
-2.74511e+06
-2.66657e+06
-767352
8.79414e+06
-2.23889e+06
-2.23867e+06
-1.96707e+06
-2.25186e+06
-1.56707e+06
-1.52833e+06
-1.59674e+06
-3.44798e+06
-3.44829e+06
-1.83538e+06
-1.67896e+06
-1.59308e+07
-1.5928e+07
3.05184e+06
-3.62593e+06
5.58893e+06
-4.52267e+06
-4.5224e+06
-7.74232e+06
-7.74267e+06
2.89209e+06
-1.30938e+07
-1.30971e+07
-1.79277e+06
-2.22121e+06
-3.63591e+06
-3.91904e+06
-2.2597e+06
-2.25942e+06
-3.66151e+06
-2.32321e+06
-2.32557e+06
-190374
-190304
3.44701e+06
3.29193e+06
-2.59604e+07
-2.59571e+07
-1.87195e+07
-1.87232e+07
-500483
-1.31693e+06
-1.79527e+07
-1.79496e+07
-1.44584e+06
3.12734e+06
-2.09147e+07
-2.09113e+07
-1.95104e+06
-1.95072e+06
-5.93376e+06
-6.30226e+06
-6.30375e+06
-65029.6
-65034.5
-5.93654e+06
-2.89282e+06
-1.82616e+06
-2.15202e+06
-2.52118e+06
-2.52042e+06
-553837
4.01178e+06
-2.88438e+06
-548350
1.42472e+06
1.68574e+06
-2.96774e+06
174481
174530
4.11235e+06
3.90851e+06
-1.72552e+06
-9477.19
-14100.9
-3.41117e+06
446503
-135844
-136124
4.82837e+06
3.74335e+06
-3.3334e+06
-1.59816e+07
-1.59787e+07
-5.11469e+06
-1.33883e+06
-5.61532e+06
-1.25073e+06
-2.70639e+07
-2.70605e+07
-1.72027e+06
5.52322e+06
-5.07537e+06
-2.88314e+06
-2.81892e+06
-5.61687e+06
-2.10844e+06
-2.02742e+07
-2.0271e+07
-1.31003e+06
-1.31029e+06
-1.58761e+06
2.38512e+06
-1.82754e+06
-1.62223e+07
-1.62179e+07
-3.85328e+06
-3.85429e+06
1.00925e+07
-1.50152e+06
-2.97263e+06
-2.97187e+06
-2.74885e+06
-6.22004e+06
-6.22066e+06
-2.5995e+06
-4.05712e+06
-688813
-2.66458e+06
-2.57031e+06
-1.98128e+06
-1.69706e+06
-1.79992e+06
-1.94104e+06
-2.84154e+06
-2.84123e+06
-3.58511e+06
8.54674e+06
-525184
-2.03968e+06
-3.6702e+06
1.21662e+07
2.39183e+06
-3.25801e+06
-3.53385e+06
1.07283e+07
5.11229e+06
5.51345e+06
1.90276e+06
228263
-3.38671e+06
-2.3662e+06
-8.00869e+06
-8.00828e+06
5.34344e+06
-5.94951e+06
-5.94552e+06
-2.49805e+06
-344807
-3.22252e+06
-3.21792e+06
2.75392e+06
-4.76467e+06
-4.76356e+06
6.50529e+06
-2.6544e+06
-4.07249e+06
-6.02694e+06
56080.4
6.0922e+06
398963
2.07237e+06
-3.33268e+06
-2.03353e+06
-1.76461e+07
-1.76431e+07
-2.15443e+06
4.98273e+06
-1.01631e+06
-1.01784e+06
-1.64011e+06
-2.57708e+06
-1.07859e+06
-2.35689e+06
-1.90011e+06
-1.89476e+06
-1.57034e+06
1.5198e+06
-2.92952e+06
-285316
-284764
-466113
-2.04507e+06
1.0177e+07
-2.02884e+06
7.62572e+06
-2.32764e+06
5.62356e+06
-2.95889e+06
-1.34625e+06
-1.34407e+06
-2.10698e+06
-1.44504e+06
8.20305e+06
8.17646e+06
-2.97945e+06
-1.61219e+07
-1.61231e+07
4.47261e+06
-1.44446e+06
-1.92665e+06
-8.3446e+06
-8.34426e+06
-3.28544e+06
1.06739e+07
-3.39501e+06
-4.85993e+06
-4.86095e+06
-636206
1.38148e+06
1.36953e+06
-1.61807e+07
-1.61823e+07
-2.81496e+06
-2.50784e+06
-363133
-362807
2.95954e+06
-1.54709e+06
-3.14578e+06
-1.74088e+06
-1.74057e+06
-3.25944e+06
-2.61555e+07
-2.61527e+07
-3.9971e+06
-3.19849e+06
-761571
-1.16544e+07
2.5042e+06
-3.2635e+06
-1.16573e+07
-590976
409280
-1.36149e+06
-1.75132e+06
-1.75359e+06
1.51478e+06
1.41473e+06
-1.36865e+06
3.68082e+06
-2.60316e+06
-2.09797e+06
-3.50371e+06
-2.51291e+06
2.62583e+06
-2.90873e+06
-3.06688e+06
1.02207e+07
1.479e+06
7.5777e+06
-84418.3
-1.40623e+06
-1.16584e+06
-1.44843e+06
8.76187e+06
-1.82933e+06
-1.95167e+06
-3.20461e+07
-3.20492e+07
1.08051e+07
-4.04343e+06
-1.247e+06
-1.24112e+06
-3.71098e+06
-3.71003e+06
-671985
-2.59613e+06
-1.15707e+06
-4.01606e+06
-4.01777e+06
-2.07508e+06
-2.07492e+06
-3.07359e+06
9.73043e+06
-3.14769e+06
9.82761e+06
-1.92567e+06
1.27274e+07
4.25823e+06
5.35492e+06
-1.2465e+06
-2.29486e+06
-2.29187e+06
2.97936e+06
3.05962e+06
5.96764e+06
-1.69706e+06
-1.16394e+06
-1.16377e+06
1.04605e+07
1.75753e+06
5.02552e+06
-2.30779e+06
-1.38775e+06
-3.13833e+06
-892503
-1.77968e+06
-1.81235e+06
-2.34301e+06
-3.45436e+06
-1.66109e+06
-3.6141e+06
-3.61106e+06
-2.09136e+06
4.6291e+06
-3.49142e+06
-1.61801e+06
-1.12556e+06
-41089.9
-41668.3
5.49258e+06
109244
-5.03463e+06
-5.03469e+06
-6.59229e+06
-6.5929e+06
9.2976e+06
-3.71767e+06
-3.41995e+06
-22246.9
-2.2164e+07
-2.21678e+07
-7.51036e+06
-7.50912e+06
9.31394e+06
-2.17826e+06
-2.17794e+06
-1.09726e+06
-808102
-378954
-158677
-157864
6.08857e+06
7.59258e+06
822922
-1.9944e+06
-1.38113e+07
-1.38156e+07
5.00282e+06
-2.14291e+06
-2.45175e+06
-2.93454e+06
-2.98957e+06
-772636
3.06078e+06
3.06879e+06
-2.40008e+06
-2.40038e+06
-213658
1.14083e+06
1.13677e+06
-4.79207e+06
-4.79301e+06
151070
-2.36641e+06
-1.51101e+06
-2.46427e+06
-9.68496e+06
-9.6852e+06
4.00703e+06
8.57372e+06
-553777
-2.97974e+06
-1.88174e+07
-1.88203e+07
-1.80864e+06
-959763
-418774
-4.37092e+06
-4.37005e+06
-2.27574e+06
1.84695e+06
-2.69137e+06
-4.12528e+06
-2.25235e+07
-2.25201e+07
-2.87014e+06
-3.60039e+06
-3.59879e+06
-2.69829e+06
-858130
-716523
-493567
4.31386e+06
-2.33036e+06
-3.07128e+06
-1.87328e+06
-1.64758e+06
5.91372e+06
3.795e+06
-129389
-128931
-854649
-6.89083e+06
-6.89107e+06
-1.71675e+07
-1.71631e+07
-2.77876e+06
-2.10017e+07
-2.09976e+07
-2.68942e+07
-2.6896e+07
-25113.7
-25113.9
-2.07276e+06
-1.10318e+06
-1.10301e+06
-1.86225e+06
-1.94654e+06
-1.72846e+06
-1.44107e+06
-3.08348e+06
-3.61767e+06
-1.47055e+06
-1.46145e+06
-8.85268e+06
-8.85731e+06
-1.40561e+06
-1.28702e+06
6.00375e+06
-1.02954e+06
-2.02576e+06
-1.74732e+06
-2.14722e+06
1.15297e+07
-1.99347e+06
-3.95618e+06
-3.95723e+06
-1.12269e+06
2.87129e+06
-1.20152e+06
-1.52724e+06
4.21898e+06
6.82407e+06
154839
154609
3.66549e+06
-1.6126e+06
1.22522e+06
1.15082e+06
-2.22904e+06
-2.13561e+06
194199
-766475
-769519
-2.45342e+06
5.23693e+06
67180
-9.32657e+06
323079
197655
-9.33137e+06
-2.29755e+06
-1.84649e+06
1.75312e+06
-2.00577e+06
4.25741e+06
-2.43993e+06
-2.5162e+06
-2.79163e+06
-3.3551e+06
-2.69079e+06
-1.4235e+06
65726
-2.07047e+06
-2.17204e+06
-2.1718e+06
-1.51866e+06
1.07473e+07
3.42223e+06
5.87153e+06
-1.40103e+06
-7.70546e+06
229962
824649
-2.00582e+06
-2.28887e+06
-7.71452e+06
-3.53978e+06
-2.74552e+06
-2.27972e+06
-3.43399e+06
-100893
-250894
-2.26248e+06
-274071
-272148
-1.34237e+06
-1.57638e+07
-1.57667e+07
4.27878e+06
-1.36233e+07
-1.3618e+07
1.12818e+07
-1.75946e+07
-1.75915e+07
-1.66452e+06
-554142
-1.46007e+06
271938
272055
-3.83399e+06
-1.75131e+06
-738951
-1.92361e+06
-1.61247e+07
-1.61199e+07
-5.9261e+06
3.62672e+06
4.97472e+06
-1.79307e+06
-1.7681e+06
-1.7577e+06
-35381.8
-35299.7
4.51379e+06
-2.11545e+06
-2.64568e+07
-2.64535e+07
-6.74303e+06
-6.74066e+06
-1.04176e+06
-1.7284e+06
-1.04798e+06
-6.92908e+06
-6.92553e+06
-3.25719e+06
-238545
-238031
-2.14634e+06
-2.14486e+06
-6.66014e+06
-6.66191e+06
-876528
-1.7664e+06
-1.7661e+06
-1.57534e+07
-1.57548e+07
-2.79062e+06
-2.90182e+06
-6105.79
-810689
5.04123e+06
3.96346e+06
-816280
2.53086e+06
1.42734e+06
-2.5848e+06
-2.7475e+06
-2.39177e+06
-2.08614e+06
-2.08594e+06
1.51923e+06
-2.74431e+07
-2.7445e+07
-9.09735e+06
-9.09546e+06
4.13122e+06
-3.3527e+06
-3.35473e+06
-1.1e+06
-1.09378e+06
-1.82271e+06
-942696
-924087
-3.2658e+06
-408019
-408061
-2.49402e+06
-1.41515e+06
-1.87248e+06
1.11099e+07
2.67863e+06
2.76406e+06
-2.06957e+06
-1.78393e+06
5.26379e+06
-2.98633e+06
14755.9
14731.6
-9.23831e+06
-9.23951e+06
-2.12201e+06
-1.71864e+06
-2.36259e+07
-2.36222e+07
-2.12266e+06
379626
-3.26297e+06
779971
499128
3.75997e+06
3.8e+06
-1.42842e+06
-3.47705e+06
-2.04159e+07
-2.04194e+07
-1.74452e+06
-1.74585e+06
-2.86555e+06
-2.86631e+06
-1.37575e+06
-1.37036e+06
-2.73838e+06
-1.61333e+06
-2.05648e+06
-2.80305e+06
377804
1.00983e+07
-2.191e+06
-2.19267e+06
-2.52396e+06
-1.95107e+06
-2.1386e+06
-1.05467e+07
-1.05495e+07
6.64583e+06
-2.94869e+06
-1.02614e+06
-3.71495e+06
-3.71353e+06
1.86651e+06
1.21776e+07
-2.61544e+06
-2.61616e+06
7.39796e+06
-3.59976e+06
-3.6025e+06
-1.71524e+06
-765616
2.79514e+06
-1.24226e+06
-1.45448e+06
-1.42859e+06
-572060
-265002
-1.89842e+07
-1.89815e+07
-2.63223e+06
-1.99026e+07
-1.99e+07
4.04951e+06
-4.82562e+06
-4.82389e+06
-1.84304e+07
-1.84335e+07
-2.21598e+06
-6.49933e+06
-6.50581e+06
-2.52178e+06
-2.52224e+06
-943382
3.56097e+06
-1.46339e+06
-2.28214e+07
-2.28185e+07
-1.57136e+06
-1.85875e+06
1.17874e+06
1.18576e+06
-3.31254e+06
-2.99092e+07
-2.99051e+07
4.39124e+06
-2.59938e+06
-1.5602e+06
-1.5601e+06
-275193
-273351
-5.38934e+06
-6.96672e+06
-6.96439e+06
-1.23619e+06
-781412
-777381
-4.14822e+06
-4.1492e+06
8.51201e+06
-77719.9
-2.89006e+07
-2.88968e+07
-1.17473e+07
-1.17486e+07
3.10172e+06
7.75515e+06
-7.18339e+06
-7.18271e+06
-1.62545e+06
-109963
-109360
-1.14345e+06
-1.14347e+06
6.1959e+06
-1.03341e+07
-1.03334e+07
-1.53532e+06
-5.96085e+06
-5.96274e+06
1.57352e+06
1.07295e+07
-3.06044e+06
-3.06097e+06
-2.16076e+07
-2.16117e+07
-1.05132e+06
1.0392e+07
-1.12933e+06
7.52857e+06
-2.04438e+06
2.2489e+06
6.0545e+06
4.42478e+06
-3.1535e+06
-3.20219e+06
-3.16953e+06
-3.17036e+06
-1.52297e+06
-1.52273e+06
-1.83682e+06
-2.63652e+06
-3.61325e+06
1.22799e+07
-580399
-2.57519e+06
-1.60091e+06
-1.23599e+06
-2.39108e+06
-2.63964e+06
-2.63791e+06
-2.15631e+07
-2.1566e+07
4.11536e+06
-3.19723e+06
-78392.7
8.3961e+06
9.87004e+06
-1.65535e+06
2.13029e+06
-1.22303e+06
-1.68666e+06
-1.68245e+06
6.50714e+06
-977313
-976892
148233
-2.87841e+07
-2.87879e+07
-1.491e+07
-1.49141e+07
8.91744e+06
-4.43333e+06
-4.43566e+06
-9.66166e+06
-9.66101e+06
-6.77935e+06
-6.77587e+06
-2.62365e+07
-2.62333e+07
-1.32735e+06
860175
-1.5557e+06
-2.30283e+06
-1.82484e+07
-1.82508e+07
-4.71256e+06
-4.71506e+06
-1.30469e+06
-1.25492e+06
1.57952e+06
-1.01972e+06
-1.01958e+06
-2.66243e+06
-2.37439e+06
-2.19235e+06
4.09833e+06
-2.48994e+06
-2.74017e+06
-1.64434e+06
855769
847240
-2.93988e+06
-3.08766e+06
-3.0253e+06
-1.77332e+06
-1.77608e+06
-618801
-1.92896e+06
4.79771e+06
-2.03109e+06
-1.77207e+06
-1.44799e+06
-2.17091e+06
-1.26381e+07
-1.26361e+07
-3.82307e+06
-3.82219e+06
-1.96236e+07
-1.96208e+07
-2.02395e+06
-3.42439e+06
-928765
6.8104e+06
3.29042e+06
-1.31119e+06
-1.52428e+06
-3.43167e+06
365241
-58039.1
-58739.1
-2.84876e+06
-2.85066e+06
-1.56388e+06
6.05782e+06
-2.76226e+06
-2.76443e+06
-2.8322e+07
-2.83185e+07
-822211
-822142
291458
-1.05297e+06
-1.01168e+06
1.45925e+06
1.46928e+06
1.24339e+06
-1.84622e+06
-1.84654e+06
-2.64822e+06
-2.04798e+06
-1.36701e+07
-1.36685e+07
-821586
-915669
-2.01348e+06
-3.48925e+06
-2.79046e+06
-1.80877e+06
3.56092e+06
3.5947e+06
-2.36674e+07
-2.36648e+07
-2.18541e+06
-3.61384e+06
-3.61312e+06
-1.64525e+07
-1.6449e+07
-212193
2.19605e+06
2.24464e+06
-1.34269e+07
-1.34305e+07
2.7012e+06
-1.66677e+06
812431
-700022
-701765
-7.11037e+06
-7.10962e+06
1.25893e+07
594664
-2.58506e+06
-2.58704e+06
-1.38735e+06
-2.3166e+06
-1.07182e+07
-1.07197e+07
-2.82201e+06
-1.2046e+06
-1.3559e+06
-3.19518e+06
-6.89125e+06
-5.06783e+06
-5.06998e+06
5.26522e+06
-5.52819e+06
-5.5262e+06
1.09598e+07
282521
-6.89441e+06
-2.2933e+06
-2.29487e+06
-1.49433e+06
-50286.7
2.9928e+06
-3.72275e+06
-3.72224e+06
4.60207e+06
-2.8639e+06
-2.23439e+06
-2.23363e+06
-538505
-1.90802e+06
-1.86952e+06
-5.39115e+06
-2.38432e+06
-2.35562e+06
-2.23764e+06
-2.23618e+06
1.02826e+07
-700698
-1.85391e+06
-1.5243e+06
-2.2513e+06
2.07955e+06
-470866
-3.41255e+06
5.55394e+06
-1.58568e+06
-997092
-2.55547e+07
-2.55524e+07
-6.62736e+06
-2.03627e+06
-2.03798e+06
-1.21539e+07
-1.21485e+07
-501333
-1.56372e+07
-1.56422e+07
-1.59254e+06
108700
-3.34141e+06
-468118
-467300
5.50035e+06
-3.56761e+06
-3.56874e+06
760756
-2.29112e+06
1.37784e+06
1.16683e+07
-1.83596e+06
-3.12184e+06
-5.98626e+06
-5.99407e+06
-2.31548e+07
-2.31517e+07
-2.43023e+06
-3.64267e+06
-3.9074e+06
-7.66541e+06
-7.66941e+06
-3.52542e+06
-4.75681e+06
-4.7569e+06
-1.37166e+06
-1.99878e+06
-1.99894e+06
-2.88183e+06
2.17706e+06
-2.74635e+06
-2.49888e+06
-2.51099e+06
-1.34001e+06
-1.33679e+06
-38189.8
-3.11715e+06
-2.26662e+06
-2.13049e+06
-2.45181e+06
-2.61216e+06
-2.43154e+06
-2.78755e+06
-1.57302e+06
1.02028e+07
-1.38043e+06
-1.37314e+06
4.98737e+06
-1.23942e+07
-1.23921e+07
-1.35144e+06
-1.33818e+06
-1.41351e+06
49752.9
-1.50325e+06
794056
3.73656e+06
4.00195e+06
-523074
-2.08981e+06
-2.16359e+06
3.8136e+06
-2.52406e+06
-3.64167e+06
-2.63085e+06
-2.7203e+06
-2.71936e+06
38196.5
39757.4
-93740.7
-59609.1
7.65744e+06
-2.03995e+06
-2.04197e+06
-3.16368e+06
-2.32125e+06
-1.2401e+06
-5.70636e+06
-5.70855e+06
1.09308e+06
-2.59237e+06
-1.92007e+06
-2.9745e+06
-965708
7005.58
6956.74
-1.35428e+06
-4.19632e+06
-1.91275e+06
1.59219e+06
-2.27103e+06
-9.42853e+06
-9.42773e+06
-4.28689e+06
-4.29041e+06
5.54292e+06
-1.33802e+06
-1.50122e+06
-1.50099e+06
-2.44441e+06
-2.44741e+06
-1.99036e+06
8.4117e+06
-2.97643e+06
-2.07806e+06
-3.45483e+06
-3.0508e+06
-1.65729e+06
-1.48727e+06
-1.60729e+06
-2.66022e+07
-2.66055e+07
-2.39097e+06
-1.78007e+07
-1.77976e+07
-676838
-668803
260405
-817046
-860096
2.50501e+06
9.83799e+06
-3.00156e+06
8.88163e+06
322020
-5.25749e+06
-5.25721e+06
3.25777e+06
320463
-2.91661e+06
-2.91796e+06
-643538
-3.592e+06
-1.57448e+06
-2.4709e+06
-2.05494e+07
-2.05469e+07
-1.38799e+06
-1.78427e+07
-1.78467e+07
597019
-2.71513e+06
1.90892e+06
-1.73349e+06
-1.9968e+06
-1.99505e+06
-903251
-1.21829e+06
-2.74652e+06
-1.46234e+06
-1.46261e+06
-3.03305e+06
-3.02855e+06
3.38818e+06
3.46379e+06
-2.31506e+06
9.47849e+06
-2.30837e+06
-2.84353e+06
-2.64423e+06
-2.56234e+06
-1.95822e+06
-3.30471e+06
-3.99001e+06
-3.99266e+06
-3.18895e+06
19075.2
-4.23899e+06
-4.24111e+06
-2.17979e+06
1.09285e+06
-1.7883e+06
4.98129e+06
1.12496e+06
-1.36283e+06
-1.36305e+06
-1.96364e+06
-409741
-5.73348e+06
-5.73863e+06
4.24424e+06
-1.79372e+06
-2.44713e+06
-48785
-48139.4
2.25053e+06
-1.49222e+07
-1.49171e+07
-3.44334e+06
6.524e+06
-1.91684e+06
-1.22375e+06
-1.2787e+06
1.27716e+06
18809.4
-333023
-333961
-3.69954e+06
-2.74666e+06
-1.6067e+06
-283587
-282737
1.84845e+06
-2.73394e+06
-2.73535e+06
-1.78144e+07
-1.78111e+07
-2.59698e+07
-2.5973e+07
-2.88742e+06
-1.84564e+06
-1.84209e+06
-2.96749e+06
-3.78802e+06
7.95124e+06
-2.21022e+06
3.76583e+06
5.66326e+06
-1.09152e+06
-1.06567e+06
-3.94109e+06
-3.94223e+06
-3.07173e+06
4.79047e+06
290642
-530002
-1.95614e+06
473821
-1.20728e+06
-2.62205e+06
-2.72671e+07
-2.72634e+07
-1.47567e+06
-3.17844e+06
-2.81116e+06
-2.81114e+06
-2.45789e+06
-430818
1.51723e+06
-2.94453e+06
21421.3
21123
-3.08922e+06
-5.2316e+06
-5.23258e+06
5.3225e+06
-1.25003e+07
-1.25044e+07
-962174
450394
-2.62258e+06
451649
375979
391343
-1.3237e+06
8.42438e+06
-1.30332e+06
-2.96828e+06
-1.31172e+07
-1.31216e+07
-885598
-645875
739968
-1.17213e+06
-1.75534e+07
-1.75555e+07
-1.93517e+07
-1.93485e+07
-383572
-1.50362e+06
-3.23241e+06
-1.42181e+06
-1.42448e+06
-747860
-747833
-2.02589e+06
-3.89914e+06
-3.65627e+06
-169108
-386755
-881752
-3.59317e+06
-3.59502e+06
-460463
-1.8699e+06
2.60534e+06
-1.04201e+06
-965822
2.92345e+06
-3.09022e+06
-3.08886e+06
-1.6941e+06
-2.18107e+06
-2.1813e+06
-446701
-444765
-1.6787e+06
4.24087e+06
-881197
-2.96086e+06
-1.96207e+06
-1.96401e+06
-2.09197e+06
-6.65686e+06
-880138
4.89696e+06
-2.90037e+06
-2.9862e+06
-2.98662e+06
-1.38867e+06
-3.15267e+07
-3.153e+07
-1.59139e+07
-1.5916e+07
-881858
-93354.5
-92825.2
-1.48089e+06
-1.96695e+06
-1.96709e+06
-2.2904e+06
-2.29155e+06
-6.63053e+06
-6.62946e+06
-2.65957e+06
4.4951e+06
-2.95407e+06
-2.95337e+06
-2.74488e+06
-3.58915e+06
-3.60905e+06
-3.60747e+06
-2.21929e+06
-1.1481e+06
-7.74892e+06
-7.7459e+06
-3.85215e+06
-7.82378e+06
-7.82351e+06
-1.23812e+06
7.03143e+06
-2.15484e+06
-2.56631e+07
-2.56597e+07
-279945
-2.51094e+06
-2.50966e+06
-1.06347e+07
-1.06362e+07
-4.33857e+06
-4.33938e+06
5.51571e+06
-2.13528e+06
-5.03493e+06
-5.03473e+06
-3.16525e+06
-3.16656e+06
862671
-4.58126e+06
6.46538e+06
-2.0956e+06
-600078
1.51227e+06
-2.62423e+07
-2.62402e+07
-5.01015e+06
-5.00858e+06
-1.58893e+07
-1.58907e+07
-3.07801e+06
-1.46761e+06
-1.30428e+06
-4.41434e+06
-4.41316e+06
3.23831e+06
-605019
-607691
-3.20602e+06
-1.81538e+06
-1.83554e+06
-1.8319e+06
943943
-1.89217e+06
-2.18097e+06
-1.23733e+06
-1.23736e+06
-2.3141e+06
2.35231e+06
2.37438e+06
-2.71789e+06
-1.79605e+06
-2.30607e+06
-1.80752e+06
-1.57199e+07
-1.57209e+07
-1.88788e+06
3.82134e+06
-8472.93
-2.27863e+07
-2.27895e+07
-2.11165e+06
-4.50739e+06
-4.50579e+06
-4.02682e+06
5.94281e+06
-2.25997e+06
-1.64478e+06
6.40904e+06
-2.97117e+06
-2.41979e+06
-2.42027e+06
-2.26494e+06
-2.26539e+06
-961553
-6.0248e+06
-6.02585e+06
-3.96426e+06
-2.86321e+06
-3.96934e+06
-7.43993e+06
-7.44595e+06
-971834
6.57321e+06
-3.00963e+06
-623837
-5.26049e+06
8.75174e+06
-1.34438e+06
-1.34427e+06
8.83679e+06
1.46869e+06
-2.24339e+06
-990986
-1.17669e+06
-1.61808e+06
-1.23862e+06
1.04871e+07
-2.05302e+06
-2.99417e+06
-6.07129e+06
-6.07221e+06
-2.67773e+06
-2.67806e+06
-2.00592e+06
-1.93972e+06
-1.94264e+06
-2.14045e+06
9.49232e+06
-5.2683e+06
1.1509e+06
5.18251e+06
-1.68412e+06
2.56145e+06
-1.34811e+06
-3.67297e+06
-3.67338e+06
9.29818e+06
1.17205e+07
225347
-2.10457e+07
-2.10424e+07
-1.63438e+06
-39577.1
-1.5222e+06
-2.57565e+06
-2.54374e+06
-399564
4.63064e+06
-2.01939e+06
7.01944e+06
1.2147e+07
-1.5802e+06
-1.58033e+06
-2.11594e+06
-2.12805e+06
-2.09641e+06
-1.06112e+06
-7.33033e+06
-7.32922e+06
-225040
1.01935e+07
8.79892e+06
-3.20742e+06
-3.20844e+06
-1.70141e+06
-2.3522e+06
-67321.1
-1.00933e+06
4.88054e+06
-1.42881e+06
6.7865e+06
-2.12917e+06
-1.85564e+06
-1.55521e+06
-1.95497e+06
-2.21185e+06
224781
-2.35104e+06
168544
168544
-1.78317e+06
-1.78168e+06
-562163
-328624
-4.46885e+06
-1.79014e+06
-3.08164e+06
-1.56846e+07
-1.56868e+07
-992518
-2.09192e+06
-1.84932e+06
552270
3.23583e+06
3.2761e+06
-3.54396e+06
-1.87949e+06
-1.86856e+06
-673053
-674820
-5.03503e+06
-5.03506e+06
-1.4057e+06
-3.68362e+06
7.54793e+06
1.06783e+07
-1.60635e+06
5.46598e+06
-86750.1
112761
-1.06623e+06
-2.53019e+06
-3.5449e+06
7.02084e+06
-313612
328157
-1.99585e+06
-2.00045e+06
-2.88014e+06
8.43753e+06
1.77011e+06
-2.85147e+06
-2.85083e+06
-4.45335e+06
-4.45189e+06
-246174
-2.47399e+06
-2.56306e+06
-1.19993e+06
-1.22194e+06
-524669
-2.9195e+06
-2.51871e+06
-2.96014e+06
-2.77895e+06
-2.60601e+06
-1.76716e+06
1.13676e+07
-1.24941e+06
-1.2381e+06
-2.16515e+06
293095
-1.32393e+06
-2.42584e+06
730755
755852
-101978
-1.70773e+06
-1.7072e+06
-828064
-823965
-3.63715e+06
-4.4712e+06
-4.46949e+06
-3.53544e+06
-2.32943e+06
1.24215e+07
5.87156e+06
-140274
-92680.1
-3.186e+06
-3.18751e+06
-3.30611e+06
4.2888e+06
189154
-1.78338e+07
-1.78294e+07
-5.57894e+06
-5.57574e+06
5.12449e+06
70978.6
59545.9
-246865
-1.39035e+06
-3.62587e+06
-3.62654e+06
-435921
-2.38451e+06
-3.05452e+06
2.56202e+06
-2292.01
-2256.42
-2.31819e+06
-2.31913e+06
-1.92359e+06
-1.92571e+06
-4.37996e+06
-4.38079e+06
-1.92334e+06
-1.88555e+06
-1.88861e+06
-1.14986e+06
-281785
-3.37687e+06
-2.23811e+06
-2.23739e+06
-814920
-2.53585e+06
2.82126e+06
1.08718e+07
-2.23452e+06
-2.42417e+07
-2.42449e+07
-1.89806e+06
-3.69219e+06
-1.69818e+06
-2.07894e+07
-2.07935e+07
-2.17003e+06
-1.40488e+06
-1.40669e+06
-569161
-567865
164.467
154.586
496228
4.2248e+06
3.71745e+06
931915
3.9398e+06
-2.45701e+06
506246
-628414
-4.05558e+06
-4.05501e+06
1.2119e+07
-1.57867e+06
-1.5784e+06
-1.51481e+06
-1.87582e+06
-1.87285e+06
-466315
-1.32277e+06
-6.12434e+06
-6.12656e+06
-471104
-2.77352e+06
-445175
7.73089e+06
-1.44577e+06
-3.46823e+06
-3.46969e+06
-3.93207e+06
-3.93241e+06
1.02017e+07
-2.34702e+06
-1.44226e+06
-3.36449e+06
-1.80293e+06
-3.0552e+06
-3.11073e+06
6.07755e+06
-1.35595e+06
-1.35614e+06
-5.4344e+06
-5.43672e+06
-2.74475e+06
-111982
-103449
73810.2
-1.9896e+06
-1.81879e+06
-2.16084e+06
-1.27705e+06
-1.01894e+06
-83190.3
-3.46517e+06
-2.10092e+06
1.04557e+07
3.88721e+06
-1.28231e+06
-2.47392e+06
-2.47331e+06
793395
-1.76474e+07
-1.76494e+07
-1.95003e+06
-1.94748e+06
3.98666e+06
-2.47197e+06
-102686
-4.80746e+06
-1.87425e+06
-2.70954e+06
-2.70899e+06
-2.14423e+06
-1.78215e+06
7.71273e+06
-1.80355e+06
-325424
-323437
-1.00935e+06
-2.41657e+06
-3.07556e+06
-3.07204e+06
-1.59927e+07
-1.59955e+07
-7.66068e+06
-7.66635e+06
-6.00259e+06
-2.70116e+06
-2.64894e+06
-6.01417e+06
-2.55373e+06
958029
940916
-2.6784e+06
-1.1856e+07
-1.18588e+07
1.95401e+06
-2.22004e+06
-2.23009e+06
-2.6133e+06
7.58413e+06