/*--------------------------------*- C++ -*----------------------------------*\
| =========                 |                                                 |
| \\      /  F ield         | OpenFOAM: The Open Source CFD Toolbox           |
|  \\    /   O peration     | Version:  v3.0+                                 |
|   \\  /    A nd           | Web:      www.OpenFOAM.com                      |
|    \\/     M anipulation  |                                                 |
\*---------------------------------------------------------------------------*/
FoamFile
{
    version     2.0;
    format      ascii;
    class       volScalarField;
    location    "10000";
    object      sigmaEq;
}
// * * * * * * * * * * * * * * * * * * * * * * * * * * * * * * * * * * * * * //

dimensions      [1 -1 -2 0 0 0 0];

internalField   nonuniform List<scalar> 
27023
(
2.98575e+07
2.98628e+07
2.18386e+07
2.18353e+07
2.86741e+07
2.86794e+07
9.66846e+07
9.66792e+07
1.16002e+07
1.16027e+07
6.88493e+07
6.88381e+07
2.87463e+06
2.88018e+06
2.78941e+07
2.06559e+07
1.96708e+07
5.94314e+07
5.94335e+07
4.26884e+07
4.26911e+07
9.60515e+07
9.6046e+07
4.41494e+07
4.41511e+07
7.17311e+06
3.15514e+07
4.43856e+06
3.0642e+07
3.41537e+07
1.54039e+07
4.28158e+07
4.2818e+07
4.51123e+07
2.73498e+07
3.50421e+07
3.74875e+07
3.74827e+07
1.14249e+07
1.14275e+07
2.19278e+07
2.19312e+07
2.28672e+07
2.88304e+07
2.88356e+07
5.86976e+07
5.86956e+07
4.26972e+07
4.26984e+07
3.14782e+07
4.12259e+07
4.12276e+07
4.40639e+07
543854
541225
4.94739e+07
2.07222e+07
3.69518e+07
1.76046e+07
2.26147e+07
2.26117e+07
3.05929e+07
5.73532e+06
5.7886e+06
2.27543e+07
1.34891e+07
3.83903e+07
8.96685e+06
3.26718e+07
2.1666e+07
3.56776e+07
3.56725e+07
6.27346e+07
6.27336e+07
8.97044e+07
8.97027e+07
996938
995254
1.05109e+08
1.05112e+08
2.35937e+07
6.64627e+07
6.64515e+07
6.083e+07
6.08292e+07
9.53351e+07
9.53366e+07
3.82972e+07
6.46808e+06
1.85387e+07
1.7572e+07
3.09503e+07
3.09448e+07
2.353e+07
8.52636e+06
4.45584e+07
4.45516e+07
2.35753e+07
1.84335e+07
6.22151e+06
2.90942e+07
1.80148e+07
1.8074e+07
7.54408e+07
7.54374e+07
4.92126e+06
8.58915e+07
8.58877e+07
4.86631e+07
3.42827e+07
2.21208e+07
8.56061e+07
8.56026e+07
4.39739e+07
4.39752e+07
9.04217e+07
9.042e+07
2.34148e+07
3.37983e+07
2.49021e+07
2.16675e+07
3.39028e+06
8.29999e+07
8.30106e+07
1.06028e+08
1.06023e+08
3.01029e+07
3.00974e+07
7.65895e+07
7.65861e+07
1.6397e+07
2.9781e+06
2.99534e+06
1.43547e+07
1.90413e+07
9.54222e+07
9.54236e+07
1.05848e+07
6.05176e+07
6.05155e+07
9.03287e+07
9.03356e+07
8.74214e+06
9.31866e+07
9.31811e+07
1.4579e+07
1.71382e+07
4.04059e+07
3.92401e+07
4.9429e+07
4.94229e+07
5.23749e+07
5.23709e+07
2.77988e+07
2.69921e+07
2.95674e+07
2.93131e+07
2.7825e+07
5.97821e+07
5.978e+07
5.5788e+07
2.35612e+07
4.80518e+07
6.50394e+06
6.10228e+07
6.10278e+07
8.15115e+07
8.15188e+07
1.73345e+07
5.32393e+06
8.77499e+06
1.05844e+08
1.05847e+08
2.04092e+07
1.98791e+07
3.04028e+07
4.29732e+06
7.9265e+06
2.09025e+07
1.18068e+07
3.93809e+07
8.64212e+07
8.64278e+07
3.06451e+07
5.50528e+07
5.84728e+07
4.18376e+07
4.18305e+07
5.04916e+07
1.88411e+07
8.16125e+07
8.16199e+07
2.32583e+07
6.40426e+06
1.05768e+08
1.05763e+08
6.2289e+07
7.96294e+07
7.96389e+07
3.15634e+07
2.96511e+07
3.28541e+07
8.80662e+07
8.80646e+07
2.7359e+07
2.73643e+07
2.09461e+07
6.13734e+07
8.77615e+07
8.77598e+07
343744
342105
2.47226e+07
2.23156e+07
1.3377e+07
1.33743e+07
2.69503e+07
6.62046e+06
9.03316e+06
9.3479e+07
9.34811e+07
1.65137e+07
8.31853e+07
8.31961e+07
2.83976e+07
8.12066e+07
8.12043e+07
6.31663e+07
6.31654e+07
5.86671e+06
5.87078e+06
6.91359e+06
8.38332e+07
8.38309e+07
5.66661e+07
8.22101e+07
8.22082e+07
9.10316e+07
3.40907e+07
1.03461e+08
1.03467e+08
3.28039e+07
5.86109e+07
5.79536e+07
4.5847e+07
2.51711e+07
6.88912e+06
2.97014e+07
4.84127e+07
4.48919e+07
9.57245e+07
9.57279e+07
2.17586e+07
1.9694e+07
6.17934e+07
6.23916e+07
7.51863e+07
5.71273e+07
4.82659e+07
4.82644e+07
2.21244e+07
1.1564e+07
5.25446e+07
8.44676e+07
8.44657e+07
9.28091e+07
9.28036e+07
7.50339e+06
1.95259e+07
7.88037e+07
7.87935e+07
3.62468e+07
2.0713e+07
3.99174e+07
9.77087e+06
7.18077e+06
6.12602e+07
6.12655e+07
4.85984e+07
4.86052e+07
4.24069e+07
5.16814e+07
1.1893e+07
1.14925e+07
764302
767811
2.17058e+07
2.67177e+07
2.34774e+07
3.93596e+07
3.71773e+06
2.10414e+07
7.82697e+07
7.8272e+07
9.39644e+07
9.3966e+07
4.58643e+07
6.07864e+07
8.80359e+07
8.80375e+07
3.22203e+06
2.05808e+07
7.90435e+07
7.90486e+07
1.44425e+07
1.74628e+07
1.7451e+07
2.66218e+07
3.06917e+07
9.21354e+06
3.46604e+06
453225
451563
6.96082e+06
6.96634e+06
4.13198e+07
4.33634e+07
4.33667e+07
1.2806e+06
3.01964e+07
4.52297e+06
4.54136e+06
3.29668e+07
2.72478e+07
2.21798e+07
3.15243e+07
7.14716e+07
1.04386e+07
3.78816e+07
4.59344e+07
1.87769e+07
4.59797e+07
8.18843e+07
8.55669e+06
3.47722e+07
4.37024e+07
4.37079e+07
1.51631e+07
2.06312e+07
7.30126e+07
7.30101e+07
6.03532e+07
6.06474e+07
322248
320710
3.08139e+07
3.33771e+07
3.33715e+07
2.59853e+07
1.20052e+07
4.61992e+07
4.62602e+07
8.64885e+07
8.64863e+07
141880
140948
2.29421e+07
1.00454e+08
1.00457e+08
6.53141e+06
3.73482e+07
8.50473e+07
8.5049e+07
9.25595e+07
9.25693e+07
1.84269e+07
3.76122e+07
1.97044e+07
3.61768e+07
3.61817e+07
1.00174e+08
1.00176e+08
2.32106e+07
5.67728e+07
2.22738e+07
5.81177e+07
5.73383e+07
3.04672e+07
3.77451e+07
3.45887e+07
2.90319e+07
3.45819e+07
9.8262e+07
9.82569e+07
2.83112e+07
1.14083e+07
1.6734e+07
5.92619e+07
4.26478e+07
8.46811e+06
2.91654e+07
1.20158e+07
3.73271e+07
7.81127e+06
2.05084e+07
1.06268e+07
3.66253e+07
1.98817e+07
8.39836e+07
3.9352e+07
6.24565e+07
6.24558e+07
2.75498e+07
2.21588e+07
1.24468e+07
3.648e+07
3.64846e+07
2.91389e+06
1.99295e+07
4.03957e+07
2.66374e+06
4.03185e+07
1.02794e+06
1.0232e+06
1.7846e+07
4.89418e+07
3.46992e+07
5.9874e+07
3.26284e+07
4.22654e+07
1.77e+07
5.31226e+07
1.94623e+07
8.6694e+06
5.17676e+06
8.02837e+07
8.54129e+07
8.54146e+07
7.4227e+07
9.32956e+06
5.82773e+07
2.56559e+07
8.21641e+07
8.21623e+07
5.44256e+07
5.4426e+07
5.97286e+07
1.02864e+07
1.53425e+07
1.53442e+07
7.54925e+07
7.54642e+07
5.07521e+07
5.07499e+07
477171
479379
1.77636e+07
1.40763e+07
4.73843e+07
1.91714e+07
2.05716e+07
8.28196e+07
8.28303e+07
8.25608e+07
8.25711e+07
5.19102e+07
5.19145e+07
5.41607e+07
5.41545e+07
1.32719e+07
7.34225e+06
1.12982e+07
4.58592e+07
2.04438e+07
5.57372e+07
1.95128e+07
1.0326e+08
1.03266e+08
5.0308e+07
2.56096e+07
1.38709e+07
6.76433e+07
5.80018e+07
3.54425e+07
1.33274e+07
7.88319e+07
7.88295e+07
2.32519e+07
2.31417e+07
1.93479e+07
1.93427e+07
8.29397e+07
8.29374e+07
2.95188e+06
1.5008e+07
1.29165e+07
2.19572e+07
8.15439e+07
1.08909e+07
6.96173e+07
6.96285e+07
3.27145e+07
3.79295e+07
2.76726e+06
4.38788e+07
4.38821e+07
3.66755e+07
3.667e+07
2.92791e+07
6.98785e+07
4.06919e+07
2.97214e+07
2.97233e+07
4.53494e+07
2.03666e+07
3.74376e+07
3.74386e+07
3.0994e+07
9.92841e+07
9.92722e+07
7.07166e+07
7.07059e+07
4.16892e+07
7.32574e+07
7.32649e+07
2.3575e+07
3.34468e+07
7.74714e+07
7.74695e+07
5.98684e+07
8.64845e+07
8.64862e+07
5.0767e+07
7.42169e+07
7.42192e+07
4.8716e+07
4.87226e+07
1.12906e+07
6.66206e+07
6.66143e+07
4.01936e+07
9.03553e+06
9.27276e+06
1.26603e+07
5.19038e+07
5.19064e+07
9.5672e+07
9.56749e+07
3.67519e+07
6.19241e+07
3.04549e+07
4.55035e+06
3.7142e+07
3.43034e+07
2.18708e+07
1.52974e+07
1.52957e+07
7.16494e+07
9.43567e+07
9.43584e+07
3.66927e+07
3.84707e+06
7.41065e+07
7.41089e+07
3.60116e+07
4.83179e+07
4.83443e+07
2.46195e+06
1.09212e+07
1.49377e+07
2.97727e+07
3.13159e+07
3.6317e+07
3.632e+07
4.34285e+07
2.14579e+07
6.74556e+07
6.74534e+07
1.63782e+07
4.22288e+07
4.22252e+07
1.28937e+07
4.251e+07
4.25043e+07
7.68004e+07
7.68093e+07
4.96111e+07
4.96172e+07
4.85635e+07
2.8448e+07
2.84016e+07
4.76478e+07
5.13075e+07
5.13138e+07
3.39543e+07
2.10309e+07
1.67151e+07
5.05714e+07
2.10731e+07
1.00527e+07
2.49257e+07
7.98366e+07
4.12497e+07
4.12485e+07
3.76682e+07
4.22073e+07
4.22084e+07
3.57968e+07
5.97995e+07
5.98e+07
1.26143e+07
6.60486e+06
4.295e+07
4.2948e+07
8.06157e+07
8.06138e+07
6.18383e+07
2.13634e+07
3.2998e+07
6.43173e+07
6.43154e+07
9.1041e+07
9.10389e+07
3.0291e+07
2.33773e+07
1.16972e+07
1.20907e+07
2.97474e+07
2.97345e+07
3.72304e+07
220764
401103
403035
221841
2.30828e+07
2.58203e+06
2.58657e+06
4.75916e+07
4.75978e+07
2.96219e+07
2.96273e+07
4.32981e+07
4.32924e+07
1.43986e+07
5.33332e+07
5.33341e+07
4.76675e+07
2.38838e+07
4.97996e+07
4.9798e+07
2.87124e+07
5.9947e+07
5.99456e+07
3.76609e+07
2.70762e+07
5.83707e+07
4.74859e+07
4.74918e+07
5.74577e+07
7.08976e+06
6.00487e+06
2.8339e+07
7.65602e+07
7.65626e+07
2.23811e+07
4.1164e+07
9.99001e+07
9.9903e+07
504924
507216
5.11752e+07
5.11803e+07
4.46212e+07
7.7984e+06
1.02084e+08
1.02082e+08
2.66419e+07
4.14711e+07
1.52262e+07
2.08275e+07
3.58777e+07
3.29064e+07
1.90288e+07
3.23799e+06
1.3186e+07
5.60061e+07
3.35812e+07
5.25989e+07
5.01477e+07
2.68938e+07
2.23413e+07
577033
576009
5.95333e+07
5.95326e+07
3.58541e+07
3.28013e+06
2.30084e+07
8.63709e+06
4.61301e+07
4.94639e+07
4.12895e+07
5.78185e+06
3.17382e+07
3.53028e+07
1.30601e+07
2.68969e+07
2.68907e+07
3.71476e+07
6.48954e+07
8.09202e+06
3.27877e+07
7.87704e+07
7.8768e+07
8.87303e+07
8.87319e+07
515770
513216
5.42942e+06
1.83823e+07
2.51672e+07
9.92516e+06
3.79494e+07
3.79405e+07
2.80184e+07
1.2249e+07
1.22524e+07
9.36304e+07
9.36325e+07
7.38061e+07
6.85517e+07
6.85498e+07
2.18212e+07
5.87845e+07
3.69836e+07
2.23554e+07
5.83647e+07
7.50209e+06
7.67918e+07
7.67899e+07
3.15811e+07
8.29955e+06
9.21761e+07
9.21663e+07
3.11918e+07
8.36117e+07
2.35137e+07
8.36145e+07
2.30482e+07
2.30577e+07
4.21158e+07
3.01697e+07
4.44266e+07
1.9827e+07
4.42524e+07
1.89052e+07
7.76847e+07
1.34119e+07
2.84421e+07
2.84411e+07
8.84796e+07
8.84813e+07
2.28155e+07
6.764e+06
7.4831e+07
7.48334e+07
4.85727e+07
4.04965e+07
3.35725e+07
1.48271e+07
3.67679e+07
3.34097e+07
3.34041e+07
1.30111e+07
3.92707e+07
3.9274e+07
8.73615e+07
8.73633e+07
2.27345e+06
3.36957e+07
7.18708e+06
7.76273e+07
6.34872e+07
6.34762e+07
3.34384e+07
1.11818e+07
2.44361e+07
5.26959e+07
2.19276e+07
2.89337e+07
1.36831e+07
3.09376e+07
3.71106e+07
8.90896e+07
8.90878e+07
7.17049e+07
7.16939e+07
5.84745e+07
5.7488e+07
1.24541e+07
1.6455e+07
8.63335e+07
8.63316e+07
6.096e+07
5.54169e+07
3.16645e+06
2.28192e+07
7.13826e+06
6.19755e+06
6.19715e+06
2.29055e+07
9.51723e+06
9.41948e+07
9.41883e+07
5.67003e+06
2.59542e+07
1.11517e+07
1.04138e+08
1.04136e+08
3.09457e+07
3.09461e+07
3.34808e+07
2.55957e+07
2.56018e+07
1.35663e+07
7.01931e+06
7.05945e+06
8.95426e+06
8.03961e+07
8.03943e+07
1.33872e+07
4.32457e+07
4.32488e+07
9.06712e+07
9.06696e+07
2.75645e+07
2.72027e+07
5.55918e+07
5.55856e+07
9.12361e+07
9.12444e+07
9.78456e+06
5.70067e+07
9.38343e+07
9.38269e+07
5.97838e+07
6.64937e+06
5.02162e+07
5.02108e+07
7.11848e+07
7.11828e+07
4.66226e+07
7.71883e+07
7.71907e+07
9.9052e+07
9.90537e+07
4.66183e+07
2.47627e+07
3.51665e+07
1.67787e+07
6.22301e+07
6.2228e+07
7.98274e+07
8.2276e+06
7.23608e+06
7.98274e+07
2.25334e+07
3.62274e+07
3.56459e+07
3.92567e+07
3.92593e+07
7.17308e+06
1.20706e+07
4.30194e+07
6.3628e+07
6.36507e+07
2.56002e+07
2.72255e+06
705774
706625
2.9533e+07
3.30249e+07
2.99403e+07
9.21839e+07
9.21778e+07
4.89498e+07
4.39997e+07
4.82668e+07
2.77076e+07
5.56099e+07
5.56032e+07
5.71274e+07
2.11604e+07
4.89791e+07
3.17719e+07
3.19012e+07
4.826e+07
5.29407e+07
5.07389e+07
5.07339e+07
7.89856e+07
7.89875e+07
5.15464e+07
1.68962e+07
3.35188e+07
7.33083e+07
7.32981e+07
7.01722e+07
7.01744e+07
1.74822e+07
2.77047e+07
6.26759e+07
6.26738e+07
3.71466e+07
1.14946e+07
1.14948e+07
2.91399e+07
2.92117e+07
7.99847e+07
4.83442e+07
5.07963e+07
6.04594e+07
3.1964e+07
3.39444e+07
1.21971e+07
9.09501e+07
9.09481e+07
7.79805e+06
1.48238e+07
1.5323e+07
3.53774e+07
1.65269e+07
2.25303e+07
6.00403e+06
3.42307e+07
2.77044e+07
1.86857e+07
1.45382e+07
2.9797e+07
2.35116e+07
7.31158e+07
1.92706e+07
1.90271e+07
1.5996e+07
1.59945e+07
2.91962e+07
1.28664e+07
1.28619e+07
2.46651e+07
1.2941e+07
5.35039e+07
5.35059e+07
3.09673e+07
9.76616e+06
9.76526e+06
2.627e+07
1.63311e+07
2.91951e+07
3.69183e+07
3.97445e+07
2.76239e+07
8.49061e+07
3.09738e+07
2.90808e+07
4.79824e+07
3.22886e+07
3.22831e+07
1.17573e+07
1.35575e+07
3.104e+06
3.10749e+06
4.25832e+07
4.74224e+06
3.49412e+07
2.61532e+07
3.27928e+07
3.27843e+07
5.90673e+07
1.0199e+07
3.08381e+07
1.55311e+06
1.5529e+06
3.32801e+07
2.32026e+07
1.7658e+07
5.31243e+06
1.99006e+07
5.80138e+07
2.82376e+07
4.37647e+07
3.41618e+07
3.41585e+07
6.7799e+07
5.26747e+07
1.4226e+07
1.53902e+07
3.97446e+07
6.12941e+07
6.13046e+07
8.03272e+06
2.53496e+07
6.51796e+07
1.65898e+07
1.65886e+07
3.50556e+07
2.37018e+07
3.57775e+07
7.89444e+07
7.89467e+07
1.42703e+07
3.81632e+07
3.81402e+07
5.59806e+07
5.59751e+07
2.69609e+07
3.45496e+07
1.00921e+06
1.00994e+06
2.58369e+07
2.87079e+06
1.19345e+07
8.82015e+07
8.81996e+07
1.13752e+07
1.01353e+08
1.01342e+08
9.02671e+06
4.31602e+07
1.32786e+07
6.01753e+07
2.36436e+07
1.05542e+07
6.01878e+07
6.35213e+07
7.02138e+06
2.53768e+07
3.57992e+07
3.57976e+07
3.36998e+07
3.45216e+07
5.68445e+07
2.55876e+07
3.86887e+07
9.16308e+06
8.91002e+06
1.3828e+07
1.94978e+07
5.69807e+06
9.82894e+06
2.26469e+07
8.29044e+06
1.31369e+07
3.74888e+07
2.12157e+07
4.80762e+07
3.56124e+07
2.11069e+07
5.93087e+07
5.5283e+07
6.7601e+07
6.76071e+07
2.13571e+07
8.03104e+06
3.22214e+07
3.22105e+07
6.75947e+07
6.75925e+07
2.36254e+07
1.00697e+07
4.77218e+07
8.12062e+06
8.12199e+06
8.59004e+07
8.58987e+07
7.84068e+06
1.68799e+07
3.11606e+07
1.86946e+07
7.47656e+06
2.20918e+07
1.0025e+07
9.52242e+06
5.8949e+07
5.17847e+07
5.17862e+07
2.99203e+07
2.9989e+07
1.67268e+07
1.40852e+07
8.59714e+07
8.59696e+07
1.92943e+07
1.40782e+07
3.1383e+07
1.32723e+07
5.39466e+07
2.37246e+07
2.11229e+07
1.76384e+07
6.46604e+07
1.04732e+07
2.08725e+07
7.67946e+07
5.40022e+07
5.40032e+07
6.81215e+07
1.32073e+07
3.52565e+07
2.83851e+07
2.95526e+07
7.49679e+07
7.49123e+07
2.82763e+07
7.8419e+07
9.62423e+06
9.62257e+06
1.20516e+07
1.20534e+07
2.64555e+07
3.23642e+07
2.95971e+07
8.87687e+07
8.39925e+07
8.40036e+07
1.64296e+07
1.64217e+07
2.253e+07
9.09507e+07
9.09486e+07
3.63801e+07
3.61331e+07
9.18936e+06
371866
370076
2.89518e+07
1.80895e+07
7.25351e+07
1.93587e+07
8.16521e+07
8.16582e+07
3.00472e+07
6.96484e+07
6.919e+07
2.65118e+07
1.75558e+07
2.62969e+06
3.08039e+07
3.08155e+07
8.54296e+07
8.54316e+07
1.51892e+07
3.5709e+07
3.56914e+07
7.85209e+07
7.85233e+07
1.61378e+07
4.3746e+07
3.63382e+07
1.51871e+07
3.23684e+07
3.23656e+07
2.82054e+07
2.07535e+07
6.28342e+07
5.20428e+06
3.61647e+07
3.61697e+07
3.76591e+07
1.72234e+07
7.4402e+07
7.29977e+07
7.29954e+07
5.60205e+07
7.11831e+06
2.87712e+07
2.89502e+07
9.60808e+07
9.60709e+07
4.00865e+07
5.86968e+07
5.86957e+07
3.87099e+07
6.20298e+07
4.98478e+07
4.98492e+07
3.02952e+07
2.27018e+07
5.58867e+06
4.03143e+06
4.61273e+07
1.65358e+07
1.22348e+07
447670
444877
6.20678e+07
1.2587e+07
1.25869e+07
7.34847e+07
7.34741e+07
4.8131e+06
9.16933e+07
9.16841e+07
6.90031e+07
6.90094e+07
9.75321e+07
9.75336e+07
2.55027e+07
8.96901e+07
8.96883e+07
8.42462e+06
3.12507e+07
3.23949e+06
2.70669e+07
2.03939e+07
2.74679e+07
7.00263e+07
7.00263e+07
2.16649e+07
2.16748e+07
1.77986e+07
3.29374e+06
1.04777e+07
5.69932e+07
1.08369e+07
4.15986e+07
6.17678e+07
2.22657e+07
1.28759e+07
7.6936e+06
7.69676e+06
5.75091e+07
3.59696e+07
5.68532e+07
3.69101e+07
1.73505e+07
1.50261e+07
3.40452e+07
3.40307e+07
3.42611e+07
2.11743e+07
3.27799e+07
3.26725e+07
1.43937e+07
4.45161e+07
8.73438e+07
4.1703e+07
4.16997e+07
6.16188e+07
2.99076e+07
3.30289e+07
3.75042e+07
4.14172e+07
8.73482e+07
3.75167e+07
4.89425e+07
3.96906e+07
2.11748e+07
3.43233e+07
1.27081e+07
3.13455e+07
2.42318e+07
1.89149e+07
8.14516e+06
2.0172e+07
3.34173e+07
3.30204e+07
2.26032e+07
7.08262e+07
7.08242e+07
5.12114e+07
2.28364e+07
1.29651e+07
1.69111e+07
6.03528e+07
5.45801e+07
6.29823e+06
7.27014e+07
2.56248e+07
1.15771e+07
5.45994e+07
3.25842e+07
4.6965e+07
1.99253e+07
1.0512e+07
5.55345e+07
5.47243e+07
3.7882e+07
851654
848244
6.20985e+07
6.66432e+07
6.66544e+07
7.98419e+06
7.45119e+07
7.45053e+07
2.13354e+07
3.18553e+07
3.18498e+07
4.04782e+07
978779
1.01175e+07
9.3968e+07
9.39665e+07
8.23129e+06
7.24515e+07
7.88255e+07
2.87095e+07
7.3159e+07
7.31489e+07
3.85858e+07
1.19806e+07
1.05268e+07
6.70846e+07
3.32716e+07
3.32738e+07
540543
538053
8.80745e+06
2.22694e+07
5.47449e+07
5.47385e+07
7.53938e+07
7.53914e+07
6.62373e+07
1.45286e+07
2.80003e+07
6.86491e+07
6.86472e+07
6.75488e+06
870699
873782
6.96024e+07
6.95794e+07
7.57696e+07
7.5772e+07
7.38114e+07
8.54805e+07
8.54785e+07
5.54365e+07
5.54303e+07
4.17107e+07
1.95947e+07
7.96862e+07
7.85166e+07
3.14879e+07
7.06573e+06
7.85189e+07
1.33339e+07
3.70665e+07
4.39144e+07
4.69707e+07
2.84305e+07
8.17859e+07
8.17841e+07
1.93174e+07
7.10964e+07
7.11034e+07
8.58294e+07
8.58261e+07
3.07148e+07
5.43937e+07
5.43936e+07
3.34483e+07
3.34569e+07
3.45844e+07
3.17607e+07
3.17652e+07
3.55045e+07
8.87263e+07
8.87279e+07
2.28117e+07
1.5602e+07
3.54489e+07
2.04469e+07
2.72622e+07
2.71775e+07
1.37804e+07
3.43128e+07
2.04907e+07
2.74365e+07
268797
270429
9.54817e+07
9.5485e+07
1.43318e+07
2.47154e+07
9.68662e+07
9.68562e+07
3.75974e+07
2.92915e+07
1.86941e+07
5.73792e+07
5.78351e+07
3.19585e+07
6.86245e+06
6.03632e+07
9.96652e+06
9.44321e+07
9.44403e+07
3.67074e+07
3.67069e+07
5.49509e+07
5.49531e+07
2.52187e+06
2.51242e+06
1.65349e+07
5.57164e+07
1.17513e+07
3.16685e+07
2.92731e+07
1.85109e+07
4.95175e+06
4.95605e+06
1.65217e+07
4.03785e+06
2.93178e+07
3.5679e+07
3.56847e+07
2.74539e+07
5.6818e+06
4.26494e+07
5.76125e+07
5.76113e+07
3.32619e+07
2.19586e+07
6.16014e+07
6.16032e+07
2.67887e+07
5.70375e+07
5.70373e+07
5.11617e+07
2.6254e+07
3.13105e+07
1.86779e+07
2.19442e+07
2.19459e+07
7.95115e+07
1.65053e+07
5.01654e+07
5.01617e+07
5.03545e+06
4.39888e+07
4.39832e+07
8.77909e+06
6.41141e+07
6.41126e+07
3.41658e+07
3.41713e+07
5.36182e+06
2.23807e+07
2.23922e+07
6.78329e+07
6.78348e+07
4.2338e+07
2.26493e+07
4.23774e+07
4.70568e+07
4.70509e+07
4.21499e+07
1.40586e+07
3.36013e+07
3.36224e+07
1.07789e+07
8.76632e+07
8.76509e+07
1.22294e+07
5.41921e+07
8.68428e+07
8.68411e+07
971791
971430
1.07953e+07
7.27917e+07
7.27895e+07
9.65683e+06
3.35582e+07
3.35475e+07
7.45958e+06
7.46145e+06
1.48039e+07
3.19254e+07
8.71022e+07
8.70902e+07
9.97841e+07
9.97881e+07
3.13541e+07
1.39162e+07
1.43993e+07
1.43971e+07
2.295e+07
278908
277500
9.29521e+07
9.29537e+07
2.46851e+07
1.92915e+07
1.92908e+07
1.10375e+07
7.55295e+07
7.55319e+07
1.86143e+07
2.11577e+07
8.65018e+07
8.6504e+07
8.17743e+07
8.17849e+07
2.30355e+07
1.80996e+07
5.79809e+07
2.80449e+07
1.81254e+07
9.17224e+06
2.93896e+07
3.05857e+07
3.8416e+07
3.86711e+07
6.94829e+07
6.94851e+07
8.67565e+07
8.67547e+07
6.96757e+07
3.6915e+07
1.03023e+07
2.14545e+07
8.23685e+07
3.61858e+07
5.67687e+07
5.2716e+07
5.74614e+07
4.5907e+07
4.59062e+07
4.14199e+07
4.14252e+07
9.48473e+06
1.14872e+07
3.19145e+07
1.46594e+07
1.74381e+07
2.82788e+07
3.06154e+07
1.29985e+07
3.59306e+07
3.59258e+07
1.12879e+07
3.94569e+07
3.94597e+07
1.61068e+07
9.69612e+07
9.6974e+07
8.26819e+07
8.26879e+07
1.89618e+07
5.81328e+07
5.81332e+07
1.05996e+08
1.05993e+08
6.5683e+07
6.56815e+07
5.01564e+07
5.01502e+07
7.7506e+07
1.72326e+07
2.37268e+07
1.18362e+07
3.75729e+07
3.75773e+07
5.91577e+07
5.91581e+07
2.22305e+07
2.2207e+07
1.73741e+07
1.00167e+08
1.00165e+08
3.66747e+07
5.15167e+07
5.16234e+07
2.87883e+07
3.65263e+07
5.40574e+07
1.6247e+07
3.07714e+07
3.07296e+07
7.35059e+06
3.82293e+07
3.48962e+07
3.81332e+06
3.81844e+06
6.55439e+07
1.34388e+07
1.45518e+07
1.87128e+07
4.64504e+07
7.58957e+07
1.8598e+07
2.29558e+07
2.29523e+07
7.38431e+07
7.38408e+07
4.49852e+07
4.49794e+07
2.14452e+07
1.90958e+07
1.78264e+07
1.4575e+07
1.72217e+07
6.4283e+07
2.37951e+07
2.62299e+07
1.0418e+07
7.22156e+07
7.21906e+07
7.2093e+06
7.21479e+06
1.96084e+07
1.7569e+07
4.92453e+07
4.92411e+07
5.33484e+07
5.33417e+07
9.29694e+07
9.29678e+07
2.20437e+07
1.22036e+07
1.20563e+07
6.00305e+06
6.7671e+07
6.84927e+07
8.27228e+07
8.27248e+07
3.76866e+07
3.82966e+06
6.09574e+07
6.09463e+07
3.98669e+07
3.97203e+07
2.94138e+07
1.30746e+07
3.85589e+07
1.94049e+07
2.8758e+07
2.86759e+07
5.66176e+07
5.6613e+07
5.59415e+07
8.11661e+07
8.11638e+07
7.02793e+07
7.02682e+07
7.63424e+07
2.91904e+07
2.91493e+07
2.70384e+07
2.7045e+07
1.41824e+07
2.20508e+07
3.98477e+07
3.224e+07
3.22456e+07
1.43092e+07
1.4307e+07
2.18876e+07
3.91906e+07
5.21966e+07
5.21963e+07
4.50362e+07
2.04858e+07
9.80999e+07
9.81041e+07
1.97295e+07
5.3032e+07
6.72489e+07
2.1334e+07
5.53009e+07
6.44854e+07
6.44866e+07
2.30009e+07
6.92781e+07
6.92763e+07
2.29584e+07
2.20432e+07
5.53081e+07
4.87014e+07
4.8701e+07
2.6135e+07
2.65396e+07
5.19775e+06
8.47172e+07
8.4715e+07
1.05315e+07
1.49685e+07
4.59275e+07
4.59252e+07
3.09516e+07
3.06094e+07
3.03705e+07
1.07903e+07
4.31564e+06
4.24779e+06
4.54395e+07
4.5439e+07
1.98484e+07
1.36478e+07
3.21426e+07
6.036e+07
6.10061e+06
1.5154e+07
5.08452e+06
6.38019e+06
2.97906e+07
7.25859e+07
2.3725e+07
7.50284e+07
7.50186e+07
3.18928e+07
4.63709e+06
4.64161e+06
7.17683e+07
7.17619e+07
2.47889e+07
7.76922e+07
7.77009e+07
3.12172e+07
7.11778e+07
1.18098e+07
2.21198e+06
2.20975e+06
1.05076e+07
6.13634e+07
6.13656e+07
3.79255e+07
5.95986e+06
3.84426e+07
2.02124e+07
6.96697e+07
3.35741e+07
2.35301e+07
2.35412e+07
4.87217e+07
4.87156e+07
3.68948e+07
1.76642e+07
3.03731e+07
6.74329e+07
6.74351e+07
1.02542e+07
8.66622e+06
8.66598e+06
2.62228e+06
8.72207e+07
8.72225e+07
1.30545e+07
1.9354e+07
2.88806e+07
2.66455e+07
2.66682e+07
3.79343e+07
3.79299e+07
2.65384e+07
3.21019e+07
4.25967e+07
4.24152e+07
5.18917e+07
3.50792e+07
5.32448e+07
6.73242e+06
6.60335e+07
2.18419e+07
3.14422e+07
3.14282e+07
8.72711e+06
2.25904e+07
2.25865e+07
7.08836e+07
7.08905e+07
5.84686e+07
8.05549e+07
5.67851e+06
1.51052e+07
3.08751e+07
7.44543e+06
6.68135e+07
6.43632e+07
4.4371e+07
2.75602e+07
3.69424e+07
1.34935e+07
3.65969e+07
4.46635e+07
4.46633e+07
4.1924e+07
4.192e+07
5.71678e+07
5.82193e+07
2.76794e+07
4.12581e+07
4.12621e+07
7.32972e+06
4.87938e+07
4.88619e+07
6.81246e+07
6.81263e+07
1.65789e+07
4.97536e+07
1.0953e+07
3.6992e+07
6.54695e+07
266585
268284
3.17541e+07
1.8704e+07
2.15176e+07
1.6567e+07
1.01388e+07
3.41479e+07
3.41435e+07
5.49127e+07
5.4912e+07
3.16646e+07
6.9603e+07
8.9319e+07
8.93172e+07
4.80936e+07
4.8091e+07
2.8804e+07
2.31583e+07
2.34102e+07
2.88609e+07
5.15567e+07
5.18624e+07
2.02742e+07
4.63049e+07
4.63816e+07
4.96189e+07
4.9625e+07
4.88952e+07
3.28063e+07
3.28008e+07
3.15653e+07
3.15452e+07
4.00205e+07
2.57439e+07
2.57487e+07
1.504e+07
2.13253e+07
5.45473e+06
2.26182e+07
2.96545e+07
1.02051e+07
1.02082e+07
2.49441e+07
2.96679e+07
5.39092e+07
5.39115e+07
2.0777e+07
3.01359e+07
3.10617e+07
3.57794e+07
4.12531e+07
4.12481e+07
3.79027e+07
8.66684e+07
8.66766e+07
3.43446e+07
3.67077e+07
1.64806e+07
5.75804e+07
4.61157e+07
4.6117e+07
1.69478e+07
4.26937e+07
3.5293e+07
7.98245e+07
7.98264e+07
5.29961e+07
5.29761e+07
2.42281e+07
2.56206e+07
2.3966e+07
1.7327e+07
2.37966e+07
2.15114e+07
2.87728e+07
2.66616e+07
4.45434e+06
6.79739e+06
5.54244e+07
5.54241e+07
9.43245e+06
9.12848e+07
6.11351e+07
6.11361e+07
5.88467e+07
3.69441e+07
3.52477e+07
2.87681e+07
3.6961e+07
8.46642e+07
8.46658e+07
1.25165e+07
3.95754e+07
5.80228e+07
5.80233e+07
3.33135e+07
3.11509e+07
5.0588e+07
84988.4
83930.8
2.98889e+07
7.41563e+07
7.41482e+07
3.09456e+07
1.15065e+07
2.60083e+07
6.01446e+07
4.8856e+07
2.95182e+06
9.12764e+07
1.41966e+06
1.4192e+06
2.10156e+07
4.31563e+07
1.36363e+07
1.04167e+06
1.04241e+06
3.55378e+07
5.30598e+07
5.30603e+07
9.43059e+07
9.42989e+07
4.82246e+07
4.82305e+07
3.52888e+07
3.35789e+06
3.36057e+06
3.58932e+07
1.88274e+07
2.6491e+07
4.97898e+06
3.01465e+07
2.82786e+07
6.71502e+07
6.71762e+07
6.13757e+07
6.13779e+07
9.63593e+06
3.07304e+07
8.23192e+07
1.99074e+07
4.09204e+07
1.43313e+06
3.86606e+07
4.00821e+07
9.96465e+07
9.96347e+07
6.41652e+07
2.4031e+07
4.83646e+07
4.83709e+07
1.12501e+07
2.86514e+06
2.7932e+06
2.90616e+07
115483
114292
1.70121e+07
1.10817e+07
1.10832e+07
9.22983e+06
8.02095e+07
8.02144e+07
1.39818e+07
3.22042e+07
4.79839e+07
3.22306e+07
6.70817e+07
6.70299e+07
1.52637e+07
2.24212e+07
3.31852e+07
6.85483e+06
7.98935e+07
7.98988e+07
4.31227e+07
4.32596e+07
8.34573e+07
1.32015e+07
1.00562e+08
1.00568e+08
3.50172e+07
3.50114e+07
2.90018e+07
6.70209e+07
1.03004e+07
4.8191e+07
4.81878e+07
9.06379e+07
9.06363e+07
3.59954e+06
8.36699e+06
3.61041e+07
7.85121e+07
2.90111e+07
1.88043e+07
5.68443e+07
5.68448e+07
1.42902e+07
2.52766e+07
3.49338e+07
5.83775e+07
1.46838e+07
3.4414e+07
5.35509e+07
5.35487e+07
7.43834e+07
8.93635e+07
8.93654e+07
827565
823983
4.30262e+07
3.20539e+07
9.18665e+07
3.90876e+07
4.83857e+07
4.83824e+07
4.91798e+07
3.19233e+07
6.82822e+07
2.90457e+07
1.65016e+07
9.47394e+07
9.47417e+07
6.30051e+07
6.38221e+07
6.38287e+07
1.00966e+08
1.00972e+08
9.1856e+07
324655
323024
2.98194e+07
9.84987e+07
9.85007e+07
4.93866e+07
4.93892e+07
1.37277e+07
1.37249e+07
4.84491e+07
1.61062e+07
7.06794e+07
7.06773e+07
1.41791e+07
2.08465e+07
5.58763e+07
5.58756e+07
3.63713e+07
2.7323e+07
7.2003e+07
7.20006e+07
3.02904e+07
1.44555e+07
1.4454e+07
5.14509e+07
1.21789e+07
2.64419e+07
1.01566e+08
1.01554e+08
6.95195e+07
4.61699e+07
4.61698e+07
3.60663e+07
3.60716e+07
7.81501e+06
7.81687e+06
1.7093e+07
6.13983e+07
9.42381e+06
9.42399e+06
5.35104e+07
5.35128e+07
1.72821e+07
1.06838e+07
2.64725e+07
4.9178e+07
1.44203e+07
1.02362e+07
7.5152e+07
7.51427e+07
6.56049e+07
6.56032e+07
1.06419e+08
1.06424e+08
2.92851e+07
3.13448e+07
3.11904e+07
6.42884e+07
6.42863e+07
2.37763e+07
1.13254e+06
1.13757e+06
1.49335e+07
5.25172e+07
3.29183e+07
3.29337e+07
8.05633e+07
2.11647e+07
4.26673e+07
8.91464e+07
8.9148e+07
2.80453e+07
3.05943e+07
3.06265e+07
5.02635e+06
2.43969e+07
4.45161e+06
5.07306e+07
6.17936e+07
6.18043e+07
8.45004e+06
2.56997e+07
8.78659e+07
5.02042e+07
5.02104e+07
1.6636e+07
6.58233e+07
6.58216e+07
7.07442e+06
2.10317e+07
2.09978e+07
6.42182e+06
1.70664e+07
8.29656e+06
6.86765e+07
6.86784e+07
6.6725e+07
6.67184e+07
1.23451e+07
8.30925e+07
8.3095e+07
8.19389e+06
1.49074e+07
8.19668e+06
2.73633e+07
2.73642e+07
2.87289e+07
2.8208e+07
1.64374e+07
4.8774e+06
2.9065e+07
2.62625e+07
6.64999e+07
6.64919e+07
2.33571e+07
2.74523e+07
5.57929e+07
2.13236e+07
7.67247e+07
6.22605e+07
2.15788e+07
2.25773e+07
7.40932e+06
1.33875e+07
9.15066e+07
9.15094e+07
9.06418e+07
9.06438e+07
4.43745e+06
3.58969e+06
3.59875e+06
3.75323e+07
2.27288e+07
2.90804e+07
4.09366e+06
1.10776e+07
6.88622e+07
7.46961e+06
3.32156e+06
9.24215e+07
9.24237e+07
2.44155e+07
2.12742e+07
7.33836e+07
3.79753e+07
3.79694e+07
6.30241e+07
7.63178e+07
1.71577e+07
5.38768e+07
2.28068e+07
4.73306e+07
9.44338e+06
6.88416e+06
1.99544e+07
2.10438e+07
9.65614e+07
9.65633e+07
3.96405e+06
3.97568e+06
2.53438e+07
4.42075e+06
4.59629e+07
4.59337e+07
2.01932e+07
2.49163e+07
2.54809e+07
5.18807e+07
5.18819e+07
7.36814e+07
7.05772e+06
4.0592e+07
2.87556e+07
8.48836e+06
5.89205e+07
1.18609e+07
3.53564e+07
3.27814e+06
4.00096e+06
2.42475e+07
4.48447e+06
2.07924e+07
4.36306e+07
9.2213e+07
9.22114e+07
4.00583e+07
4.00528e+07
2.52311e+07
2.5244e+07
1.22791e+07
5.09172e+07
3.57549e+07
3.49959e+07
3.49995e+07
7.24411e+07
2.86594e+07
3.9358e+06
3.58531e+07
3.21596e+07
2.0958e+07
1.44952e+07
3.52656e+06
3.51636e+06
3.41278e+07
3.41335e+07
9.78797e+06
9.78594e+06
5.46979e+07
4.52078e+07
2.68066e+07
2.328e+07
2.88688e+07
2.21433e+07
784371
2.65903e+06
5.63436e+06
2.60576e+07
4.49172e+07
1.23037e+07
1.04201e+07
4.03198e+07
6.67104e+07
6.67269e+07
4.23055e+07
1.50503e+07
9.85025e+06
6.99464e+07
6.99443e+07
6.07202e+07
6.07187e+07
2.98913e+07
1.49354e+07
2.44925e+07
2.82934e+07
2.85008e+07
2.64829e+07
2.80673e+07
9.12092e+06
2.75781e+07
1.78107e+07
1.73704e+07
9.34262e+06
2.09267e+07
2.26175e+06
2.24273e+06
1.18846e+07
3.98514e+07
5.62933e+07
1.35607e+07
3.90151e+07
3.90035e+07
8.11167e+07
4.52947e+07
4.52929e+07
1.44834e+06
1.44124e+06
3.20828e+07
6.50567e+07
6.50552e+07
6.12761e+06
3.52839e+07
2.15345e+07
1.06256e+07
1.85697e+07
1.85399e+07
5.52703e+07
5.52711e+07
1.96754e+07
8.77141e+06
3.98011e+07
8.14388e+07
8.14297e+07
6.52867e+07
6.52855e+07
9.24769e+06
3.96311e+07
3.96303e+07
2.99033e+07
2.69007e+07
7.74043e+07
7.74065e+07
1.41671e+07
2.85681e+07
3.2784e+07
1.07761e+07
24918.6
25710
4.97883e+07
4.97893e+07
4.26855e+07
4.26886e+07
8.43816e+06
8.44089e+06
2.32797e+07
4.01166e+06
4.01722e+06
4.83715e+07
6.74234e+07
3.16593e+07
4.64947e+07
4.64925e+07
5.5436e+06
5.67959e+07
6.70408e+06
1.9461e+07
6.20332e+07
5.03142e+07
5.03205e+07
2.74064e+07
1.80218e+07
6.12658e+07
8.97834e+07
8.97934e+07
5.60272e+07
6.49408e+07
6.49281e+07
3.98816e+07
3.98839e+07
25789.4
25178.9
2.66193e+07
3.2567e+07
1.80134e+07
8.75766e+07
2.96325e+07
3.2826e+07
2.66066e+07
2.66014e+07
8.57035e+07
8.57012e+07
2.12895e+07
7.75513e+07
7.75494e+07
3.5314e+07
4.18166e+07
4.1814e+07
7.56962e+07
3.3829e+07
7.11997e+07
7.12017e+07
6.80918e+07
3.2397e+07
4.42435e+07
2.63442e+07
2.75502e+07
5.60436e+07
5.60445e+07
2.68144e+07
2.68173e+07
2.19483e+07
4.75637e+06
7.41037e+07
2.82126e+07
7.54117e+06
4.06084e+07
4.07599e+07
1.56421e+07
9.91581e+07
9.916e+07
6.82762e+07
6.82779e+07
8.46841e+06
1.47626e+07
1.48312e+07
8.67797e+07
6.09412e+07
4.16708e+07
7.88494e+06
7.8819e+07
3.04422e+07
8.30616e+07
6.18698e+06
8.52782e+06
1.86812e+07
2.47942e+07
4.51241e+07
4.58738e+07
4.58719e+07
6.12628e+06
1.02739e+08
1.02745e+08
5.20493e+07
5.20468e+07
3.16932e+07
2.37854e+07
1.22851e+07
1.22953e+07
5.08953e+07
8.11706e+07
8.11685e+07
5.43279e+07
1.88693e+07
1.66663e+07
1.22473e+07
989918
986735
8.47333e+07
4.5537e+06
5.44759e+07
5.44771e+07
2.90276e+07
2.90327e+07
2.04634e+07
2.04755e+07
4.44569e+07
4.51057e+07
5.141e+06
4.45007e+07
9.18473e+06
3.19175e+07
3.19836e+07
4.55811e+07
3.0561e+07
3.05636e+07
3.48669e+07
6.40363e+07
6.40472e+07
1.25295e+07
2.13915e+07
2.0627e+07
2.54295e+07
1.91318e+07
1.06405e+07
2.83501e+07
8.59013e+07
8.59032e+07
3.81862e+07
3.78468e+07
3.7853e+07
1.03951e+08
1.03954e+08
3.55694e+07
2.20693e+07
5.49722e+07
5.49722e+07
2.02385e+07
3.54117e+07
1.49513e+07
3.2288e+07
1.85006e+07
5.98736e+07
3.53478e+07
3.53446e+07
1.19272e+07
1.29362e+07
1.294e+07
9.88877e+07