0 	20.94 	-0.0123065 	1.2431e-14
0.000254254 	20.94 	-0.0122651 	1.29773e-13
0.000508509 	20.94 	-0.0122236 	2.47114e-13
0.000762763 	20.938 	-0.0123039 	-4.28413e-06
0.00101702 	20.9345 	-0.0124762 	-1.18087e-05
0.00127127 	20.9309 	-0.0126486 	-1.93333e-05
0.00152553 	20.9274 	-0.012821 	-1.25067e-05
0.00177978 	20.9238 	-0.0129933 	-4.98815e-06
0.00203403 	20.919 	-0.0131989 	2.49433e-13
0.00228829 	20.9119 	-0.0134701 	1.30161e-13
0.00254254 	20.9047 	-0.0137412 	1.08891e-14
0.0027968 	20.8977 	-0.0136516 	1.04758e-13
0.00305105 	20.8906 	-0.0135256 	2.20115e-13
0.00330531 	20.8867 	-0.0135591 	-4.29451e-06
0.00355956 	20.8861 	-0.0137623 	-1.31578e-05
0.00381381 	20.8855 	-0.0139654 	-2.20211e-05
0.00406807 	20.8849 	-0.0141686 	-1.56149e-05
0.00432232 	20.8844 	-0.0143718 	-6.76772e-06
0.00457658 	20.8853 	-0.0146203 	2.51655e-13
0.00483083 	20.8911 	-0.0150166 	1.36368e-13
0.00508509 	20.8969 	-0.0154129 	2.10813e-14
0.00533934 	20.9029 	-0.0154584 	9.69756e-13
0.00559359 	20.9088 	-0.0154253 	2.157e-12
0.00584785 	20.9159 	-0.0155601 	-6.74098e-06
0.0061021 	20.9246 	-0.0159401 	-2.33264e-05
0.00635636 	20.9334 	-0.01632 	-3.99118e-05
0.00661061 	20.9421 	-0.0167 	-3.09849e-05
0.00686486 	20.9508 	-0.0170799 	-1.44496e-05
0.00711912 	20.9599 	-0.0174799 	2.69787e-12
0.00737337 	20.9713 	-0.0180184 	1.51183e-12
0.00762763 	20.9828 	-0.0185569 	3.25781e-13
0.00788188 	20.9943 	-0.0187307 	9.4891e-13
0.00813614 	21.0059 	-0.0187663 	2.25727e-12
0.00839039 	21.0177 	-0.0189733 	-8.00701e-06
0.00864464 	21.0297 	-0.0195189 	-3.18336e-05
0.0088989 	21.0416 	-0.0200645 	-5.56603e-05
0.00915315 	21.0536 	-0.0206101 	-4.72274e-05
0.00940741 	21.0656 	-0.0211557 	-2.35015e-05
0.00966166 	21.0776 	-0.0217027 	3.09147e-12
0.00991592 	21.09 	-0.0223927 	1.78496e-12
0.0101702 	21.1023 	-0.0230828 	4.78441e-13
0.0104244 	21.1148 	-0.0233791 	1.61907e-12
0.0106787 	21.1273 	-0.023448 	4.17376e-12
0.0109329 	21.1399 	-0.0236836 	-8.10331e-06
0.0111872 	21.1527 	-0.0243622 	-3.77445e-05
0.0114414 	21.1655 	-0.0250408 	-6.73856e-05
0.0116957 	21.1783 	-0.0257194 	-6.23515e-05
0.0119499 	21.1911 	-0.026398 	-3.28713e-05
0.0122042 	21.2039 	-0.0270766 	-3.39102e-06
0.0124585 	21.2169 	-0.0278921 	3.71718e-12
0.0127127 	21.23 	-0.0287253 	1.16711e-12
0.012967 	21.2431 	-0.0291438 	1.93825e-12
0.0132212 	21.2564 	-0.0292125 	5.51239e-12
0.0134755 	21.2698 	-0.0294338 	-7.32508e-06
0.0137297 	21.2839 	-0.0302015 	-4.08575e-05
0.013984 	21.2979 	-0.0309692 	-7.43899e-05
0.0142382 	21.3119 	-0.0317368 	-7.48605e-05
0.0144925 	21.326 	-0.0325045 	-4.15502e-05
0.0147467 	21.34 	-0.0332722 	-8.23995e-06
0.015001 	21.3547 	-0.0341779 	5.52444e-12
0.0152553 	21.3695 	-0.035129 	1.95821e-12
0.0155095 	21.3844 	-0.0356652 	1.77561e-12
0.0157638 	21.3995 	-0.0356964 	5.71366e-12
0.016018 	21.4147 	-0.0358611 	-6.06728e-06
0.0162723 	21.4309 	-0.0366722 	-4.14883e-05
0.0165265 	21.447 	-0.0374833 	-7.69093e-05
0.0167808 	21.4631 	-0.0382944 	-8.39114e-05
0.017035 	21.4793 	-0.0391055 	-4.87673e-05
0.0172893 	21.4954 	-0.0399166 	-1.36231e-05
0.0175435 	21.5122 	-0.0408709 	6.44329e-12
0.0177978 	21.5294 	-0.041916 	2.51552e-12
0.0180521 	21.5467 	-0.0425705 	1.50709e-12
0.0183063 	21.5642 	-0.0425294 	5.69884e-12
0.0185606 	21.5818 	-0.0426013 	-4.70029e-06
0.0188148 	21.6004 	-0.0434175 	-4.03216e-05
0.0190691 	21.619 	-0.0442336 	-7.59429e-05
0.0193233 	21.6375 	-0.0450498 	-8.95188e-05
0.0195776 	21.6561 	-0.0458659 	-5.42181e-05
0.0198318 	21.6747 	-0.0466821 	-1.89174e-05
0.0200861 	21.6938 	-0.0476403 	7.23706e-12
0.0203403 	21.7135 	-0.0487627 	3.05793e-12
0.0205946 	21.7332 	-0.0495463 	1.15035e-12
0.0208488 	21.7532 	-0.0494064 	5.43839e-12
0.0211031 	21.7732 	-0.0493602 	-3.47876e-06
0.0213574 	21.7943 	-0.0501543 	-3.80994e-05
0.0216116 	21.8153 	-0.0509483 	-7.272e-05
0.0218659 	21.8363 	-0.0517423 	-9.22576e-05
0.0221201 	21.8573 	-0.0525363 	-5.79894e-05
0.0223744 	21.8783 	-0.0533303 	-2.37212e-05
0.0226286 	21.8996 	-0.0542461 	7.79002e-12
0.0228829 	21.9216 	-0.0554357 	3.51658e-12
0.0231371 	21.9437 	-0.0563692 	7.46455e-13
0.0233914 	21.9661 	-0.0561123 	4.96159e-12
0.0236456 	21.9886 	-0.0559334 	-2.53629e-06
0.0238999 	22.0119 	-0.0566906 	-3.55003e-05
0.0241542 	22.0352 	-0.0574478 	-6.84642e-05
0.0244084 	22.0585 	-0.058205 	-9.30997e-05
0.0246627 	22.0819 	-0.0589622 	-6.05098e-05
0.0249169 	22.1052 	-0.0597194 	-2.79199e-05
0.0251712 	22.1286 	-0.0605479 	8.03703e-12
0.0254254 	22.1529 	-0.0618029 	3.8379e-12
0.0256797 	22.1772 	-0.0629169 	3.44981e-13
0.0259339 	22.2018 	-0.0625313 	4.35606e-12
0.0261882 	22.2265 	-0.0622135 	-1.91336e-06
0.0264424 	22.252 	-0.062931 	-3.30787e-05
0.0266967 	22.2775 	-0.0636484 	-6.42441e-05
0.026951 	22.303 	-0.0643658 	-9.32326e-05
0.0272052 	22.3285 	-0.0650833 	-6.24571e-05
0.0274595 	22.354 	-0.0658007 	-3.16816e-05
0.0277137 	22.3795 	-0.0665182 	-9.06049e-07
0.027968 	22.4058 	-0.067828 	4.01406e-12
0.0282222 	22.4322 	-0.0691557 	1.97672e-14
0.0284765 	22.4589 	-0.0686403 	3.70823e-12
0.0287307 	22.4857 	-0.0681809 	-1.59673e-06
0.028985 	22.5133 	-0.0688647 	-3.12152e-05
0.0292392 	22.5408 	-0.0695484 	-6.08337e-05
0.0294935 	22.5683 	-0.0702322 	-9.04522e-05
0.0297477 	22.5958 	-0.070916 	-6.45781e-05
0.030002 	22.6233 	-0.0715998 	-3.53642e-05
0.0302563 	22.6508 	-0.0722835 	-6.15019e-06
0.0305105 	22.679 	-0.0735474 	4.06512e-12
0.0307648 	22.7072 	-0.0749659 	3.55416e-13
0.031019 	22.7359 	-0.0744887 	3.93821e-12
0.0312733 	22.7647 	-0.0738838 	-1.56345e-06
0.0315275 	22.7941 	-0.0745476 	-3.02168e-05
0.0317818 	22.8234 	-0.0752115 	-5.88701e-05
0.032036 	22.8528 	-0.0758753 	-8.75234e-05
0.0322903 	22.8822 	-0.0765391 	-6.7752e-05
0.0325445 	22.9116 	-0.077203 	-3.95226e-05
0.0327988 	22.941 	-0.0778668 	-1.12932e-05
0.0330531 	22.9708 	-0.079057 	5.14249e-12
0.0333073 	23.0009 	-0.0805982 	8.08482e-13
0.0335616 	23.0314 	-0.0802067 	2.59402e-12
0.0338158 	23.062 	-0.0794669 	-1.80118e-06
0.0340701 	23.0931 	-0.0801272 	-3.01957e-05
0.0343243 	23.1243 	-0.0807876 	-5.85901e-05
0.0345786 	23.1555 	-0.081448 	-8.69846e-05
0.0348328 	23.1867 	-0.0821083 	-7.25983e-05
0.0350871 	23.2179 	-0.0827687 	-4.46558e-05
0.0353413 	23.2491 	-0.083429 	-1.67133e-05
0.0355956 	23.2805 	-0.0845024 	4.05103e-12
0.0358498 	23.3123 	-0.0861907 	8.7908e-13
0.0361041 	23.3445 	-0.0859486 	2.96112e-12
0.0363584 	23.3769 	-0.0850995 	-2.31283e-06
0.0366126 	23.4099 	-0.0857693 	-3.10084e-05
0.0368669 	23.4428 	-0.0864392 	-5.97039e-05
0.0371211 	23.4758 	-0.087109 	-8.83994e-05
0.0373754 	23.5088 	-0.0877789 	-7.91166e-05
0.0376296 	23.5417 	-0.0884487 	-5.09096e-05
0.0378839 	23.5747 	-0.0891186 	-2.27026e-05
0.0381381 	23.6078 	-0.0900174 	5.57045e-12
0.0383924 	23.6414 	-0.0918604 	1.4973e-12
0.0386466 	23.6753 	-0.0918347 	3.12499e-12
0.0389009 	23.7095 	-0.0909139 	-3.12235e-06
0.0391552 	23.7443 	-0.0916028 	-3.25399e-05
0.0394094 	23.7791 	-0.0922918 	-6.19574e-05
0.0396637 	23.8139 	-0.0929808 	-9.13749e-05
0.0399179 	23.8487 	-0.0936698 	-8.72415e-05
0.0401722 	23.8835 	-0.0943587 	-5.83569e-05
0.0404264 	23.9183 	-0.0950477 	-2.94722e-05
0.0406807 	23.9531 	-0.0957367 	-5.87598e-07
0.0409349 	23.9885 	-0.097703 	2.24912e-12
0.0411892 	24.0243 	-0.0979552 	3.3242e-12
0.0414434 	24.0604 	-0.097008 	-4.27618e-06
0.0416977 	24.0972 	-0.0977246 	-3.47946e-05
0.041952 	24.134 	-0.0984413 	-6.5313e-05
0.0422062 	24.1707 	-0.0991579 	-9.58314e-05
0.0424605 	24.2075 	-0.0998745 	-9.71231e-05
0.0427147 	24.2443 	-0.100591 	-6.71902e-05
0.042969 	24.281 	-0.101308 	-3.72572e-05
0.0432232 	24.3178 	-0.102024 	-7.32423e-06
0.0434775 	24.3551 	-0.103809 	3.33959e-12
0.0437317 	24.3929 	-0.104409 	2.69458e-12
0.043986 	24.4311 	-0.103518 	-5.78771e-06
0.0442402 	24.47 	-0.104263 	-3.74835e-05
0.0444945 	24.5089 	-0.105008 	-6.91792e-05
0.0447487 	24.5478 	-0.105753 	-0.000100875
0.045003 	24.5867 	-0.106498 	-0.000108007
0.0452573 	24.6257 	-0.107244 	-7.69519e-05
0.0455115 	24.6646 	-0.107989 	-4.58973e-05
0.0457658 	24.7035 	-0.108734 	-1.48426e-05
0.04602 	24.7428 	-0.11024 	3.77928e-12
0.0462743 	24.7828 	-0.111175 	1.7063e-12
0.0465285 	24.8233 	-0.110356 	-7.64144e-06
0.0467828 	24.8646 	-0.111126 	-4.03444e-05
0.047037 	24.9059 	-0.111896 	-7.30474e-05
0.0472913 	24.9471 	-0.112666 	-0.00010575
0.0475455 	24.9884 	-0.113436 	-0.000119077
0.0477998 	25.0297 	-0.114206 	-8.70691e-05
0.0480541 	25.071 	-0.114976 	-5.50609e-05
0.0483083 	25.1122 	-0.115746 	-2.30527e-05
0.0485626 	25.1538 	-0.116938 	3.40816e-12
0.0488168 	25.1961 	-0.118225 	9.82003e-13
0.0490711 	25.2392 	-0.117495 	-9.84727e-06
0.0493253 	25.2831 	-0.118286 	-4.34174e-05
0.0495796 	25.3269 	-0.119078 	-7.69875e-05
0.0498338 	25.3708 	-0.11987 	-0.000110558
0.0500881 	25.4146 	-0.120662 	-0.00013036
0.0503423 	25.4585 	-0.121453 	-9.75364e-05
0.0505966 	25.5023 	-0.122245 	-6.47127e-05
0.0508509 	25.5462 	-0.123037 	-3.18889e-05
0.0511051 	25.5901 	-0.123873 	2.93006e-12
0.0513594 	25.635 	-0.125542 	5.86579e-13
0.0516136 	25.6809 	-0.124912 	-1.24154e-05
0.0518679 	25.7276 	-0.125724 	-4.67455e-05
0.0521221 	25.7742 	-0.126536 	-8.10757e-05
0.0523764 	25.8208 	-0.127347 	-0.000115406
0.0526306 	25.8675 	-0.128159 	-0.000141913
0.0528849 	25.9141 	-0.12897 	-0.000108379
0.0531391 	25.9608 	-0.129782 	-7.48448e-05
0.0533934 	26.0074 	-0.130594 	-4.13105e-05
0.0536476 	26.054 	-0.131405 	-7.77627e-06
0.0539019 	26.1016 	-0.133114 	1.57141e-13
0.0541562 	26.1505 	-0.132598 	-1.53505e-05
0.0544104 	26.2001 	-0.133429 	-5.03494e-05
0.0546647 	26.2497 	-0.134259 	-8.53483e-05
0.0549189 	26.2994 	-0.135089 	-0.000120347
0.0551732 	26.349 	-0.135919 	-0.000153745
0.0554274 	26.3986 	-0.136749 	-0.00011959
0.0556817 	26.4482 	-0.137579 	-8.54341e-05
0.0559359 	26.4979 	-0.13841 	-5.12785e-05
0.0561902 	26.5475 	-0.13924 	-1.71229e-05
0.0564444 	26.5977 	-0.140941 	4.5987e-15
0.0566987 	26.6498 	-0.140556 	-1.85461e-05
0.056953 	26.7026 	-0.1414 	-5.39282e-05
0.0572072 	26.7554 	-0.142243 	-8.93104e-05
0.0574615 	26.8081 	-0.143086 	-0.000124693
0.0577157 	26.8609 	-0.143929 	-0.000160075
0.05797 	26.9137 	-0.144772 	-0.000130397
0.0582242 	26.9664 	-0.145615 	-9.58984e-05
0.0584785 	27.0192 	-0.146459 	-6.13995e-05
0.0587327 	27.072 	-0.147302 	-2.69006e-05
0.058987 	27.125 	-0.148573 	1.17878e-13
0.0592412 	27.1805 	-0.148762 	-2.18607e-05
0.0594955 	27.2366 	-0.149609 	-5.72179e-05
0.0597497 	27.2926 	-0.150457 	-9.25751e-05
0.060004 	27.3487 	-0.151305 	-0.000127932
0.0602583 	27.4047 	-0.152152 	-0.00016329
0.0605125 	27.4608 	-0.153 	-0.000140094
0.0607668 	27.5168 	-0.153848 	-0.000105648
0.061021 	27.5729 	-0.154695 	-7.12022e-05
0.0612753 	27.6289 	-0.155543 	-3.67565e-05
0.0615295 	27.685 	-0.156391 	-2.31079e-06
0.0617838 	27.7439 	-0.157153 	-2.51751e-05
0.062038 	27.8033 	-0.157996 	-6.00996e-05
0.0622923 	27.8628 	-0.158839 	-9.50242e-05
0.0625465 	27.9222 	-0.159683 	-0.000129949
0.0628008 	27.9817 	-0.160526 	-0.000164873
0.0630551 	28.0411 	-0.161313 	-0.000147738
0.0633093 	28.1005 	-0.16205 	-0.000112616
0.0635636 	28.1599 	-0.162787 	-7.7493e-05
0.0638178 	28.2193 	-0.163524 	-4.23706e-05
0.0640721 	28.2787 	-0.164261 	-7.24812e-06
0.0643263 	28.3407 	-0.165029 	-2.23453e-05
0.0645806 	28.4036 	-0.165746 	-5.53644e-05
0.0648348 	28.4664 	-0.166463 	-8.83835e-05
0.0650891 	28.5293 	-0.16718 	-0.000121403
0.0653433 	28.5922 	-0.167897 	-0.000154422
0.0655976 	28.6551 	-0.168614 	-0.000143118
0.0658519 	28.718 	-0.169331 	-0.000108798
0.0661061 	28.7809 	-0.170048 	-7.44782e-05
0.0663604 	28.8438 	-0.170765 	-4.01581e-05
0.0666146 	28.9067 	-0.171482 	-5.83803e-06
0.0668689 	28.9718 	-0.172327 	-1.46716e-05
0.0671231 	29.0383 	-0.173019 	-4.66386e-05
0.0673774 	29.1047 	-0.17371 	-7.86057e-05
0.0676316 	29.1711 	-0.174402 	-0.000110573
0.0678859 	29.2376 	-0.175093 	-0.00014254
0.0681401 	29.304 	-0.175784 	-0.000137319
0.0683944 	29.3704 	-0.176476 	-0.000104063
0.0686486 	29.4368 	-0.177167 	-7.08069e-05
0.0689029 	29.5033 	-0.177859 	-3.75506e-05
0.0691572 	29.5697 	-0.17855 	-4.29429e-06
0.0694114 	29.6381 	-0.179471 	-7.2588e-06
0.0696657 	29.7081 	-0.180133 	-3.79665e-05
0.0699199 	29.7782 	-0.180794 	-6.86742e-05
0.0701742 	29.8482 	-0.181456 	-9.9382e-05
0.0704284 	29.9182 	-0.182118 	-0.00013009
0.0706827 	29.9882 	-0.182779 	-0.000130559
0.0709369 	30.0582 	-0.183441 	-9.85883e-05
0.0711912 	30.1282 	-0.184102 	-6.66173e-05
0.0714454 	30.1982 	-0.184764 	-3.46463e-05
0.0716997 	30.2682 	-0.185425 	-2.67526e-06
0.071954 	30.3399 	-0.186427 	-2.71869e-07
0.0722082 	30.4135 	-0.187058 	-2.96367e-05
0.0724625 	30.4871 	-0.187688 	-5.90015e-05
0.0727167 	30.5607 	-0.188318 	-8.83663e-05
0.072971 	30.6343 	-0.188949 	-0.000117731
0.0732252 	30.708 	-0.189579 	-0.000123412
0.0734795 	30.7816 	-0.190209 	-9.28198e-05
0.0737337 	30.8552 	-0.19084 	-6.22273e-05
0.073988 	30.9288 	-0.19147 	-3.16347e-05
0.0742422 	31.0024 	-0.1921 	-1.04214e-06
0.0744965 	31.0777 	-0.193236 	3.47671e-05
0.0747508 	31.1546 	-0.193803 	-2.18833e-05
0.075005 	31.2318 	-0.194405 	-5.00144e-05
0.0752593 	31.309 	-0.195008 	-7.81455e-05
0.0755135 	31.3863 	-0.19561 	-0.000106277
0.0757678 	31.4635 	-0.196213 	-0.000116721
0.076022 	31.5407 	-0.196816 	-8.73989e-05
0.0762763 	31.6179 	-0.197418 	-5.8077e-05
0.0765305 	31.6952 	-0.198021 	-2.87551e-05
0.0767848 	31.7724 	-0.198636 	3.30683e-06
0.077039 	31.8513 	-0.19975 	7.57842e-05
0.0772933 	31.9315 	-0.20042 	-1.36133e-05
0.0775475 	32.0124 	-0.200955 	-3.86972e-05
0.0778018 	32.0932 	-0.20149 	-6.37811e-05
0.0780561 	32.174 	-0.202025 	-8.88649e-05
0.0783103 	32.2549 	-0.20256 	-0.000102629
0.0785646 	32.3357 	-0.203094 	-7.64742e-05
0.0788188 	32.4166 	-0.203629 	-5.03198e-05
0.0790731 	32.4974 	-0.204164 	-2.41654e-05
0.0793273 	32.5784 	-0.204701 	1.39259e-05
0.0795816 	32.6608 	-0.205408 	0.000123417
0.0798358 	32.7443 	-0.206429 	-6.0409e-06
0.0800901 	32.8286 	-0.206846 	-2.59008e-05
0.0803443 	32.913 	-0.207264 	-4.57607e-05
0.0805986 	32.9973 	-0.207682 	-6.56206e-05
0.0808529 	33.0816 	-0.208099 	-8.00357e-05
0.0811071 	33.166 	-0.208517 	-5.9325e-05
0.0813614 	33.2503 	-0.208935 	-3.86143e-05
0.0816156 	33.3347 	-0.209352 	-1.79036e-05
0.0818699 	33.4192 	-0.209684 	2.60502e-05
0.0821241 	33.505 	-0.209707 	0.00017445
0.0823784 	33.5915 	-0.211445 	-9.96622e-07
0.0826326 	33.6792 	-0.211776 	-1.68477e-05
0.0828869 	33.7668 	-0.212106 	-3.26989e-05
0.0831411 	33.8544 	-0.212437 	-4.855e-05
0.0833954 	33.942 	-0.212767 	-6.2859e-05
0.0836496 	34.0296 	-0.213098 	-4.63295e-05
0.0839039 	34.1173 	-0.213428 	-2.98001e-05
0.0841582 	34.2049 	-0.213759 	-1.32707e-05
0.0844124 	34.2928 	-0.213828 	3.91511e-05
0.0846667 	34.3816 	-0.212926 	0.000227083
0.0849209 	34.4711 	-0.215305 	3.47211e-05
0.0851752 	34.5615 	-0.215967 	-1.11253e-05
0.0854294 	34.6521 	-0.216251 	-2.47009e-05
0.0856837 	34.7427 	-0.216535 	-3.82766e-05
0.0859379 	34.8333 	-0.216819 	-5.18523e-05
0.0861922 	34.9239 	-0.217103 	-3.87771e-05
0.0864464 	35.0145 	-0.217387 	-2.46243e-05
0.0867007 	35.1051 	-0.217671 	-1.04714e-05
0.086955 	35.196 	-0.21743 	5.36205e-05
0.0872092 	35.2877 	-0.215699 	0.000259754
0.0874635 	35.38 	-0.218228 	8.49114e-05
0.0877177 	35.4728 	-0.219542 	-5.86336e-06
0.087972 	35.566 	-0.219752 	-1.60628e-05
0.0882262 	35.6592 	-0.219962 	-2.62623e-05
0.0884805 	35.7524 	-0.220173 	-3.64617e-05
0.0887347 	35.8457 	-0.220383 	-2.84444e-05
0.088989 	35.9389 	-0.220594 	-1.78165e-05
0.0892432 	36.0321 	-0.220804 	-7.18871e-06
0.0894975 	36.1257 	-0.220176 	6.87902e-05
0.0897518 	36.22 	-0.217796 	0.000281371
0.090006 	36.3146 	-0.219988 	0.000138088
0.0902603 	36.4095 	-0.222015 	-1.09771e-06
0.0905145 	36.505 	-0.222069 	-4.42498e-06
0.0907688 	36.6004 	-0.222123 	-7.75225e-06
0.091023 	36.6959 	-0.222177 	-1.10795e-05
0.0912773 	36.7914 	-0.222231 	-9.05397e-06
0.0915315 	36.8868 	-0.222285 	-5.58957e-06
0.0917858 	36.9823 	-0.222339 	-2.12517e-06
0.09204 	37.0782 	-0.221238 	8.2335e-05
0.0922943 	37.1746 	-0.218306 	0.000295324
0.0925485 	37.2711 	-0.219779 	0.000188905
0.0928028 	37.3678 	-0.222376 	5.41908e-07
0.0930571 	37.465 	-0.222207 	6.86586e-06
0.0933113 	37.5623 	-0.222039 	1.31898e-05
0.0935656 	37.6595 	-0.22187 	1.95138e-05
0.0938198 	37.7568 	-0.221702 	1.67871e-05
0.0940741 	37.854 	-0.221533 	1.02092e-05
0.0943283 	37.9513 	-0.221365 	3.63138e-06
0.0945826 	38.0489 	-0.219778 	9.2621e-05
0.0948368 	38.1469 	-0.216444 	0.000299394
0.0950911 	38.2449 	-0.216981 	0.000232197
0.0953453 	38.343 	-0.219405 	3.14388e-05
0.0955996 	38.4413 	-0.219464 	1.30297e-05
0.0958539 	38.5398 	-0.219084 	2.84788e-05
0.0961081 	38.6382 	-0.218704 	4.39279e-05
0.0963624 	38.7367 	-0.218323 	4.00167e-05
0.0966166 	38.8351 	-0.217943 	2.39685e-05
0.0968709 	38.9336 	-0.217563 	7.92032e-06
0.0971251 	39.0323 	-0.215617 	9.96891e-05
0.0973794 	39.1313 	-0.212146 	0.000296522
0.0976336 	39.2301 	-0.211797 	0.000267016
0.0978879 	39.3289 	-0.21368 	7.56961e-05
0.0981421 	39.4278 	-0.214102 	1.33267e-05
0.0983964 	39.5267 	-0.213568 	3.53782e-05
0.0986507 	39.6256 	-0.213033 	5.74296e-05
0.0989049 	39.7245 	-0.212499 	5.57832e-05
0.0991592 	39.8234 	-0.211965 	3.29135e-05
0.0994134 	39.9223 	-0.211431 	1.00439e-05
0.0996677 	40.0213 	-0.209288 	0.000104978
0.0999219 	40.1204 	-0.205884 	0.000292165
0.100176 	40.2193 	-0.204848 	0.000296975
0.10043 	40.3181 	-0.20624 	0.000114786
0.100685 	40.4168 	-0.206851 	1.10867e-05
0.100939 	40.5152 	-0.206134 	4.10533e-05
0.101193 	40.6136 	-0.205417 	7.102e-05
0.101447 	40.7121 	-0.2047 	7.41486e-05
0.101702 	40.8105 	-0.203983 	4.31299e-05
0.101956 	40.9089 	-0.203266 	1.21112e-05
0.10221 	41.0072 	-0.200883 	0.000107632
0.102464 	41.1054 	-0.197434 	0.000284206
0.102719 	41.2034 	-0.195714 	0.000319863
0.102973 	41.3012 	-0.196544 	0.00014773
0.103227 	41.3989 	-0.197125 	5.57906e-06
0.103481 	41.4958 	-0.196191 	4.49307e-05
0.103736 	41.5927 	-0.195258 	8.42823e-05
0.10399 	41.6896 	-0.194324 	9.54618e-05
0.104244 	41.7866 	-0.193391 	5.482e-05
0.104498 	41.8835 	-0.192457 	1.41781e-05
0.104753 	41.9799 	-0.18987 	0.000105835
0.105007 	42.076 	-0.186397 	0.000268373
0.105261 	42.172 	-0.184129 	0.000329961
0.105516 	42.2677 	-0.184492 	0.000171222
0.10577 	42.3634 	-0.184856 	1.24829e-05
0.106024 	42.4578 	-0.183861 	4.34064e-05
0.106278 	42.5521 	-0.182751 	9.05175e-05
0.106533 	42.6464 	-0.181641 	0.000112397
0.106787 	42.7407 	-0.180531 	6.3866e-05
0.107041 	42.835 	-0.179421 	1.53346e-05
0.107295 	42.9283 	-0.176671 	0.000100374
0.10755 	43.0212 	-0.173164 	0.000247113
0.107804 	43.114 	-0.170439 	0.000328809
0.108058 	43.2065 	-0.170422 	0.000185202
0.108312 	43.299 	-0.170405 	4.15951e-05
0.108567 	43.3901 	-0.169498 	3.85261e-05
0.108821 	43.4806 	-0.168227 	9.27612e-05
0.109075 	43.5711 	-0.166957 	0.000127765
0.109329 	43.6616 	-0.165686 	7.20553e-05
0.109584 	43.7521 	-0.164416 	1.63451e-05
0.109838 	43.8413 	-0.161507 	9.16093e-05
0.110092 	43.9299 	-0.157918 	0.000221256
0.110346 	44.0185 	-0.154763 	0.00031661
0.110601 	44.1066 	-0.15443 	0.000189438
0.110855 	44.1947 	-0.154097 	6.22668e-05
0.111109 	44.2816 	-0.153208 	3.11849e-05
0.111363 	44.3673 	-0.151783 	9.22872e-05
0.111618 	44.4529 	-0.150359 	0.000142819
0.111872 	44.5386 	-0.148935 	8.02529e-05
0.112126 	44.6243 	-0.147511 	1.76869e-05
0.11238 	44.7083 	-0.144453 	7.94346e-05
0.112635 	44.7916 	-0.14075 	0.000190174
0.112889 	44.8749 	-0.137181 	0.000291525
0.113143 	44.9576 	-0.136582 	0.000182626
0.113397 	45.0403 	-0.135984 	7.37267e-05
0.113652 	45.1222 	-0.135082 	2.14186e-05
0.113906 	45.202 	-0.133543 	8.77337e-05
0.11416 	45.2818 	-0.132004 	0.000154049
0.114414 	45.3617 	-0.130465 	8.69817e-05
0.114669 	45.4415 	-0.128926 	1.93108e-05
0.114923 	45.5193 	-0.125775 	6.58656e-05
0.115177 	45.5963 	-0.121979 	0.000158032
0.115431 	45.6732 	-0.118184 	0.000250199
0.115686 	45.7496 	-0.117285 	0.000168162
0.11594 	45.826 	-0.116533 	7.7281e-05
0.116194 	45.9019 	-0.115647 	1.06573e-05
0.116448 	45.9749 	-0.114001 	8.18742e-05
0.116703 	46.0479 	-0.112355 	0.000153091
0.116957 	46.1209 	-0.110709 	9.43298e-05
0.117211 	46.194 	-0.109062 	2.19241e-05
0.117465 	46.2647 	-0.105788 	5.16799e-05
0.11772 	46.3344 	-0.101805 	0.000125804
0.117974 	46.4041 	-0.0978233 	0.000199929
0.118228 	46.4732 	-0.096568 	0.000147214
0.118482 	46.5423 	-0.0957552 	7.3912e-05
0.118737 	46.6114 	-0.0949424 	6.10309e-07
0.118991 	46.6768 	-0.0932078 	7.5e-05
0.119245 	46.7422 	-0.0914654 	0.00015063
0.119499 	46.8076 	-0.0897231 	0.000102344
0.119754 	46.873 	-0.0879808 	2.57504e-05
0.120008 	46.9359 	-0.0846046 	3.68873e-05
0.120262 	46.9976 	-0.080401 	9.24568e-05
0.120517 	47.0594 	-0.0761973 	0.000148026
0.120771 	47.1206 	-0.0746703 	0.000118498
0.121025 	47.1817 	-0.0739482 	6.33782e-05
0.121279 	47.2428 	-0.0732261 	8.25888e-06
0.121534 	47.3006 	-0.0715811 	6.68934e-05
0.121788 	47.3579 	-0.0697734 	0.000145576
0.122042 	47.4151 	-0.0679658 	0.000110043
0.122296 	47.4724 	-0.0661582 	3.06784e-05
0.122551 	47.5273 	-0.0627478 	2.07815e-05
0.122805 	47.5807 	-0.0583274 	5.46581e-05
0.123059 	47.6341 	-0.0539071 	8.85347e-05
0.123313 	47.687 	-0.05207 	7.66531e-05
0.123568 	47.7398 	-0.0514649 	4.2946e-05
0.123822 	47.7926 	-0.0508599 	9.23888e-06
0.124076 	47.8426 	-0.0494192 	5.56004e-05
0.12433 	47.8916 	-0.0476629 	0.000132195
0.124585 	47.9406 	-0.0459066 	0.000111905
0.124839 	47.9896 	-0.0441503 	3.4965e-05
0.125093 	48.0365 	-0.0409628 	6.86712e-06
0.125347 	48.0816 	-0.036583 	1.94545e-05
0.125602 	48.1268 	-0.0322033 	3.20418e-05
0.125856 	48.1716 	-0.0302127 	2.99126e-05
0.12611 	48.2161 	-0.0299157 	1.73511e-05
0.126364 	48.2606 	-0.0296188 	4.78962e-06
0.126619 	48.303 	-0.0285636 	4.11226e-05
0.126873 	48.344 	-0.0270411 	0.000107588
0.127127 	48.3851 	-0.0255187 	0.000102349
0.127381 	48.4261 	-0.0239962 	3.5826e-05
0.127636 	48.4655 	-0.0212467 	5.7676e-07
0.12789 	48.503 	-0.0170652 	1.82666e-06
0.128144 	48.5405 	-0.0128836 	3.07657e-06
0.128398 	48.5776 	-0.0108186 	3.09345e-06
0.128653 	48.6145 	-0.0109284 	1.84336e-06
0.128907 	48.6513 	-0.0110383 	5.93267e-07
0.129161 	48.6866 	-0.0104193 	2.93002e-05
0.129415 	48.7205 	-0.00914201 	8.50661e-05
0.12967 	48.7544 	-0.00786473 	9.09824e-05
0.129924 	48.7882 	-0.00658745 	3.52869e-05
0.130178 	48.821 	-0.00431868 	-1.11575e-06
0.130432 	48.8518 	-0.000335611 	-4.16065e-06
0.130687 	48.8826 	0.00364746 	-7.20555e-06
0.130941 	48.9132 	0.00585108 	-7.80525e-06
0.131195 	48.9435 	0.00539903 	-4.75572e-06
0.131449 	48.9737 	0.00494698 	-1.70619e-06
0.131704 	49.0029 	0.00518258 	2.13201e-05
0.131958 	49.0308 	0.00629154 	6.97187e-05
0.132212 	49.0587 	0.00740051 	8.3775e-05
0.132466 	49.0865 	0.00850948 	3.55085e-05
0.132721 	49.1137 	0.0103294 	-1.94555e-06
0.132975 	49.1392 	0.014128 	-9.30606e-06
0.133229 	49.1646 	0.0179266 	-1.66666e-05
0.133483 	49.1899 	0.0203268 	-1.94692e-05
0.133738 	49.2148 	0.0196029 	-1.20895e-05
0.133992 	49.2397 	0.018879 	-4.70974e-06
0.134246 	49.264 	0.0187604 	1.49734e-05
0.134501 	49.2871 	0.0197095 	5.6359e-05
0.134755 	49.3102 	0.0206585 	7.59948e-05
0.135009 	49.3333 	0.0216076 	3.47791e-05
0.135263 	49.3561 	0.0229699 	-1.65512e-06
0.135518 	49.3773 	0.0265652 	-1.22535e-05
0.135772 	49.3985 	0.0301605 	-2.28519e-05
0.136026 	49.4197 	0.0327507 	-2.88378e-05
0.13628 	49.4405 	0.0317186 	-1.82006e-05
0.136535 	49.4613 	0.0306865 	-7.56346e-06
0.136789 	49.4817 	0.0301888 	1.02805e-05
0.137043 	49.5011 	0.0310059 	4.58584e-05
0.137297 	49.5205 	0.031823 	6.92752e-05
0.137552 	49.5399 	0.0326401 	3.38914e-05
0.137806 	49.5593 	0.0335714 	-5.21739e-07
0.13806 	49.5773 	0.0370952 	-1.28913e-05
0.138314 	49.5953 	0.0406191 	-2.52608e-05
0.138569 	49.6132 	0.0435396 	-3.45256e-05
0.138823 	49.6308 	0.0422448 	-2.20982e-05
0.139077 	49.6485 	0.04095 	-9.6708e-06
0.139331 	49.6659 	0.0401122 	7.38241e-06
0.139586 	49.6824 	0.040878 	4.06639e-05
0.13984 	49.6989 	0.0416437 	6.86733e-05
0.140094 	49.7154 	0.0424094 	3.56169e-05
0.140348 	49.7319 	0.0431751 	2.56041e-06
0.140603 	49.7473 	0.046528 	-1.51948e-05
0.140857 	49.7627 	0.050098 	-3.16653e-05
0.141111 	49.7781 	0.0534992 	-4.70387e-05
0.141365 	49.7931 	0.0519828 	-3.04748e-05
0.14162 	49.8082 	0.0504665 	-1.39108e-05
0.141874 	49.8231 	0.0493092 	5.03508e-06
0.142128 	49.8372 	0.0500341 	3.64701e-05
0.142382 	49.8513 	0.050759 	6.79051e-05
0.142637 	49.8653 	0.0514838 	3.74977e-05
0.142891 	49.8794 	0.0522087 	6.31479e-06
0.143145 	49.8927 	0.0552605 	-1.70515e-05
0.143399 	49.9058 	0.0589031 	-3.84329e-05
0.143654 	49.9189 	0.0625458 	-5.98143e-05
0.143908 	49.9318 	0.0611131 	-4.08123e-05
0.144162 	49.9446 	0.0593636 	-1.92893e-05
0.144416 	49.9573 	0.0578661 	3.04771e-06
0.144671 	49.9692 	0.0585454 	3.24143e-05
0.144925 	49.9812 	0.0592247 	6.1781e-05
0.145179 	49.9931 	0.059904 	3.87761e-05
0.145433 	50.005 	0.0605833 	9.6804e-06
0.145688 	50.0164 	0.0633097 	-1.70564e-05
0.145942 	50.0274 	0.0670568 	-4.2617e-05
0.146196 	50.0384 	0.0708039 	-6.81776e-05
0.14645 	50.0492 	0.0697048 	-5.0158e-05
0.146705 	50.0599 	0.0677456 	-2.44048e-05
0.146959 	50.0707 	0.0659227 	1.44614e-06
0.147213 	50.0806 	0.0665638 	2.90678e-05
0.147467 	50.0905 	0.067205 	5.66895e-05
0.147722 	50.1004 	0.0678462 	4.01215e-05
0.147976 	50.1103 	0.0684874 	1.27862e-05
0.14823 	50.1197 	0.0708326 	-1.56379e-05
0.148484 	50.1288 	0.0746753 	-4.50189e-05
0.148739 	50.1378 	0.078518 	-7.43998e-05
0.148993 	50.1467 	0.0778112 	-5.90897e-05
0.149247 	50.1555 	0.0756467 	-2.94622e-05
0.149502 	50.1643 	0.0734978 	1.46379e-07
0.149756 	50.1722 	0.0741092 	2.63793e-05
0.15001 	50.1802 	0.0747205 	5.26123e-05
0.150264 	50.1882 	0.0753319 	4.1682e-05
0.150519 	50.1962 	0.0759433 	1.57492e-05
0.150773 	50.2038 	0.0778641 	-1.31317e-05
0.151027 	50.211 	0.08181 	-4.65716e-05
0.151281 	50.2181 	0.0857559 	-8.00114e-05
0.151536 	50.2251 	0.0855269 	-6.87398e-05
0.15179 	50.232 	0.0831992 	-3.49924e-05
0.152044 	50.2389 	0.0808714 	-1.24487e-06
0.152298 	50.2451 	0.0813502 	2.41253e-05
0.152553 	50.2512 	0.0819364 	4.91747e-05
0.152807 	50.2573 	0.0825226 	4.33159e-05
0.153061 	50.2634 	0.0831088 	1.85782e-05
0.153315 	50.2694 	0.084548 	-9.50573e-06
0.15357 	50.2747 	0.08856 	-4.76822e-05
0.153824 	50.28 	0.0925719 	-8.58587e-05
0.154078 	50.2852 	0.0928622 	-8.002e-05
0.154332 	50.2903 	0.0903862 	-4.14638e-05
0.154587 	50.2954 	0.0879102 	-2.90757e-06
0.154841 	50.2998 	0.088231 	2.15688e-05
0.155095 	50.3042 	0.0887798 	4.48967e-05
0.155349 	50.3085 	0.0893287 	4.36957e-05
0.155604 	50.3129 	0.0898775 	2.06795e-05
0.155858 	50.3171 	0.0907809 	-4.35311e-06
0.156112 	50.3207 	0.0948225 	-4.72298e-05
0.156366 	50.3243 	0.0988641 	-9.01065e-05
0.156621 	50.3278 	0.0997025 	-9.14481e-05
0.156875 	50.3312 	0.0970957 	-4.81154e-05
0.157129 	50.3345 	0.0944889 	-4.78267e-06
0.157383 	50.3372 	0.094652 	1.90395e-05
0.157638 	50.3399 	0.0951588 	4.04412e-05
0.157892 	50.3425 	0.0956655 	4.32357e-05
0.158146 	50.3452 	0.0961723 	2.21381e-05
0.1584 	50.3478 	0.0966791 	1.04044e-06
0.158655 	50.3498 	0.100546 	-4.51025e-05
0.158909 	50.3517 	0.104588 	-9.25447e-05
0.159163 	50.3535 	0.105993 	-0.000102773
0.159417 	50.3552 	0.103276 	-5.47965e-05
0.159672 	50.3569 	0.100558 	-6.82017e-06
0.159926 	50.358 	0.100567 	1.65625e-05
0.16018 	50.3589 	0.101028 	3.58696e-05
0.160434 	50.3599 	0.101489 	4.18996e-05
0.160689 	50.3609 	0.101949 	2.28814e-05
0.160943 	50.3619 	0.10241 	3.86314e-06
0.161197 	50.3623 	0.105701 	-4.12523e-05
0.161451 	50.3626 	0.109713 	-9.30202e-05
0.161706 	50.3628 	0.11169 	-0.000113725
0.16196 	50.3629 	0.108879 	-6.13454e-05
0.162214 	50.3629 	0.106067 	-8.9657e-06
0.162468 	50.3624 	0.105926 	1.41206e-05
0.162723 	50.3618 	0.106336 	3.11574e-05
0.162977 	50.3611 	0.106747 	3.95699e-05
0.163231 	50.3605 	0.107158 	2.27995e-05
0.163485 	50.3599 	0.107568 	6.02904e-06
0.16374 	50.3588 	0.11025 	-3.56884e-05
0.163994 	50.3574 	0.114207 	-9.14084e-05
0.164248 	50.356 	0.116751 	-0.000123969
0.164503 	50.3545 	0.113865 	-6.75631e-05
0.164757 	50.3529 	0.110979 	-1.11571e-05
0.165011 	50.3508 	0.110695 	1.17812e-05
0.165265 	50.3485 	0.111054 	2.64673e-05
0.16552 	50.3463 	0.111412 	3.63804e-05
0.165774 	50.344 	0.11177 	2.19325e-05
0.166028 	50.3418 	0.112129 	7.48456e-06
0.166282 	50.3392 	0.114182 	-2.85869e-05
0.166537 	50.3362 	0.118058 	-8.79006e-05
0.166791 	50.3332 	0.121151 	-0.000133501
0.167045 	50.33 	0.118212 	-7.34316e-05
0.167299 	50.3269 	0.115273 	-1.33624e-05
0.167554 	50.3231 	0.114857 	9.57498e-06
0.167808 	50.3192 	0.115162 	2.18893e-05
0.168062 	50.3153 	0.115468 	3.24303e-05
0.168316 	50.3114 	0.115773 	2.03219e-05
0.168571 	50.3075 	0.116079 	8.21347e-06
0.168825 	50.3034 	0.117499 	-2.01428e-05
0.169079 	50.2988 	0.121268 	-8.27617e-05
0.169333 	50.2941 	0.124882 	-0.000142453
0.169588 	50.2893 	0.121915 	-7.90137e-05
0.169842 	50.2845 	0.118948 	-1.55748e-05
0.170096 	50.2791 	0.118411 	7.53656e-06
0.17035 	50.2735 	0.118665 	1.75255e-05
0.170605 	50.268 	0.118918 	2.75144e-05
0.170859 	50.2624 	0.119171 	1.80645e-05
0.171113 	50.2568 	0.119425 	8.24674e-06
0.171367 	50.2511 	0.12022 	-1.05255e-05
0.171622 	50.2448 	0.123858 	-7.63013e-05
0.171876 	50.2384 	0.127497 	-0.000142077
0.17213 	50.2319 	0.124981 	-8.44773e-05
0.172384 	50.2254 	0.122014 	-1.78209e-05
0.172639 	50.2183 	0.121368 	5.62526e-06
0.172893 	50.211 	0.121569 	1.33033e-05
0.173147 	50.2037 	0.121771 	2.09813e-05
0.173401 	50.1963 	0.121972 	1.51076e-05
0.173656 	50.189 	0.122174 	7.56365e-06
0.17391 	50.1817 	0.122375 	1.97157e-08
0.174164 	50.1736 	0.125846 	-6.86442e-05
0.174418 	50.1654 	0.129326 	-0.000137468
0.174673 	50.1572 	0.127411 	-8.98767e-05
0.174927 	50.1489 	0.124467 	-2.01158e-05
0.175181 	50.14 	0.123725 	3.816e-06
0.175435 	50.1308 	0.123874 	9.17821e-06
0.17569 	50.1217 	0.124023 	1.45404e-05
0.175944 	50.1125 	0.124172 	1.14082e-05
0.176198 	50.1034 	0.124321 	6.1409e-06
0.176452 	50.0943 	0.12447 	8.73633e-07
0.176707 	50.0844 	0.127244 	-5.98379e-05
0.176961 	50.0744 	0.130541 	-0.000131574
0.177215 	50.0642 	0.129203 	-9.51858e-05