0 	31.9364 	-2.73805e-07 	2.73432e-18
0.000254254 	31.9422 	-2.74167e-07 	5.30494e-15
0.000508509 	31.948 	-2.74167e-07 	5.30494e-15
0.000762763 	31.9538 	-2.74167e-07 	5.30494e-15
0.00101702 	31.9596 	-2.74167e-07 	5.30494e-15
0.00127127 	31.9653 	-2.74167e-07 	5.30493e-15
0.00152553 	31.9711 	-2.74167e-07 	5.30493e-15
0.00177978 	31.9769 	-2.74167e-07 	5.30493e-15
0.00203403 	31.9827 	-2.74167e-07 	5.30493e-15
0.00228829 	31.9885 	-2.74167e-07 	5.30493e-15
0.00254254 	31.9942 	-2.74167e-07 	5.30493e-15
0.0027968 	32.0077 	-2.79612e-07 	5.3094e-15
0.00305105 	32.0219 	-2.79612e-07 	5.3094e-15
0.00330531 	32.0361 	-2.79612e-07 	5.3094e-15
0.00355956 	32.0503 	-2.79612e-07 	5.30939e-15
0.00381381 	32.0645 	-2.79612e-07 	5.30939e-15
0.00406807 	32.0788 	-2.79612e-07 	5.30939e-15
0.00432232 	32.093 	-2.79612e-07 	5.30939e-15
0.00457658 	32.1072 	-2.79612e-07 	5.30939e-15
0.00483083 	32.1214 	-2.79612e-07 	5.30939e-15
0.00508509 	32.1356 	-2.79612e-07 	5.30939e-15
0.00533934 	32.1524 	-3.02992e-07 	5.36486e-15
0.00559359 	32.1697 	-3.02992e-07 	5.36486e-15
0.00584785 	32.187 	-3.02992e-07 	5.36486e-15
0.0061021 	32.2043 	-3.02992e-07 	5.36486e-15
0.00635636 	32.2216 	-3.02992e-07 	5.36486e-15
0.00661061 	32.2389 	-3.02992e-07 	5.36486e-15
0.00686486 	32.2562 	-3.02992e-07 	5.36486e-15
0.00711912 	32.2735 	-3.02992e-07 	5.36486e-15
0.00737337 	32.2908 	-3.02992e-07 	5.36486e-15
0.00762763 	32.3081 	-3.02992e-07 	5.36485e-15
0.00788188 	32.3261 	-3.43394e-07 	5.37952e-15
0.00813614 	32.3445 	-3.43394e-07 	5.37952e-15
0.00839039 	32.3628 	-3.43394e-07 	5.37952e-15
0.00864464 	32.3811 	-3.43394e-07 	5.37952e-15
0.0088989 	32.3995 	-3.43394e-07 	5.37952e-15
0.00915315 	32.4178 	-3.43394e-07 	5.37952e-15
0.00940741 	32.4361 	-3.43394e-07 	5.37952e-15
0.00966166 	32.4545 	-3.43394e-07 	5.37952e-15
0.00991592 	32.4728 	-3.43394e-07 	5.37952e-15
0.0101702 	32.4911 	-3.43394e-07 	5.37951e-15
0.0104244 	32.5106 	-3.96956e-07 	5.45382e-15
0.0106787 	32.5308 	-3.96956e-07 	5.45382e-15
0.0109329 	32.551 	-3.96956e-07 	5.45382e-15
0.0111872 	32.5711 	-3.96956e-07 	5.45382e-15
0.0114414 	32.5913 	-3.96956e-07 	5.45382e-15
0.0116957 	32.6115 	-3.96956e-07 	5.45381e-15
0.0119499 	32.6317 	-3.96956e-07 	5.45381e-15
0.0122042 	32.6518 	-3.96956e-07 	5.45381e-15
0.0124585 	32.672 	-3.96956e-07 	5.45381e-15
0.0127127 	32.6922 	-3.96956e-07 	5.45381e-15
0.012967 	32.7139 	-4.60207e-07 	5.52283e-15
0.0132212 	32.737 	-4.60207e-07 	5.52283e-15
0.0134755 	32.7601 	-4.60207e-07 	5.52282e-15
0.0137297 	32.7832 	-4.60207e-07 	5.52282e-15
0.013984 	32.8063 	-4.60207e-07 	5.52282e-15
0.0142382 	32.8294 	-4.60207e-07 	5.52282e-15
0.0144925 	32.8525 	-4.60207e-07 	5.52282e-15
0.0147467 	32.8756 	-4.60207e-07 	5.52282e-15
0.015001 	32.8987 	-4.60207e-07 	5.52281e-15
0.0152553 	32.9218 	-4.60207e-07 	5.52281e-15
0.0155095 	32.9465 	-5.30517e-07 	5.55934e-15
0.0157638 	32.9733 	-5.30517e-07 	5.55934e-15
0.016018 	33 	-5.30517e-07 	5.55934e-15
0.0162723 	33.0267 	-5.30517e-07 	5.55933e-15
0.0165265 	33.0534 	-5.30517e-07 	5.55933e-15
0.0167808 	33.0801 	-5.30517e-07 	5.55933e-15
0.017035 	33.1068 	-5.30517e-07 	5.55933e-15
0.0172893 	33.1335 	-5.30517e-07 	5.55933e-15
0.0175435 	33.1602 	-5.30517e-07 	5.55933e-15
0.0177978 	33.187 	-5.30517e-07 	5.55932e-15
0.0180521 	33.2151 	-6.06048e-07 	5.60366e-15
0.0183063 	33.2458 	-6.06048e-07 	5.60366e-15
0.0185606 	33.2765 	-6.06048e-07 	5.60366e-15
0.0188148 	33.3072 	-6.06048e-07 	5.60366e-15
0.0190691 	33.3379 	-6.06048e-07 	5.60366e-15
0.0193233 	33.3686 	-6.06048e-07 	5.60365e-15
0.0195776 	33.3993 	-6.06048e-07 	5.60365e-15
0.0198318 	33.4301 	-6.06048e-07 	5.60365e-15
0.0200861 	33.4608 	-6.06048e-07 	5.60365e-15
0.0203403 	33.4915 	-6.06048e-07 	5.60365e-15
0.0205946 	33.5233 	-6.85644e-07 	5.65595e-15
0.0208488 	33.5583 	-6.85644e-07 	5.65595e-15
0.0211031 	33.5932 	-6.85644e-07 	5.65595e-15
0.0213574 	33.6281 	-6.85644e-07 	5.65595e-15
0.0216116 	33.663 	-6.85644e-07 	5.65594e-15
0.0218659 	33.698 	-6.85644e-07 	5.65594e-15
0.0221201 	33.7329 	-6.85644e-07 	5.65594e-15
0.0223744 	33.7678 	-6.85644e-07 	5.65594e-15
0.0226286 	33.8028 	-6.85644e-07 	5.65593e-15
0.0228829 	33.8377 	-6.85644e-07 	5.65593e-15
0.0231371 	33.8734 	-7.68636e-07 	5.7168e-15
0.0233914 	33.9128 	-7.68636e-07 	5.7168e-15
0.0236456 	33.9521 	-7.68636e-07 	5.7168e-15
0.0238999 	33.9915 	-7.68636e-07 	5.71679e-15
0.0241542 	34.0308 	-7.68636e-07 	5.71679e-15
0.0244084 	34.0702 	-7.68636e-07 	5.71679e-15
0.0246627 	34.1095 	-7.68636e-07 	5.71679e-15
0.0249169 	34.1489 	-7.68636e-07 	5.71678e-15
0.0251712 	34.1882 	-7.68636e-07 	5.71678e-15
0.0254254 	34.2276 	-7.68636e-07 	5.71678e-15
0.0256797 	34.2673 	-8.54477e-07 	5.7861e-15
0.0259339 	34.3113 	-8.54477e-07 	5.7861e-15
0.0261882 	34.3552 	-8.54477e-07 	5.7861e-15
0.0264424 	34.3992 	-8.54477e-07 	5.78609e-15
0.0266967 	34.4431 	-8.54477e-07 	5.78609e-15
0.026951 	34.4871 	-8.54477e-07 	5.78609e-15
0.0272052 	34.531 	-8.54477e-07 	5.78609e-15
0.0274595 	34.575 	-8.54477e-07 	5.78608e-15
0.0277137 	34.6189 	-8.54477e-07 	5.78608e-15
0.027968 	34.6628 	-8.54477e-07 	5.78608e-15
0.0282222 	34.7068 	-9.92754e-07 	1.28858e-18
0.0284765 	34.7555 	-9.41839e-07 	5.86389e-15
0.0287307 	34.8042 	-9.41839e-07 	5.86389e-15
0.028985 	34.8529 	-9.41839e-07 	5.86388e-15
0.0292392 	34.9017 	-9.41839e-07 	5.86388e-15
0.0294935 	34.9504 	-9.41839e-07 	5.86388e-15
0.0297477 	34.9991 	-9.41839e-07 	5.86388e-15
0.030002 	35.0478 	-9.41839e-07 	5.86387e-15
0.0302563 	35.0965 	-9.41839e-07 	5.86387e-15
0.0305105 	35.1453 	-9.41839e-07 	5.86387e-15
0.0307648 	35.194 	-9.41839e-07 	5.86386e-15
0.031019 	35.2472 	-1.02867e-06 	6.00088e-15
0.0312733 	35.3009 	-1.02867e-06 	6.00088e-15
0.0315275 	35.3546 	-1.02867e-06 	6.00087e-15
0.0317818 	35.4082 	-1.02867e-06 	6.00087e-15
0.032036 	35.4619 	-1.02867e-06 	6.00087e-15
0.0322903 	35.5156 	-1.02867e-06 	6.00086e-15
0.0325445 	35.5693 	-1.02867e-06 	6.00086e-15
0.0327988 	35.6229 	-1.02867e-06 	6.00086e-15
0.0330531 	35.6766 	-1.02867e-06 	6.00085e-15
0.0333073 	35.7303 	-1.02867e-06 	6.00085e-15
0.0335616 	35.7882 	-1.11691e-06 	6.05338e-15
0.0338158 	35.847 	-1.11691e-06 	6.05337e-15
0.0340701 	35.9058 	-1.11691e-06 	6.05337e-15
0.0343243 	35.9646 	-1.11691e-06 	6.05337e-15
0.0345786 	36.0235 	-1.11691e-06 	6.05336e-15
0.0348328 	36.0823 	-1.11691e-06 	6.05336e-15
0.0350871 	36.1411 	-1.11691e-06 	6.05336e-15
0.0353413 	36.1999 	-1.11691e-06 	6.05335e-15
0.0355956 	36.2587 	-1.11691e-06 	6.05335e-15
0.0358498 	36.3176 	-1.11691e-06 	6.05334e-15
0.0361041 	36.3803 	-1.2077e-06 	6.20383e-15
0.0363584 	36.4444 	-1.2077e-06 	6.20382e-15
0.0366126 	36.5086 	-1.2077e-06 	6.20382e-15
0.0368669 	36.5728 	-1.2077e-06 	6.20381e-15
0.0371211 	36.6369 	-1.2077e-06 	6.20381e-15
0.0373754 	36.7011 	-1.2077e-06 	6.2038e-15
0.0376296 	36.7652 	-1.2077e-06 	6.2038e-15
0.0378839 	36.8294 	-1.2077e-06 	6.2038e-15
0.0381381 	36.8936 	-1.2077e-06 	6.20379e-15
0.0383924 	36.9577 	-1.2077e-06 	6.20379e-15
0.0386466 	37.0254 	-1.30291e-06 	6.35268e-15
0.0389009 	37.0951 	-1.30291e-06 	6.35267e-15
0.0391552 	37.1648 	-1.30291e-06 	6.35267e-15
0.0394094 	37.2345 	-1.30291e-06 	6.35266e-15
0.0396637 	37.3042 	-1.30291e-06 	6.35266e-15
0.0399179 	37.374 	-1.30291e-06 	6.35265e-15
0.0401722 	37.4437 	-1.30291e-06 	6.35265e-15
0.0404264 	37.5134 	-1.30291e-06 	6.35264e-15
0.0406807 	37.5831 	-1.30291e-06 	6.35264e-15
0.0409349 	37.6528 	-1.30291e-06 	6.35264e-15
0.0411892 	37.7256 	-1.40193e-06 	6.52903e-15
0.0414434 	37.8011 	-1.40193e-06 	6.52902e-15
0.0416977 	37.8766 	-1.40193e-06 	6.52902e-15
0.041952 	37.952 	-1.40193e-06 	6.52901e-15
0.0422062 	38.0275 	-1.40193e-06 	6.52901e-15
0.0424605 	38.103 	-1.40193e-06 	6.529e-15
0.0427147 	38.1785 	-1.40193e-06 	6.529e-15
0.042969 	38.2539 	-1.40193e-06 	6.52899e-15
0.0432232 	38.3294 	-1.40193e-06 	6.52899e-15
0.0434775 	38.4049 	-1.40193e-06 	6.52898e-15
0.0437317 	38.4831 	-1.5044e-06 	6.66449e-15
0.043986 	38.5645 	-1.5044e-06 	6.66448e-15
0.0442402 	38.646 	-1.5044e-06 	6.66447e-15
0.0444945 	38.7274 	-1.5044e-06 	6.66447e-15
0.0447487 	38.8089 	-1.5044e-06 	6.66446e-15
0.045003 	38.8904 	-1.5044e-06 	6.66446e-15
0.0452573 	38.9718 	-1.5044e-06 	6.66445e-15
0.0455115 	39.0533 	-1.5044e-06 	6.66445e-15
0.0457658 	39.1347 	-1.5044e-06 	6.66444e-15
0.04602 	39.2162 	-1.5044e-06 	6.66444e-15
0.0462743 	39.2999 	-1.6102e-06 	6.77822e-15
0.0465285 	39.3876 	-1.6102e-06 	6.77822e-15
0.0467828 	39.4753 	-1.6102e-06 	6.77821e-15
0.047037 	39.563 	-1.6102e-06 	6.77821e-15
0.0472913 	39.6507 	-1.6102e-06 	6.7782e-15
0.0475455 	39.7384 	-1.6102e-06 	6.77819e-15
0.0477998 	39.826 	-1.6102e-06 	6.77819e-15
0.0480541 	39.9137 	-1.6102e-06 	6.77818e-15
0.0483083 	40.0014 	-1.6102e-06 	6.77818e-15
0.0485626 	40.0891 	-1.6102e-06 	6.77817e-15
0.0488168 	40.1786 	-1.71918e-06 	6.89048e-15
0.0490711 	40.2727 	-1.71918e-06 	6.89048e-15
0.0493253 	40.3669 	-1.71918e-06 	6.89047e-15
0.0495796 	40.461 	-1.71918e-06 	6.89046e-15
0.0498338 	40.5552 	-1.71918e-06 	6.89046e-15
0.0500881 	40.6494 	-1.71918e-06 	6.89045e-15
0.0503423 	40.7435 	-1.71918e-06 	6.89045e-15
0.0505966 	40.8377 	-1.71918e-06 	6.89044e-15
0.0508509 	40.9318 	-1.71918e-06 	6.89043e-15
0.0511051 	41.026 	-1.71918e-06 	6.89043e-15
0.0513594 	41.1214 	-1.83109e-06 	7.06298e-15
0.0516136 	41.2223 	-1.83109e-06 	7.06297e-15
0.0518679 	41.3232 	-1.83109e-06 	7.06297e-15
0.0521221 	41.424 	-1.83109e-06 	7.06296e-15
0.0523764 	41.5249 	-1.83109e-06 	7.06295e-15
0.0526306 	41.6258 	-1.83109e-06 	7.06295e-15
0.0528849 	41.7267 	-1.83109e-06 	7.06294e-15
0.0531391 	41.8276 	-1.83109e-06 	7.06293e-15
0.0533934 	41.9285 	-1.83109e-06 	7.06293e-15
0.0536476 	42.0294 	-1.83109e-06 	7.06292e-15
0.0539019 	42.1309 	-1.94544e-06 	7.19333e-15
0.0541562 	42.2387 	-1.94544e-06 	7.19333e-15
0.0544104 	42.3466 	-1.94544e-06 	7.19332e-15
0.0546647 	42.4545 	-1.94544e-06 	7.19331e-15
0.0549189 	42.5623 	-1.94544e-06 	7.19331e-15
0.0551732 	42.6702 	-1.94544e-06 	7.1933e-15
0.0554274 	42.7781 	-1.94544e-06 	7.19329e-15
0.0556817 	42.886 	-1.94544e-06 	7.19328e-15
0.0559359 	42.9938 	-1.94544e-06 	7.19328e-15
0.0561902 	43.1017 	-1.94544e-06 	7.19327e-15
0.0564444 	43.2096 	-2.31571e-06 	6.47547e-19
0.0566987 	43.3247 	-2.06151e-06 	7.39221e-15
0.056953 	43.4398 	-2.06151e-06 	7.3922e-15
0.0572072 	43.5549 	-2.06151e-06 	7.39219e-15
0.0574615 	43.67 	-2.06151e-06 	7.39219e-15
0.0577157 	43.7851 	-2.06151e-06 	7.39218e-15
0.05797 	43.9002 	-2.06151e-06 	7.39217e-15
0.0582242 	44.0153 	-2.06151e-06 	7.39216e-15
0.0584785 	44.1304 	-2.06151e-06 	7.39216e-15
0.0587327 	44.2455 	-2.06151e-06 	7.39215e-15
0.058987 	44.3606 	-2.06151e-06 	7.39214e-15
0.0592412 	44.4825 	-2.17824e-06 	7.59716e-15
0.0594955 	44.6051 	-2.17824e-06 	7.59715e-15
0.0597497 	44.7277 	-2.17824e-06 	7.59715e-15
0.060004 	44.8503 	-2.17824e-06 	7.59714e-15
0.0602583 	44.9729 	-2.17824e-06 	7.59713e-15
0.0605125 	45.0955 	-2.17824e-06 	7.59712e-15
0.0607668 	45.2181 	-2.17824e-06 	7.59711e-15
0.061021 	45.3407 	-2.17824e-06 	7.59711e-15
0.0612753 	45.4633 	-2.17824e-06 	7.5971e-15
0.0615295 	45.5859 	-2.17824e-06 	7.59709e-15
0.0617838 	45.7149 	-2.29573e-06 	7.86508e-15
0.062038 	45.8452 	-2.29573e-06 	7.86507e-15
0.0622923 	45.9756 	-2.29573e-06 	7.86507e-15
0.0625465 	46.1059 	-2.29573e-06 	7.86506e-15
0.0628008 	46.2362 	-2.29573e-06 	7.86505e-15
0.0630551 	46.3666 	-2.29573e-06 	7.86504e-15
0.0633093 	46.4969 	-2.29573e-06 	7.86503e-15
0.0635636 	46.6273 	-2.29573e-06 	7.86502e-15
0.0638178 	46.7576 	-2.29573e-06 	7.86502e-15
0.0640721 	46.8879 	-2.29573e-06 	7.86501e-15
0.0643263 	47.0241 	-2.41378e-06 	8.05366e-15
0.0645806 	47.1624 	-2.41378e-06 	8.05365e-15
0.0648348 	47.3007 	-2.41378e-06 	8.05364e-15
0.0650891 	47.439 	-2.41378e-06 	8.05363e-15
0.0653433 	47.5773 	-2.41378e-06 	8.05362e-15
0.0655976 	47.7156 	-2.41378e-06 	8.05361e-15
0.0658519 	47.8539 	-2.41378e-06 	8.0536e-15
0.0661061 	47.9922 	-2.41378e-06 	8.05359e-15
0.0663604 	48.1306 	-2.41378e-06 	8.05358e-15
0.0666146 	48.2689 	-2.41378e-06 	8.05358e-15
0.0668689 	48.4124 	-2.53181e-06 	8.29597e-15
0.0671231 	48.5589 	-2.53181e-06 	8.29596e-15
0.0673774 	48.7054 	-2.53181e-06 	8.29596e-15
0.0676316 	48.8519 	-2.53181e-06 	8.29595e-15
0.0678859 	48.9984 	-2.53181e-06 	8.29594e-15
0.0681401 	49.1449 	-2.53181e-06 	8.29593e-15
0.0683944 	49.2914 	-2.53181e-06 	8.29592e-15
0.0686486 	49.4379 	-2.53181e-06 	8.29591e-15
0.0689029 	49.5844 	-2.53181e-06 	8.2959e-15
0.0691572 	49.7309 	-2.53181e-06 	8.29589e-15
0.0694114 	49.882 	-2.64775e-06 	8.54889e-15
0.0696657 	50.037 	-2.64775e-06 	8.54888e-15
0.0699199 	50.1919 	-2.64775e-06 	8.54887e-15
0.0701742 	50.3468 	-2.64775e-06 	8.54886e-15
0.0704284 	50.5017 	-2.64775e-06 	8.54885e-15
0.0706827 	50.6567 	-2.64775e-06 	8.54884e-15
0.0709369 	50.8116 	-2.64775e-06 	8.54883e-15
0.0711912 	50.9665 	-2.64775e-06 	8.54882e-15
0.0714454 	51.1214 	-2.64775e-06 	8.54881e-15
0.0716997 	51.2764 	-2.64775e-06 	8.5488e-15
0.071954 	51.4352 	-2.75208e-06 	8.81299e-15
0.0722082 	51.5987 	-2.75208e-06 	8.81298e-15
0.0724625 	51.7622 	-2.75208e-06 	8.81297e-15
0.0727167 	51.9258 	-2.75208e-06 	8.81296e-15
0.072971 	52.0893 	-2.75208e-06 	8.81295e-15
0.0732252 	52.2528 	-2.75208e-06 	8.81294e-15
0.0734795 	52.4163 	-2.75208e-06 	8.81293e-15
0.0737337 	52.5799 	-2.75208e-06 	8.81292e-15
0.073988 	52.7434 	-2.75208e-06 	8.81291e-15
0.0742422 	52.9069 	-2.75208e-06 	8.8129e-15
0.0744965 	53.0736 	-2.83788e-06 	9.08795e-15
0.0747508 	53.2459 	-2.83788e-06 	9.08794e-15
0.075005 	53.4181 	-2.83788e-06 	9.08793e-15
0.0752593 	53.5903 	-2.83788e-06 	9.08792e-15
0.0755135 	53.7626 	-2.83788e-06 	9.08791e-15
0.0757678 	53.9348 	-2.83788e-06 	9.0879e-15
0.076022 	54.1071 	-2.83788e-06 	9.08789e-15
0.0762763 	54.2793 	-2.83788e-06 	9.08787e-15
0.0765305 	54.4515 	-2.83788e-06 	9.08786e-15
0.0767848 	54.6238 	-2.83788e-06 	9.08785e-15
0.077039 	54.7984 	-2.89729e-06 	9.31855e-15
0.0772933 	54.9793 	-2.89729e-06 	9.31854e-15
0.0775475 	55.1603 	-2.89729e-06 	9.31853e-15
0.0778018 	55.3412 	-2.89729e-06 	9.31852e-15
0.0780561 	55.5222 	-2.89729e-06 	9.3185e-15
0.0783103 	55.7031 	-2.89729e-06 	9.31849e-15
0.0785646 	55.8841 	-2.89729e-06 	9.31848e-15
0.0788188 	56.065 	-2.89729e-06 	9.31847e-15
0.0790731 	56.246 	-2.89729e-06 	9.31846e-15
0.0793273 	56.4269 	-2.89729e-06 	9.31845e-15
0.0795816 	56.6094 	-2.92557e-06 	9.6106e-15
0.0798358 	56.799 	-2.92557e-06 	9.61059e-15
0.0800901 	56.9885 	-2.92557e-06 	9.61058e-15
0.0803443 	57.178 	-2.92557e-06 	9.61057e-15
0.0805986 	57.3675 	-2.92557e-06 	9.61055e-15
0.0808529 	57.5571 	-2.92557e-06 	9.61054e-15
0.0811071 	57.7466 	-2.92557e-06 	9.61053e-15
0.0813614 	57.9361 	-2.92557e-06 	9.61052e-15
0.0816156 	58.1257 	-2.92557e-06 	9.61051e-15
0.0818699 	58.3152 	-2.92557e-06 	9.61049e-15
0.0821241 	58.5055 	-2.93217e-06 	9.90897e-15
0.0823784 	58.7034 	-2.93217e-06 	9.90895e-15
0.0826326 	58.9013 	-2.93217e-06 	9.90894e-15
0.0828869 	59.0992 	-2.93217e-06 	9.90893e-15
0.0831411 	59.2971 	-2.93217e-06 	9.90891e-15
0.0833954 	59.495 	-2.93217e-06 	9.9089e-15
0.0836496 	59.6929 	-2.93217e-06 	9.90889e-15
0.0839039 	59.8908 	-2.93217e-06 	9.90888e-15
0.0841582 	60.0888 	-2.93217e-06 	9.90886e-15
0.0844124 	60.2867 	-2.93217e-06 	9.90885e-15
0.0846667 	60.4846 	-3.84789e-06 	2.8645e-17
0.0849209 	60.6906 	-2.92448e-06 	1.02098e-14
0.0851752 	60.8966 	-2.92448e-06 	1.02098e-14
0.0854294 	61.1026 	-2.92448e-06 	1.02098e-14
0.0856837 	61.3086 	-2.92448e-06 	1.02098e-14
0.0859379 	61.5146 	-2.92448e-06 	1.02098e-14
0.0861922 	61.7206 	-2.92448e-06 	1.02098e-14
0.0864464 	61.9266 	-2.92448e-06 	1.02097e-14
0.0867007 	62.1326 	-2.92448e-06 	1.02097e-14
0.086955 	62.3385 	-2.92448e-06 	1.02097e-14
0.0872092 	62.5445 	-2.92448e-06 	1.02097e-14
0.0874635 	62.7575 	-2.94061e-06 	1.05137e-14
0.0877177 	62.9711 	-2.94061e-06 	1.05137e-14
0.087972 	63.1848 	-2.94061e-06 	1.05137e-14
0.0882262 	63.3984 	-2.94061e-06 	1.05137e-14
0.0884805 	63.612 	-2.94061e-06 	1.05137e-14
0.0887347 	63.8257 	-2.94061e-06 	1.05137e-14
0.088989 	64.0393 	-2.94061e-06 	1.05137e-14
0.0892432 	64.2529 	-2.94061e-06 	1.05136e-14
0.0894975 	64.4666 	-2.94061e-06 	1.05136e-14
0.0897518 	64.6802 	-2.94061e-06 	1.05136e-14
0.090006 	64.8996 	-2.95515e-06 	1.08193e-14
0.0902603 	65.1203 	-2.95515e-06 	1.08193e-14
0.0905145 	65.341 	-2.95515e-06 	1.08193e-14
0.0907688 	65.5618 	-2.95515e-06 	1.08193e-14
0.091023 	65.7825 	-2.95515e-06 	1.08193e-14
0.0912773 	66.0032 	-2.95515e-06 	1.08192e-14
0.0915315 	66.2239 	-2.95515e-06 	1.08192e-14
0.0917858 	66.4446 	-2.95515e-06 	1.08192e-14
0.09204 	66.6653 	-2.95515e-06 	1.08192e-14
0.0922943 	66.886 	-2.95515e-06 	1.08192e-14
0.0925485 	67.1113 	-2.93983e-06 	1.11244e-14
0.0928028 	67.3383 	-2.93983e-06 	1.11243e-14
0.0930571 	67.5654 	-2.93983e-06 	1.11243e-14
0.0933113 	67.7924 	-2.93983e-06 	1.11243e-14
0.0935656 	68.0194 	-2.93983e-06 	1.11243e-14
0.0938198 	68.2464 	-2.93983e-06 	1.11243e-14
0.0940741 	68.4735 	-2.93983e-06 	1.11243e-14
0.0943283 	68.7005 	-2.93983e-06 	1.11243e-14
0.0945826 	68.9275 	-2.93983e-06 	1.11242e-14
0.0948368 	69.1546 	-2.93983e-06 	1.11242e-14
0.0950911 	69.3849 	-2.89891e-06 	1.13781e-14
0.0953453 	69.6172 	-2.89891e-06 	1.13781e-14
0.0955996 	69.8495 	-2.89891e-06 	1.13781e-14
0.0958539 	70.0818 	-2.89891e-06 	1.1378e-14
0.0961081 	70.314 	-2.89891e-06 	1.1378e-14
0.0963624 	70.5463 	-2.89891e-06 	1.1378e-14
0.0966166 	70.7786 	-2.89891e-06 	1.1378e-14
0.0968709 	71.0109 	-2.89891e-06 	1.1378e-14
0.0971251 	71.2432 	-2.89891e-06 	1.1378e-14
0.0973794 	71.4754 	-2.89891e-06 	1.1378e-14
0.0976336 	71.7098 	-2.8258e-06 	1.17239e-14
0.0978879 	71.9459 	-2.8258e-06 	1.17239e-14
0.0981421 	72.182 	-2.8258e-06 	1.17239e-14
0.0983964 	72.418 	-2.8258e-06 	1.17238e-14
0.0986507 	72.6541 	-2.8258e-06 	1.17238e-14
0.0989049 	72.8902 	-2.8258e-06 	1.17238e-14
0.0991592 	73.1263 	-2.8258e-06 	1.17238e-14
0.0994134 	73.3623 	-2.8258e-06 	1.17238e-14
0.0996677 	73.5984 	-2.8258e-06 	1.17238e-14
0.0999219 	73.8345 	-2.8258e-06 	1.17238e-14
0.100176 	74.0715 	-2.7135e-06 	1.20554e-14
0.10043 	74.3096 	-2.7135e-06 	1.20554e-14
0.100685 	74.5477 	-2.7135e-06 	1.20554e-14
0.100939 	74.7857 	-2.7135e-06 	1.20554e-14
0.101193 	75.0238 	-2.7135e-06 	1.20554e-14
0.101447 	75.2619 	-2.7135e-06 	1.20554e-14
0.101702 	75.5 	-2.7135e-06 	1.20554e-14
0.101956 	75.7381 	-2.7135e-06 	1.20553e-14
0.10221 	75.9761 	-2.7135e-06 	1.20553e-14
0.102464 	76.2142 	-2.7135e-06 	1.20553e-14
0.102719 	76.4522 	-2.53916e-06 	1.23319e-14
0.102973 	76.6902 	-2.53916e-06 	1.23319e-14
0.103227 	76.9281 	-2.53916e-06 	1.23319e-14
0.103481 	77.166 	-2.53916e-06 	1.23319e-14
0.103736 	77.4039 	-2.53916e-06 	1.23319e-14
0.10399 	77.6419 	-2.53916e-06 	1.23318e-14
0.104244 	77.8798 	-2.53916e-06 	1.23318e-14
0.104498 	78.1177 	-2.53916e-06 	1.23318e-14
0.104753 	78.3556 	-2.53916e-06 	1.23318e-14
0.105007 	78.5936 	-2.53916e-06 	1.23318e-14
0.105261 	78.8308 	-2.35526e-06 	1.26363e-14
0.105516 	79.0661 	-2.35526e-06 	1.26362e-14
0.10577 	79.3014 	-2.35526e-06 	1.26362e-14
0.106024 	79.5368 	-2.35526e-06 	1.26362e-14
0.106278 	79.7721 	-2.35526e-06 	1.26362e-14
0.106533 	80.0074 	-2.35526e-06 	1.26362e-14
0.106787 	80.2428 	-2.35526e-06 	1.26362e-14
0.107041 	80.4781 	-2.35526e-06 	1.26361e-14
0.107295 	80.7134 	-2.35526e-06 	1.26361e-14
0.10755 	80.9488 	-2.35526e-06 	1.26361e-14
0.107804 	81.1832 	-2.07597e-06 	1.29103e-14
0.108058 	81.4134 	-2.07597e-06 	1.29103e-14
0.108312 	81.6436 	-2.07597e-06 	1.29102e-14
0.108567 	81.8737 	-2.07597e-06 	1.29102e-14
0.108821 	82.1039 	-2.07597e-06 	1.29102e-14
0.109075 	82.3341 	-2.07597e-06 	1.29102e-14
0.109329 	82.5643 	-2.07597e-06 	1.29102e-14
0.109584 	82.7945 	-2.07597e-06 	1.29102e-14
0.109838 	83.0247 	-2.07597e-06 	1.29102e-14
0.110092 	83.2549 	-2.07597e-06 	1.29101e-14
0.110346 	83.4843 	-1.76078e-06 	1.31026e-14
0.110601 	83.7066 	-1.76078e-06 	1.31026e-14
0.110855 	83.9288 	-1.76078e-06 	1.31026e-14
0.111109 	84.151 	-1.76078e-06 	1.31026e-14
0.111363 	84.3732 	-1.76078e-06 	1.31025e-14
0.111618 	84.5954 	-1.76078e-06 	1.31025e-14
0.111872 	84.8177 	-1.76078e-06 	1.31025e-14
0.112126 	85.0399 	-1.76078e-06 	1.31025e-14
0.11238 	85.2621 	-1.76078e-06 	1.31025e-14
0.112635 	85.4843 	-1.76078e-06 	1.31025e-14
0.112889 	85.7066 	-2.87322e-06 	5.23691e-17
0.113143 	85.9177 	-1.42806e-06 	1.3269e-14
0.113397 	86.1288 	-1.42806e-06 	1.32689e-14
0.113652 	86.3399 	-1.42806e-06 	1.32689e-14
0.113906 	86.5511 	-1.42806e-06 	1.32689e-14
0.11416 	86.7622 	-1.42806e-06 	1.32689e-14
0.114414 	86.9733 	-1.42806e-06 	1.32689e-14
0.114669 	87.1845 	-1.42806e-06 	1.32689e-14
0.114923 	87.3956 	-1.42806e-06 	1.32689e-14
0.115177 	87.6067 	-1.42806e-06 	1.32688e-14
0.115431 	87.8178 	-1.42806e-06 	1.32688e-14
0.115686 	88.0159 	-1.01763e-06 	1.3396e-14
0.11594 	88.2126 	-1.01763e-06 	1.3396e-14
0.116194 	88.4094 	-1.01763e-06 	1.3396e-14
0.116448 	88.6061 	-1.01763e-06 	1.3396e-14
0.116703 	88.8028 	-1.01763e-06 	1.33959e-14
0.116957 	88.9996 	-1.01763e-06 	1.33959e-14
0.117211 	89.1963 	-1.01763e-06 	1.33959e-14
0.117465 	89.393 	-1.01763e-06 	1.33959e-14
0.11772 	89.5898 	-1.01763e-06 	1.33959e-14
0.117974 	89.7865 	-1.01763e-06 	1.33959e-14
0.118228 	89.9686 	-6.05691e-07 	1.3483e-14
0.118482 	90.1475 	-6.05691e-07 	1.3483e-14
0.118737 	90.3264 	-6.05691e-07 	1.34829e-14
0.118991 	90.5053 	-6.05691e-07 	1.34829e-14
0.119245 	90.6841 	-6.05691e-07 	1.34829e-14
0.119499 	90.863 	-6.05691e-07 	1.34829e-14
0.119754 	91.0419 	-6.05691e-07 	1.34829e-14
0.120008 	91.2208 	-6.05691e-07 	1.34829e-14
0.120262 	91.3996 	-6.05691e-07 	1.34829e-14
0.120517 	91.5785 	-6.05691e-07 	1.34829e-14
0.120771 	91.742 	-1.927e-07 	1.35291e-14
0.121025 	91.8996 	-1.927e-07 	1.35291e-14
0.121279 	92.0572 	-1.927e-07 	1.35291e-14
0.121534 	92.2149 	-1.927e-07 	1.3529e-14
0.121788 	92.3725 	-1.927e-07 	1.3529e-14
0.122042 	92.5302 	-1.927e-07 	1.3529e-14
0.122296 	92.6878 	-1.927e-07 	1.3529e-14
0.122551 	92.8454 	-1.927e-07 	1.3529e-14
0.122805 	93.0031 	-1.927e-07 	1.3529e-14
0.123059 	93.1607 	-1.927e-07 	1.3529e-14
0.123313 	93.3029 	2.21241e-07 	1.3534e-14
0.123568 	93.4363 	2.21241e-07 	1.3534e-14
0.123822 	93.5698 	2.21241e-07 	1.3534e-14
0.124076 	93.7032 	2.21241e-07 	1.3534e-14
0.12433 	93.8366 	2.21241e-07 	1.3534e-14
0.124585 	93.97 	2.21241e-07 	1.3534e-14
0.124839 	94.1034 	2.21241e-07 	1.3534e-14
0.125093 	94.2368 	2.21241e-07 	1.3534e-14
0.125347 	94.3702 	2.21241e-07 	1.35339e-14
0.125602 	94.5037 	2.21241e-07 	1.35339e-14
0.125856 	94.6226 	5.96602e-07 	1.35018e-14
0.12611 	94.7295 	5.96602e-07 	1.35018e-14
0.126364 	94.8364 	5.96602e-07 	1.35018e-14
0.126619 	94.9433 	5.96602e-07 	1.35018e-14
0.126873 	95.0502 	5.96602e-07 	1.35018e-14
0.127127 	95.1571 	5.96602e-07 	1.35017e-14
0.127381 	95.264 	5.96602e-07 	1.35017e-14
0.127636 	95.3709 	5.96602e-07 	1.35017e-14
0.12789 	95.4778 	5.96602e-07 	1.35017e-14
0.128144 	95.5847 	5.96602e-07 	1.35017e-14
0.128398 	95.6789 	9.25501e-07 	1.34419e-14
0.128653 	95.7581 	9.25501e-07 	1.34419e-14
0.128907 	95.8372 	9.25501e-07 	1.34419e-14
0.129161 	95.9163 	9.25501e-07 	1.34419e-14
0.129415 	95.9954 	9.25501e-07 	1.34419e-14
0.12967 	96.0745 	9.25501e-07 	1.34419e-14
0.129924 	96.1536 	9.25501e-07 	1.34419e-14
0.130178 	96.2328 	9.25501e-07 	1.34418e-14
0.130432 	96.3119 	9.25501e-07 	1.34418e-14
0.130687 	96.391 	9.25501e-07 	1.34418e-14
0.130941 	96.46 	1.20492e-06 	1.33626e-14
0.131195 	96.5112 	1.20492e-06 	1.33626e-14
0.131449 	96.5625 	1.20492e-06 	1.33626e-14
0.131704 	96.6137 	1.20492e-06 	1.33626e-14
0.131958 	96.6649 	1.20492e-06 	1.33626e-14
0.132212 	96.7162 	1.20492e-06 	1.33626e-14
0.132466 	96.7674 	1.20492e-06 	1.33626e-14
0.132721 	96.8187 	1.20492e-06 	1.33626e-14
0.132975 	96.8699 	1.20492e-06 	1.33626e-14
0.133229 	96.9212 	1.20492e-06 	1.33626e-14
0.133483 	96.9651 	1.42595e-06 	1.32681e-14
0.133738 	96.9894 	1.42595e-06 	1.32681e-14
0.133992 	97.0137 	1.42595e-06 	1.32681e-14
0.134246 	97.038 	1.42595e-06 	1.32681e-14
0.134501 	97.0623 	1.42595e-06 	1.32681e-14
0.134755 	97.0866 	1.42595e-06 	1.32681e-14
0.135009 	97.1109 	1.42595e-06 	1.32681e-14
0.135263 	97.1353 	1.42595e-06 	1.32681e-14
0.135518 	97.1596 	1.42595e-06 	1.32681e-14
0.135772 	97.1839 	1.42595e-06 	1.32681e-14
0.136026 	97.2036 	1.62461e-06 	1.32014e-14
0.13628 	97.2027 	1.62461e-06 	1.32014e-14
0.136535 	97.2018 	1.62461e-06 	1.32014e-14
0.136789 	97.2008 	1.62461e-06 	1.32014e-14
0.137043 	97.1999 	1.62461e-06 	1.32014e-14
0.137297 	97.199 	1.62461e-06 	1.32014e-14
0.137552 	97.1981 	1.62461e-06 	1.32014e-14
0.137806 	97.1971 	1.62461e-06 	1.32014e-14
0.13806 	97.1962 	1.62461e-06 	1.32014e-14
0.138314 	97.1953 	1.62461e-06 	1.32014e-14
0.138569 	97.1922 	1.78108e-06 	1.30306e-14
0.138823 	97.1681 	1.78108e-06 	1.30306e-14
0.139077 	97.144 	1.78108e-06 	1.30306e-14
0.139331 	97.1198 	1.78108e-06 	1.30306e-14
0.139586 	97.0957 	1.78108e-06 	1.30306e-14
0.13984 	97.0715 	1.78108e-06 	1.30306e-14
0.140094 	97.0474 	1.78108e-06 	1.30306e-14
0.140348 	97.0233 	1.78108e-06 	1.30306e-14
0.140603 	96.9991 	1.78108e-06 	1.30306e-14
0.140857 	96.975 	1.78108e-06 	1.30306e-14
0.141111 	96.9508 	9.68059e-07 	3.6927e-17
0.141365 	96.9056 	1.90649e-06 	1.2901e-14
0.14162 	96.8604 	1.90649e-06 	1.2901e-14
0.141874 	96.8152 	1.90649e-06 	1.2901e-14
0.142128 	96.77 	1.90649e-06 	1.2901e-14
0.142382 	96.7248 	1.90649e-06 	1.2901e-14
0.142637 	96.6796 	1.90649e-06 	1.2901e-14
0.142891 	96.6344 	1.90649e-06 	1.2901e-14
0.143145 	96.5892 	1.90649e-06 	1.2901e-14
0.143399 	96.544 	1.90649e-06 	1.2901e-14
0.143654 	96.4988 	1.90649e-06 	1.2901e-14
0.143908 	96.4364 	2.02379e-06 	1.27104e-14
0.144162 	96.3723 	2.02379e-06 	1.27104e-14
0.144416 	96.3082 	2.02379e-06 	1.27104e-14
0.144671 	96.244 	2.02379e-06 	1.27104e-14
0.144925 	96.1799 	2.02379e-06 	1.27104e-14
0.145179 	96.1158 	2.02379e-06 	1.27104e-14
0.145433 	96.0517 	2.02379e-06 	1.27104e-14
0.145688 	95.9876 	2.02379e-06 	1.27104e-14
0.145942 	95.9235 	2.02379e-06 	1.27104e-14
0.146196 	95.8593 	2.02379e-06 	1.27105e-14
0.14645 	95.7814 	2.12987e-06 	1.25071e-14
0.146705 	95.7004 	2.12987e-06 	1.25072e-14
0.146959 	95.6194 	2.12987e-06 	1.25072e-14
0.147213 	95.5384 	2.12987e-06 	1.25072e-14
0.147467 	95.4574 	2.12987e-06 	1.25072e-14
0.147722 	95.3764 	2.12987e-06 	1.25072e-14
0.147976 	95.2955 	2.12987e-06 	1.25072e-14
0.14823 	95.2145 	2.12987e-06 	1.25072e-14
0.148484 	95.1335 	2.12987e-06 	1.25072e-14
0.148739 	95.0525 	2.12987e-06 	1.25072e-14
0.148993 	94.9606 	2.2308e-06 	1.23386e-14
0.149247 	94.8646 	2.2308e-06 	1.23386e-14
0.149502 	94.7686 	2.2308e-06 	1.23386e-14
0.149756 	94.6727 	2.2308e-06 	1.23386e-14
0.15001 	94.5767 	2.2308e-06 	1.23386e-14
0.150264 	94.4807 	2.2308e-06 	1.23386e-14
0.150519 	94.3847 	2.2308e-06 	1.23386e-14
0.150773 	94.2887 	2.2308e-06 	1.23386e-14
0.151027 	94.1928 	2.2308e-06 	1.23386e-14
0.151281 	94.0968 	2.2308e-06 	1.23386e-14
0.151536 	93.9924 	2.32666e-06 	1.21697e-14
0.15179 	93.8833 	2.32666e-06 	1.21697e-14
0.152044 	93.7742 	2.32666e-06 	1.21697e-14
0.152298 	93.665 	2.32666e-06 	1.21697e-14
0.152553 	93.5559 	2.32666e-06 	1.21697e-14
0.152807 	93.4467 	2.32666e-06 	1.21697e-14
0.153061 	93.3376 	2.32666e-06 	1.21698e-14
0.153315 	93.2284 	2.32666e-06 	1.21698e-14
0.15357 	93.1193 	2.32666e-06 	1.21698e-14
0.153824 	93.0102 	2.32666e-06 	1.21698e-14
0.154078 	92.8948 	2.41415e-06 	1.19957e-14
0.154332 	92.7743 	2.41415e-06 	1.19957e-14
0.154587 	92.6538 	2.41415e-06 	1.19957e-14
0.154841 	92.5333 	2.41415e-06 	1.19957e-14
0.155095 	92.4128 	2.41415e-06 	1.19957e-14
0.155349 	92.2923 	2.41415e-06 	1.19957e-14
0.155604 	92.1718 	2.41415e-06 	1.19957e-14
0.155858 	92.0513 	2.41415e-06 	1.19957e-14
0.156112 	91.9308 	2.41415e-06 	1.19957e-14
0.156366 	91.8103 	2.41415e-06 	1.19958e-14
0.156621 	91.6855 	2.48993e-06 	1.18157e-14
0.156875 	91.5555 	2.48993e-06 	1.18157e-14
0.157129 	91.4255 	2.48993e-06 	1.18157e-14
0.157383 	91.2955 	2.48993e-06 	1.18157e-14
0.157638 	91.1654 	2.48993e-06 	1.18157e-14
0.157892 	91.0354 	2.48993e-06 	1.18157e-14
0.158146 	90.9054 	2.48993e-06 	1.18157e-14
0.1584 	90.7754 	2.48993e-06 	1.18157e-14
0.158655 	90.6454 	2.48993e-06 	1.18158e-14
0.158909 	90.5154 	2.48993e-06 	1.18158e-14
0.159163 	90.3826 	2.55182e-06 	1.16824e-14
0.159417 	90.2449 	2.55182e-06 	1.16824e-14
0.159672 	90.1073 	2.55182e-06 	1.16825e-14
0.159926 	89.9696 	2.55182e-06 	1.16825e-14
0.16018 	89.832 	2.55182e-06 	1.16825e-14
0.160434 	89.6943 	2.55182e-06 	1.16825e-14
0.160689 	89.5567 	2.55182e-06 	1.16825e-14
0.160943 	89.4191 	2.55182e-06 	1.16825e-14
0.161197 	89.2814 	2.55182e-06 	1.16825e-14
0.161451 	89.1438 	2.55182e-06 	1.16825e-14
0.161706 	89.0046 	2.59912e-06 	1.15326e-14
0.16196 	88.8612 	2.59912e-06 	1.15326e-14
0.162214 	88.7178 	2.59912e-06 	1.15326e-14
0.162468 	88.5744 	2.59912e-06 	1.15326e-14
0.162723 	88.431 	2.59912e-06 	1.15326e-14
0.162977 	88.2876 	2.59912e-06 	1.15326e-14
0.163231 	88.1442 	2.59912e-06 	1.15326e-14
0.163485 	88.0008 	2.59912e-06 	1.15326e-14
0.16374 	87.8574 	2.59912e-06 	1.15326e-14
0.163994 	87.714 	2.59912e-06 	1.15327e-14
0.164248 	87.5699 	2.63223e-06 	1.13456e-14
0.164503 	87.4225 	2.63223e-06 	1.13456e-14
0.164757 	87.2752 	2.63223e-06 	1.13456e-14
0.165011 	87.1279 	2.63223e-06 	1.13457e-14
0.165265 	86.9805 	2.63223e-06 	1.13457e-14
0.16552 	86.8332 	2.63223e-06 	1.13457e-14
0.165774 	86.6858 	2.63223e-06 	1.13457e-14
0.166028 	86.5385 	2.63223e-06 	1.13457e-14
0.166282 	86.3912 	2.63223e-06 	1.13457e-14
0.166537 	86.2438 	2.63223e-06 	1.13457e-14
0.166791 	86.0963 	2.65201e-06 	1.11494e-14
0.167045 	85.9467 	2.65201e-06 	1.11494e-14
0.167299 	85.7971 	2.65201e-06 	1.11494e-14
0.167554 	85.6475 	2.65201e-06 	1.11494e-14
0.167808 	85.4979 	2.65201e-06 	1.11494e-14
0.168062 	85.3483 	2.65201e-06 	1.11494e-14
0.168316 	85.1987 	2.65201e-06 	1.11495e-14
0.168571 	85.0491 	2.65201e-06 	1.11495e-14
0.168825 	84.8995 	2.65201e-06 	1.11495e-14
0.169079 	84.7499 	2.65201e-06 	1.11495e-14
0.169333 	84.6003 	2.01291e-06 	2.16613e-17