0 	6679.99
0.000254254 	6680.05
0.000508509 	6680.11
0.000762763 	6680.13
0.00101702 	6680.12
0.00127127 	6680.11
0.00152553 	6680.09
0.00177978 	6680.08
0.00203403 	6680.04
0.00228829 	6679.95
0.00254254 	6679.86
0.0027968 	6679.77
0.00305105 	6679.67
0.00330531 	6679.55
0.00355956 	6679.39
0.00381381 	6679.24
0.00406807 	6679.08
0.00432232 	6678.92
0.00457658 	6678.75
0.00483083 	6678.53
0.00508509 	6678.31
0.00533934 	6678.09
0.00559359 	6677.87
0.00584785 	6677.65
0.0061021 	6677.42
0.00635636 	6677.19
0.00661061 	6676.96
0.00686486 	6676.73
0.00711912 	6676.5
0.00737337 	6676.26
0.00762763 	6676.03
0.00788188 	6675.79
0.00813614 	6675.55
0.00839039 	6675.31
0.00864464 	6675.06
0.0088989 	6674.82
0.00915315 	6674.58
0.00940741 	6674.34
0.00966166 	6674.09
0.00991592 	6673.85
0.0101702 	6673.61
0.0104244 	6673.36
0.0106787 	6673.11
0.0109329 	6672.86
0.0111872 	6672.6
0.0114414 	6672.34
0.0116957 	6672.08
0.0119499 	6671.82
0.0122042 	6671.56
0.0124585 	6671.28
0.0127127 	6671.01
0.012967 	6670.74
0.0132212 	6670.46
0.0134755 	6670.18
0.0137297 	6669.88
0.013984 	6669.59
0.0142382 	6669.29
0.0144925 	6668.99
0.0147467 	6668.7
0.015001 	6668.39
0.0152553 	6668.07
0.0155095 	6667.75
0.0157638 	6667.43
0.016018 	6667.1
0.0162723 	6666.76
0.0165265 	6666.41
0.0167808 	6666.07
0.017035 	6665.72
0.0172893 	6665.37
0.0175435 	6665.01
0.0177978 	6664.64
0.0180521 	6664.27
0.0183063 	6663.89
0.0185606 	6663.51
0.0188148 	6663.11
0.0190691 	6662.71
0.0193233 	6662.3
0.0195776 	6661.9
0.0198318 	6661.5
0.0200861 	6661.08
0.0203403 	6660.65
0.0205946 	6660.22
0.0208488 	6659.78
0.0211031 	6659.34
0.0213574 	6658.88
0.0216116 	6658.41
0.0218659 	6657.94
0.0221201 	6657.48
0.0223744 	6657.01
0.0226286 	6656.54
0.0228829 	6656.04
0.0231371 	6655.54
0.0233914 	6655.04
0.0236456 	6654.54
0.0238999 	6654
0.0241542 	6653.47
0.0244084 	6652.94
0.0246627 	6652.4
0.0249169 	6651.87
0.0251712 	6651.33
0.0254254 	6650.77
0.0256797 	6650.2
0.0259339 	6649.63
0.0261882 	6649.06
0.0264424 	6648.45
0.0266967 	6647.84
0.026951 	6647.24
0.0272052 	6646.63
0.0274595 	6646.03
0.0277137 	6645.42
0.027968 	6644.78
0.0282222 	6644.15
0.0284765 	6643.5
0.0287307 	6642.85
0.028985 	6642.17
0.0292392 	6641.48
0.0294935 	6640.8
0.0297477 	6640.12
0.030002 	6639.44
0.0302563 	6638.75
0.0305105 	6638.04
0.0307648 	6637.32
0.031019 	6636.6
0.0312733 	6635.87
0.0315275 	6635.1
0.0317818 	6634.34
0.032036 	6633.57
0.0322903 	6632.81
0.0325445 	6632.04
0.0327988 	6631.28
0.0330531 	6630.49
0.0333073 	6629.68
0.0335616 	6628.87
0.0338158 	6628.06
0.0340701 	6627.2
0.0343243 	6626.35
0.0345786 	6625.5
0.0348328 	6624.64
0.0350871 	6623.79
0.0353413 	6622.93
0.0355956 	6622.06
0.0358498 	6621.17
0.0361041 	6620.27
0.0363584 	6619.36
0.0366126 	6618.41
0.0368669 	6617.46
0.0371211 	6616.51
0.0373754 	6615.56
0.0376296 	6614.61
0.0378839 	6613.66
0.0381381 	6612.7
0.0383924 	6611.71
0.0386466 	6610.71
0.0389009 	6609.7
0.0391552 	6608.65
0.0394094 	6607.6
0.0396637 	6606.55
0.0399179 	6605.49
0.0401722 	6604.44
0.0404264 	6603.39
0.0406807 	6602.34
0.0409349 	6601.24
0.0411892 	6600.14
0.0414434 	6599.02
0.0416977 	6597.86
0.041952 	6596.69
0.0422062 	6595.53
0.0424605 	6594.37
0.0427147 	6593.21
0.042969 	6592.04
0.0432232 	6590.88
0.0434775 	6589.68
0.0437317 	6588.46
0.043986 	6587.23
0.0442402 	6585.95
0.0444945 	6584.66
0.0447487 	6583.38
0.045003 	6582.1
0.0452573 	6580.82
0.0455115 	6579.54
0.0457658 	6578.26
0.04602 	6576.94
0.0462743 	6575.6
0.0465285 	6574.24
0.0467828 	6572.83
0.047037 	6571.42
0.0472913 	6570.01
0.0475455 	6568.6
0.0477998 	6567.19
0.0480541 	6565.78
0.0483083 	6564.37
0.0485626 	6562.94
0.0488168 	6561.47
0.0490711 	6559.96
0.0493253 	6558.41
0.0495796 	6556.86
0.0498338 	6555.31
0.0500881 	6553.76
0.0503423 	6552.21
0.0505966 	6550.66
0.0508509 	6549.11
0.0511051 	6547.56
0.0513594 	6545.94
0.0516136 	6544.29
0.0518679 	6542.59
0.0521221 	6540.89
0.0523764 	6539.19
0.0526306 	6537.49
0.0528849 	6535.78
0.0531391 	6534.08
0.0533934 	6532.38
0.0536476 	6530.68
0.0539019 	6528.92
0.0541562 	6527.11
0.0544104 	6525.24
0.0546647 	6523.38
0.0549189 	6521.51
0.0551732 	6519.65
0.0554274 	6517.78
0.0556817 	6515.92
0.0559359 	6514.05
0.0561902 	6512.19
0.0564444 	6510.29
0.0566987 	6508.29
0.056953 	6506.25
0.0572072 	6504.2
0.0574615 	6502.16
0.0577157 	6500.12
0.05797 	6498.08
0.0582242 	6496.04
0.0584785 	6494
0.0587327 	6491.96
0.058987 	6489.9
0.0592412 	6487.7
0.0594955 	6485.47
0.0597497 	6483.24
0.060004 	6481.01
0.0602583 	6478.77
0.0605125 	6476.54
0.0607668 	6474.31
0.061021 	6472.08
0.0612753 	6469.85
0.0615295 	6467.61
0.0617838 	6465.21
0.062038 	6462.77
0.0622923 	6460.34
0.0625465 	6457.9
0.0628008 	6455.46
0.0630551 	6453.02
0.0633093 	6450.59
0.0635636 	6448.15
0.0638178 	6445.72
0.0640721 	6443.28
0.0643263 	6440.68
0.0645806 	6438.03
0.0648348 	6435.37
0.0650891 	6432.71
0.0653433 	6430.06
0.0655976 	6427.4
0.0658519 	6424.74
0.0661061 	6422.09
0.0663604 	6419.43
0.0666146 	6416.77
0.0668689 	6413.97
0.0671231 	6411.07
0.0673774 	6408.18
0.0676316 	6405.28
0.0678859 	6402.39
0.0681401 	6399.49
0.0683944 	6396.6
0.0686486 	6393.71
0.0689029 	6390.81
0.0691572 	6387.92
0.0694114 	6384.88
0.0696657 	6381.73
0.0699199 	6378.58
0.0701742 	6375.43
0.0704284 	6372.28
0.0706827 	6369.13
0.0709369 	6365.97
0.0711912 	6362.82
0.0714454 	6359.67
0.0716997 	6356.52
0.071954 	6353.24
0.0722082 	6349.81
0.0724625 	6346.38
0.0727167 	6342.95
0.072971 	6339.52
0.0732252 	6336.09
0.0734795 	6332.67
0.0737337 	6329.24
0.073988 	6325.81
0.0742422 	6322.38
0.0744965 	6318.81
0.0747508 	6315.12
0.075005 	6311.4
0.0752593 	6307.67
0.0755135 	6303.95
0.0757678 	6300.23
0.076022 	6296.5
0.0762763 	6292.78
0.0765305 	6289.06
0.0767848 	6285.33
0.077039 	6281.46
0.0772933 	6277.5
0.0775475 	6273.47
0.0778018 	6269.44
0.0780561 	6265.41
0.0783103 	6261.38
0.0785646 	6257.35
0.0788188 	6253.32
0.0790731 	6249.29
0.0793273 	6245.25
0.0795816 	6241.07
0.0798358 	6236.82
0.0800901 	6232.47
0.0803443 	6228.11
0.0805986 	6223.76
0.0808529 	6219.41
0.0811071 	6215.06
0.0813614 	6210.71
0.0816156 	6206.35
0.0818699 	6201.98
0.0821241 	6197.48
0.0823784 	6192.93
0.0826326 	6188.24
0.0828869 	6183.56
0.0831411 	6178.87
0.0833954 	6174.19
0.0836496 	6169.5
0.0839039 	6164.81
0.0841582 	6160.13
0.0844124 	6155.41
0.0846667 	6150.57
0.0849209 	6145.7
0.0851752 	6140.7
0.0854294 	6135.67
0.0856837 	6130.65
0.0859379 	6125.62
0.0861922 	6120.59
0.0864464 	6115.57
0.0867007 	6110.54
0.086955 	6105.47
0.0872092 	6100.29
0.0874635 	6095.07
0.0877177 	6089.77
0.087972 	6084.39
0.0882262 	6079.02
0.0884805 	6073.64
0.0887347 	6068.27
0.088989 	6062.9
0.0892432 	6057.52
0.0894975 	6052.09
0.0897518 	6046.55
0.090006 	6040.99
0.0902603 	6035.37
0.0905145 	6029.64
0.0907688 	6023.91
0.091023 	6018.19
0.0912773 	6012.46
0.0915315 	6006.73
0.0917858 	6001
0.09204 	5995.21
0.0922943 	5989.32
0.0925485 	5983.41
0.0928028 	5977.48
0.0930571 	5971.41
0.0933113 	5965.33
0.0935656 	5959.26
0.0938198 	5953.19
0.0940741 	5947.11
0.0943283 	5941.04
0.0945826 	5934.9
0.0948368 	5928.66
0.0950911 	5922.42
0.0953453 	5916.17
0.0955996 	5909.79
0.0958539 	5903.39
0.0961081 	5896.99
0.0963624 	5890.59
0.0966166 	5884.19
0.0968709 	5877.79
0.0971251 	5871.32
0.0973794 	5864.76
0.0976336 	5858.2
0.0978879 	5851.64
0.0981421 	5844.99
0.0983964 	5838.29
0.0986507 	5831.59
0.0989049 	5824.9
0.0991592 	5818.2
0.0994134 	5811.5
0.0996677 	5804.72
0.0999219 	5797.89
0.100176 	5791.05
0.10043 	5784.2
0.100685 	5777.32
0.100939 	5770.37
0.101193 	5763.42
0.101447 	5756.47
0.101702 	5749.52
0.101956 	5742.56
0.10221 	5735.54
0.102464 	5728.48
0.102719 	5721.41
0.102973 	5714.34
0.103227 	5707.26
0.103481 	5700.12
0.103736 	5692.97
0.10399 	5685.83
0.104244 	5678.69
0.104498 	5671.54
0.104753 	5664.35
0.105007 	5657.12
0.105261 	5649.9
0.105516 	5642.68
0.10577 	5635.46
0.106024 	5628.21
0.106278 	5620.95
0.106533 	5613.7
0.106787 	5606.44
0.107041 	5599.18
0.107295 	5591.9
0.10755 	5584.6
0.107804 	5577.3
0.108058 	5570.01
0.108312 	5562.72
0.108567 	5555.44
0.108821 	5548.16
0.109075 	5540.88
0.109329 	5533.61
0.109584 	5526.33
0.109838 	5519.06
0.110092 	5511.79
0.110346 	5504.52
0.110601 	5497.25
0.110855 	5489.99
0.111109 	5482.76
0.111363 	5475.56
0.111618 	5468.36
0.111872 	5461.16
0.112126 	5453.96
0.11238 	5446.8
0.112635 	5439.66
0.112889 	5432.52
0.113143 	5425.4
0.113397 	5418.27
0.113652 	5411.18
0.113906 	5404.18
0.11416 	5397.17
0.114414 	5390.17
0.114669 	5383.16
0.114923 	5376.24
0.115177 	5369.35
0.115431 	5362.47
0.115686 	5355.6
0.11594 	5348.73
0.116194 	5341.89
0.116448 	5335.21
0.116703 	5328.53
0.116957 	5321.85
0.117211 	5315.17
0.117465 	5308.62
0.11772 	5302.12
0.117974 	5295.62
0.118228 	5289.15
0.118482 	5282.68
0.118737 	5276.21
0.118991 	5269.99
0.119245 	5263.77
0.119499 	5257.55
0.119754 	5251.33
0.120008 	5245.28
0.120262 	5239.31
0.120517 	5233.34
0.120771 	5227.4
0.121025 	5221.47
0.121279 	5215.53
0.121534 	5209.87
0.121788 	5204.26
0.122042 	5198.64
0.122296 	5193.03
0.122551 	5187.6
0.122805 	5182.3
0.123059 	5177
0.123313 	5171.73
0.123568 	5166.47
0.123822 	5161.22
0.124076 	5156.23
0.12433 	5151.35
0.124585 	5146.47
0.124839 	5141.59
0.125093 	5136.91
0.125347 	5132.41
0.125602 	5127.9
0.125856 	5123.42
0.12611 	5118.96
0.126364 	5114.5
0.126619 	5110.3
0.126873 	5106.27
0.127127 	5102.23
0.127381 	5098.19
0.127636 	5094.35
0.12789 	5090.73
0.128144 	5087.11
0.128398 	5083.52
0.128653 	5079.95
0.128907 	5076.38
0.129161 	5073.04
0.129415 	5069.92
0.12967 	5066.8
0.129924 	5063.68
0.130178 	5060.72
0.130432 	5058.04
0.130687 	5055.37
0.130941 	5052.71
0.131195 	5050.08
0.131449 	5047.45
0.131704 	5045.02
0.131958 	5042.84
0.132212 	5040.66
0.132466 	5038.48
0.132721 	5036.42
0.132975 	5034.7
0.133229 	5032.97
0.133483 	5031.26
0.133738 	5029.57
0.133992 	5027.89
0.134246 	5026.36
0.134501 	5025.11
0.134755 	5023.85
0.135009 	5022.6
0.135263 	5021.42
0.135518 	5020.61
0.135772 	5019.8
0.136026 	5018.99
0.13628 	5018.21
0.136535 	5017.43
0.136789 	5016.76
0.137043 	5016.39
0.137297 	5016.02
0.137552 	5015.64
0.137806 	5015.29
0.13806 	5015.33
0.138314 	5015.36
0.138569 	5015.4
0.138823 	5015.46
0.139077 	5015.52
0.139331 	5015.67
0.139586 	5016.1
0.13984 	5016.53
0.140094 	5016.97
0.140348 	5017.4
0.140603 	5018.18
0.140857 	5018.99
0.141111 	5019.8
0.141365 	5020.62
0.14162 	5021.45
0.141874 	5022.33
0.142128 	5023.49
0.142382 	5024.65
0.142637 	5025.81
0.142891 	5026.97
0.143145 	5028.4
0.143399 	5029.9
0.143654 	5031.39
0.143908 	5032.9
0.144162 	5034.41
0.144416 	5035.95
0.144671 	5037.76
0.144925 	5039.57
0.145179 	5041.38
0.145433 	5043.19
0.145688 	5045.19
0.145942 	5047.29
0.146196 	5049.4
0.14645 	5051.51
0.146705 	5053.63
0.146959 	5055.76
0.147213 	5058.13
0.147467 	5060.51
0.147722 	5062.88
0.147976 	5065.26
0.14823 	5067.77
0.148484 	5070.41
0.148739 	5073.04
0.148993 	5075.68
0.149247 	5078.33
0.149502 	5080.97
0.149756 	5083.85
0.15001 	5086.72
0.150264 	5089.59
0.150519 	5092.46
0.150773 	5095.42
0.151027 	5098.51
0.151281 	5101.61
0.151536 	5104.71
0.15179 	5107.81
0.152044 	5110.91
0.152298 	5114.2
0.152553 	5117.5
0.152807 	5120.8
0.153061 	5124.1
0.153315 	5127.44
0.15357 	5130.93
0.153824 	5134.42
0.154078 	5137.91
0.154332 	5141.41
0.154587 	5144.9
0.154841 	5148.55
0.155095 	5152.2
0.155349 	5155.86
0.155604 	5159.52
0.155858 	5163.19
0.156112 	5167.01
0.156366 	5170.82
0.156621 	5174.64
0.156875 	5178.46
0.157129 	5182.28
0.157383 	5186.22
0.157638 	5190.17
0.157892 	5194.12
0.158146 	5198.07
0.1584 	5202.02
0.158655 	5206.09
0.158909 	5210.17
0.159163 	5214.25
0.159417 	5218.33
0.159672 	5222.41
0.159926 	5226.57
0.16018 	5230.74
0.160434 	5234.92
0.160689 	5239.1
0.160943 	5243.27
0.161197 	5247.53
0.161451 	5251.8
0.161706 	5256.07
0.16196 	5260.34
0.162214 	5264.62
0.162468 	5268.94
0.162723 	5273.28
0.162977 	5277.62
0.163231 	5281.95
0.163485 	5286.29
0.16374 	5290.67
0.163994 	5295.07
0.164248 	5299.48
0.164503 	5303.87
0.164757 	5308.27
0.165011 	5312.7
0.165265 	5317.14
0.16552 	5321.57
0.165774 	5326.01
0.166028 	5330.44
0.166282 	5334.9
0.166537 	5339.37
0.166791 	5343.84
0.167045 	5348.31
0.167299 	5352.77
0.167554 	5357.25
0.167808 	5361.72
0.168062 	5366.2
0.168316 	5370.68
0.168571 	5375.15
0.168825 	5379.63
0.169079 	5384.12
0.169333 	5388.61
0.169588 	5393.09
0.169842 	5397.57
0.170096 	5402.04
0.17035 	5406.5
0.170605 	5410.97
0.170859 	5415.44
0.171113 	5419.9
0.171367 	5424.37
0.171622 	5428.82
0.171876 	5433.28
0.17213 	5437.72
0.172384 	5442.17
0.172639 	5446.59
0.172893 	5451.01
0.173147 	5455.42
0.173401 	5459.83
0.173656 	5464.25
0.17391 	5468.66
0.174164 	5473.04
0.174418 	5477.43
0.174673 	5481.8
0.174927 	5486.18
0.175181 	5490.52
0.175435 	5494.84
0.17569 	5499.17
0.175944 	5503.49
0.176198 	5507.82
0.176452 	5512.15
0.176707 	5516.43
0.176961 	5520.71
0.177215 	5524.98
0.177469 	5529.25
0.177724 	5533.48
0.177978 	5537.69
0.178232 	5541.9
0.178486 	5546.11
0.178741 	5550.32
0.178995 	5554.53
0.179249 	5558.7
0.179504 	5562.85
0.179758 	5567
0.180012 	5571.14
0.180266 	5575.24
0.180521 	5579.31
0.180775 	5583.38
0.181029 	5587.45
0.181283 	5591.53
0.181538 	5595.6
0.181792 	5599.64
0.182046 	5603.64
0.1823 	5607.64
0.182555 	5611.64
0.182809 	5615.59
0.183063 	5619.51
0.183317 	5623.43
0.183572 	5627.35
0.183826 	5631.27
0.18408 	5635.19
0.184334 	5639.08
0.184589 	5642.93
0.184843 	5646.77
0.185097 	5650.61
0.185351 	5654.39
0.185606 	5658.15
0.18586 	5661.91
0.186114 	5665.66
0.186368 	5669.42
0.186623 	5673.18
0.186877 	5676.92
0.187131 	5680.6
0.187385 	5684.27
0.18764 	5687.94
0.187894 	5691.56
0.188148 	5695.15
0.188402 	5698.74
0.188657 	5702.32
0.188911 	5705.91
0.189165 	5709.5
0.189419 	5713.08
0.189674 	5716.59
0.189928 	5720.09
0.190182 	5723.59
0.190436 	5727.04
0.190691 	5730.45
0.190945 	5733.86
0.191199 	5737.28
0.191453 	5740.69
0.191708 	5744.1
0.191962 	5747.52
0.192216 	5750.86
0.19247 	5754.19
0.192725 	5757.51
0.192979 	5760.79
0.193233 	5764.02
0.193487 	5767.26
0.193742 	5770.5
0.193996 	5773.74
0.19425 	5776.97
0.194505 	5780.21
0.194759 	5783.39
0.195013 	5786.54
0.195267 	5789.69
0.195522 	5792.8
0.195776 	5795.86
0.19603 	5798.92
0.196284 	5801.99
0.196539 	5805.05
0.196793 	5808.11
0.197047 	5811.18
0.197301 	5814.19
0.197556 	5817.17
0.19781 	5820.15
0.198064 	5823.08
0.198318 	5825.97
0.198573 	5828.86
0.198827 	5831.75
0.199081 	5834.65
0.199335 	5837.54
0.19959 	5840.43
0.199844 	5843.29
0.200098 	5846.09
0.200352 	5848.9
0.200607 	5851.66
0.200861 	5854.39
0.201115 	5857.11
0.201369 	5859.83
0.201624 	5862.55
0.201878 	5865.27
0.202132 	5867.99
0.202386 	5870.7
0.202641 	5873.34
0.202895 	5875.97
0.203149 	5878.57
0.203403 	5881.13
0.203658 	5883.69
0.203912 	5886.24
0.204166 	5888.8
0.20442 	5891.35
0.204675 	5893.91
0.204929 	5896.46
0.205183 	5898.93
0.205437 	5901.41
0.205692 	5903.85
0.205946 	5906.24
0.2062 	5908.64
0.206454 	5911.03
0.206709 	5913.43
0.206963 	5915.82
0.207217 	5918.21
0.207471 	5920.61
0.207726 	5922.93
0.20798 	5925.25
0.208234 	5927.53
0.208488 	5929.77
0.208743 	5932.01
0.208997 	5934.24
0.209251 	5936.48
0.209506 	5938.72
0.20976 	5940.96
0.210014 	5943.19
0.210268 	5945.37
0.210523 	5947.53
0.210777 	5949.67
0.211031 	5951.75
0.211285 	5953.84
0.21154 	5955.92
0.211794 	5958.01
0.212048 	5960.09
0.212302 	5962.18
0.212557 	5964.27
0.212811 	5966.3
0.213065 	5968.31
0.213319 	5970.3
0.213574 	5972.24
0.213828 	5974.18
0.214082 	5976.12
0.214336 	5978.06
0.214591 	5980
0.214845 	5981.93
0.215099 	5983.87
0.215353 	5985.77
0.215608 	5987.64
0.215862 	5989.49
0.216116 	5991.28
0.21637 	5993.08
0.216625 	5994.88
0.216879 	5996.67
0.217133 	5998.47
0.217387 	6000.26
0.217642 	6002.06
0.217896 	6003.83
0.21815 	6005.56
0.218404 	6007.27
0.218659 	6008.93
0.218913 	6010.59
0.219167 	6012.24
0.219421 	6013.9
0.219676 	6015.56
0.21993 	6017.22
0.220184 	6018.88
0.220438 	6020.52
0.220693 	6022.11
0.220947 	6023.69
0.221201 	6025.22
0.221455 	6026.74
0.22171 	6028.27
0.221964 	6029.79
0.222218 	6031.32
0.222472 	6032.84
0.222727 	6034.37
0.222981 	6035.89
0.223235 	6037.35
0.223489 	6038.8
0.223744 	6040.2
0.223998 	6041.6
0.224252 	6042.99
0.224507 	6044.39
0.224761 	6045.79
0.225015 	6047.18
0.225269 	6048.58
0.225524 	6049.98
0.225778 	6051.31
0.226032 	6052.64
0.226286 	6053.91
0.226541 	6055.19
0.226795 	6056.46
0.227049 	6057.73
0.227303 	6059
0.227558 	6060.27
0.227812 	6061.55
0.228066 	6062.82
0.22832 	6064.04
0.228575 	6065.25
0.228829 	6066.4
0.229083 	6067.55
0.229337 	6068.7
0.229592 	6069.86
0.229846 	6071.01
0.2301 	6072.16
0.230354 	6073.31
0.230609 	6074.46
0.230863 	6075.57
0.231117 	6076.66
0.231371 	6077.7
0.231626 	6078.74
0.23188 	6079.77
0.232134 	6080.81
0.232388 	6081.84
0.232643 	6082.88
0.232897 	6083.91
0.233151 	6084.95
0.233405 	6085.95
0.23366 	6086.93
0.233914 	6087.86
0.234168 	6088.78
0.234422 	6089.7
0.234677 	6090.62
0.234931 	6091.55
0.235185 	6092.47
0.235439 	6093.39
0.235694 	6094.32
0.235948 	6095.21
0.236202 	6096.08
0.236456 	6096.9
0.236711 	6097.72
0.236965 	6098.53
0.237219 	6099.35
0.237473 	6100.16
0.237728 	6100.97
0.237982 	6101.79
0.238236 	6102.6
0.23849 	6103.4
0.238745 	6104.16
0.238999 	6104.88
0.239253 	6105.59
0.239508 	6106.3
0.239762 	6107.01
0.240016 	6107.72
0.24027 	6108.43
0.240525 	6109.14
0.240779 	6109.85
0.241033 	6110.55
0.241287 	6111.21
0.241542 	6111.84
0.241796 	6112.45
0.24205 	6113.06
0.242304 	6113.67
0.242559 	6114.28
0.242813 	6114.89
0.243067 	6115.5
0.243321 	6116.12
0.243576 	6116.72
0.24383 	6117.28
0.244084 	6117.82
0.244338 	6118.34
0.244593 	6118.86
0.244847 	6119.38
0.245101 	6119.9
0.245355 	6120.42
0.24561 	6120.94
0.245864 	6121.45
0.246118 	6121.97
0.246372 	6122.45
0.246627 	6122.9
0.246881 	6123.34
0.247135 	6123.77
0.247389 	6124.21
0.247644 	6124.64
0.247898 	6125.08
0.248152 	6125.51
0.248406 	6125.95
0.248661 	6126.38
0.248915 	6126.78
0.249169 	6127.16
0.249423 	6127.52
0.249678 	6127.88
0.249932 	6128.24
0.250186 	6128.6
0.25044 	6128.96
0.250695 	6129.32
0.250949 	6129.68
0.251203 	6130.04
0.251457 	6130.37
0.251712 	6130.75
0.251966 	6131.25
0.25222 	6131.75
0.252474 	6132.25
0.252729 	6132.75
0.252983 	6133.25
0.253237 	6133.75
0.253491 	6134.25
0.253746 	6134.74
0.254 	6135.36
