0 	31.9277 	-2.73733e-07 	1.34143e-18
0.000254254 	31.9335 	-2.74051e-07 	3.29673e-15
0.000508509 	31.9393 	-2.74051e-07 	3.29673e-15
0.000762763 	31.9451 	-2.74051e-07 	3.29673e-15
0.00101702 	31.9508 	-2.74051e-07 	3.29673e-15
0.00127127 	31.9566 	-2.74051e-07 	3.29673e-15
0.00152553 	31.9624 	-2.74051e-07 	3.29673e-15
0.00177978 	31.9682 	-2.74051e-07 	3.29673e-15
0.00203403 	31.9739 	-2.74051e-07 	3.29673e-15
0.00228829 	31.9797 	-2.74051e-07 	3.29673e-15
0.00254254 	31.9855 	-2.74051e-07 	3.29672e-15
0.0027968 	31.9989 	-2.79499e-07 	3.29853e-15
0.00305105 	32.0131 	-2.79499e-07 	3.29853e-15
0.00330531 	32.0274 	-2.79499e-07 	3.29852e-15
0.00355956 	32.0416 	-2.79499e-07 	3.29852e-15
0.00381381 	32.0558 	-2.79499e-07 	3.29852e-15
0.00406807 	32.07 	-2.79499e-07 	3.29852e-15
0.00432232 	32.0842 	-2.79499e-07 	3.29852e-15
0.00457658 	32.0984 	-2.79499e-07 	3.29852e-15
0.00483083 	32.1126 	-2.79499e-07 	3.29852e-15
0.00508509 	32.1268 	-2.79499e-07 	3.29852e-15
0.00533934 	32.1436 	-3.02879e-07 	3.3369e-15
0.00559359 	32.1609 	-3.02879e-07 	3.3369e-15
0.00584785 	32.1782 	-3.02879e-07 	3.3369e-15
0.0061021 	32.1955 	-3.02879e-07 	3.3369e-15
0.00635636 	32.2128 	-3.02879e-07 	3.3369e-15
0.00661061 	32.2301 	-3.02879e-07 	3.3369e-15
0.00686486 	32.2474 	-3.02879e-07 	3.3369e-15
0.00711912 	32.2647 	-3.02879e-07 	3.3369e-15
0.00737337 	32.2819 	-3.02879e-07 	3.33689e-15
0.00762763 	32.2992 	-3.02879e-07 	3.33689e-15
0.00788188 	32.3173 	-3.43278e-07 	3.34496e-15
0.00813614 	32.3356 	-3.43278e-07 	3.34495e-15
0.00839039 	32.354 	-3.43278e-07 	3.34495e-15
0.00864464 	32.3723 	-3.43278e-07 	3.34495e-15
0.0088989 	32.3906 	-3.43278e-07 	3.34495e-15
0.00915315 	32.4089 	-3.43278e-07 	3.34495e-15
0.00940741 	32.4273 	-3.43278e-07 	3.34495e-15
0.00966166 	32.4456 	-3.43278e-07 	3.34495e-15
0.00991592 	32.4639 	-3.43278e-07 	3.34495e-15
0.0101702 	32.4823 	-3.43278e-07 	3.34494e-15
0.0104244 	32.5017 	-3.96829e-07 	3.40571e-15
0.0106787 	32.5219 	-3.96829e-07 	3.40571e-15
0.0109329 	32.5421 	-3.96829e-07 	3.4057e-15
0.0111872 	32.5622 	-3.96829e-07 	3.4057e-15
0.0114414 	32.5824 	-3.96829e-07 	3.4057e-15
0.0116957 	32.6026 	-3.96829e-07 	3.4057e-15
0.0119499 	32.6227 	-3.96829e-07 	3.4057e-15
0.0122042 	32.6429 	-3.96829e-07 	3.4057e-15
0.0124585 	32.6631 	-3.96829e-07 	3.4057e-15
0.0127127 	32.6832 	-3.96829e-07 	3.4057e-15
0.012967 	32.705 	-4.60063e-07 	3.46703e-15
0.0132212 	32.7281 	-4.60063e-07 	3.46703e-15
0.0134755 	32.7512 	-4.60063e-07 	3.46702e-15
0.0137297 	32.7743 	-4.60063e-07 	3.46702e-15
0.013984 	32.7974 	-4.60063e-07 	3.46702e-15
0.0142382 	32.8205 	-4.60063e-07 	3.46702e-15
0.0144925 	32.8435 	-4.60063e-07 	3.46702e-15
0.0147467 	32.8666 	-4.60063e-07 	3.46702e-15
0.015001 	32.8897 	-4.60063e-07 	3.46702e-15
0.0152553 	32.9128 	-4.60063e-07 	3.46701e-15
0.0155095 	32.9375 	-5.30351e-07 	3.48307e-15
0.0157638 	32.9643 	-5.30351e-07 	3.48307e-15
0.016018 	32.991 	-5.30351e-07 	3.48307e-15
0.0162723 	33.0177 	-5.30351e-07 	3.48307e-15
0.0165265 	33.0444 	-5.30351e-07 	3.48307e-15
0.0167808 	33.0711 	-5.30351e-07 	3.48306e-15
0.017035 	33.0978 	-5.30351e-07 	3.48306e-15
0.0172893 	33.1245 	-5.30351e-07 	3.48306e-15
0.0175435 	33.1512 	-5.30351e-07 	3.48306e-15
0.0177978 	33.1779 	-5.30351e-07 	3.48306e-15
0.0180521 	33.2061 	-6.05857e-07 	3.50775e-15
0.0183063 	33.2368 	-6.05857e-07 	3.50775e-15
0.0185606 	33.2674 	-6.05857e-07 	3.50775e-15
0.0188148 	33.2981 	-6.05857e-07 	3.50775e-15
0.0190691 	33.3288 	-6.05857e-07 	3.50774e-15
0.0193233 	33.3595 	-6.05857e-07 	3.50774e-15
0.0195776 	33.3902 	-6.05857e-07 	3.50774e-15
0.0198318 	33.4209 	-6.05857e-07 	3.50774e-15
0.0200861 	33.4516 	-6.05857e-07 	3.50774e-15
0.0203403 	33.4823 	-6.05857e-07 	3.50773e-15
0.0205946 	33.5142 	-6.85423e-07 	3.53774e-15
0.0208488 	33.5491 	-6.85423e-07 	3.53774e-15
0.0211031 	33.584 	-6.85423e-07 	3.53773e-15
0.0213574 	33.6189 	-6.85423e-07 	3.53773e-15
0.0216116 	33.6539 	-6.85423e-07 	3.53773e-15
0.0218659 	33.6888 	-6.85423e-07 	3.53773e-15
0.0221201 	33.7237 	-6.85423e-07 	3.53772e-15
0.0223744 	33.7586 	-6.85423e-07 	3.53772e-15
0.0226286 	33.7936 	-6.85423e-07 	3.53772e-15
0.0228829 	33.8285 	-6.85423e-07 	3.53772e-15
0.0231371 	33.8642 	-7.68382e-07 	3.57323e-15
0.0233914 	33.9035 	-7.68382e-07 	3.57322e-15
0.0236456 	33.9429 	-7.68382e-07 	3.57322e-15
0.0238999 	33.9822 	-7.68382e-07 	3.57322e-15
0.0241542 	34.0216 	-7.68382e-07 	3.57322e-15
0.0244084 	34.0609 	-7.68382e-07 	3.57321e-15
0.0246627 	34.1002 	-7.68382e-07 	3.57321e-15
0.0249169 	34.1396 	-7.68382e-07 	3.57321e-15
0.0251712 	34.1789 	-7.68382e-07 	3.57321e-15
0.0254254 	34.2182 	-7.68382e-07 	3.5732e-15
0.0256797 	34.258 	-8.54188e-07 	3.61435e-15
0.0259339 	34.3019 	-8.54188e-07 	3.61435e-15
0.0261882 	34.3459 	-8.54188e-07 	3.61435e-15
0.0264424 	34.3898 	-8.54188e-07 	3.61434e-15
0.0266967 	34.4337 	-8.54188e-07 	3.61434e-15
0.026951 	34.4777 	-8.54188e-07 	3.61434e-15
0.0272052 	34.5216 	-8.54188e-07 	3.61434e-15
0.0274595 	34.5655 	-8.54188e-07 	3.61433e-15
0.0277137 	34.6095 	-8.54188e-07 	3.61433e-15
0.027968 	34.6534 	-8.54188e-07 	3.61433e-15
0.0282222 	34.6973 	-9.92437e-07 	-3.42539e-19
0.0284765 	34.746 	-9.41506e-07 	3.6611e-15
0.0287307 	34.7947 	-9.41506e-07 	3.6611e-15
0.028985 	34.8434 	-9.41506e-07 	3.6611e-15
0.0292392 	34.8922 	-9.41506e-07 	3.66109e-15
0.0294935 	34.9409 	-9.41506e-07 	3.66109e-15
0.0297477 	34.9896 	-9.41506e-07 	3.66109e-15
0.030002 	35.0383 	-9.41506e-07 	3.66108e-15
0.0302563 	35.087 	-9.41506e-07 	3.66108e-15
0.0305105 	35.1357 	-9.41506e-07 	3.66108e-15
0.0307648 	35.1844 	-9.41506e-07 	3.66107e-15
0.031019 	35.2376 	-1.02822e-06 	3.76465e-15
0.0312733 	35.2913 	-1.02822e-06 	3.76464e-15
0.0315275 	35.3449 	-1.02822e-06 	3.76464e-15
0.0317818 	35.3986 	-1.02822e-06 	3.76463e-15
0.032036 	35.4522 	-1.02822e-06 	3.76463e-15
0.0322903 	35.5059 	-1.02822e-06 	3.76463e-15
0.0325445 	35.5596 	-1.02822e-06 	3.76462e-15
0.0327988 	35.6132 	-1.02822e-06 	3.76462e-15
0.0330531 	35.6669 	-1.02822e-06 	3.76462e-15
0.0333073 	35.7206 	-1.02822e-06 	3.76461e-15
0.0335616 	35.7784 	-1.11644e-06 	3.77485e-15
0.0338158 	35.8372 	-1.11644e-06 	3.77484e-15
0.0340701 	35.896 	-1.11644e-06 	3.77484e-15
0.0343243 	35.9548 	-1.11644e-06 	3.77484e-15
0.0345786 	36.0136 	-1.11644e-06 	3.77483e-15
0.0348328 	36.0725 	-1.11644e-06 	3.77483e-15
0.0350871 	36.1313 	-1.11644e-06 	3.77483e-15
0.0353413 	36.1901 	-1.11644e-06 	3.77482e-15
0.0355956 	36.2489 	-1.11644e-06 	3.77482e-15
0.0358498 	36.3077 	-1.11644e-06 	3.77481e-15
0.0361041 	36.3704 	-1.20724e-06 	3.87577e-15
0.0363584 	36.4345 	-1.20724e-06 	3.87577e-15
0.0366126 	36.4987 	-1.20724e-06 	3.87577e-15
0.0368669 	36.5628 	-1.20724e-06 	3.87576e-15
0.0371211 	36.627 	-1.20724e-06 	3.87576e-15
0.0373754 	36.6911 	-1.20724e-06 	3.87575e-15
0.0376296 	36.7552 	-1.20724e-06 	3.87575e-15
0.0378839 	36.8194 	-1.20724e-06 	3.87574e-15
0.0381381 	36.8835 	-1.20724e-06 	3.87574e-15
0.0383924 	36.9477 	-1.20724e-06 	3.87574e-15
0.0386466 	37.0154 	-1.30237e-06 	3.99993e-15
0.0389009 	37.085 	-1.30237e-06 	3.99993e-15
0.0391552 	37.1547 	-1.30237e-06 	3.99992e-15
0.0394094 	37.2244 	-1.30237e-06 	3.99992e-15
0.0396637 	37.2941 	-1.30237e-06 	3.99991e-15
0.0399179 	37.3638 	-1.30237e-06 	3.99991e-15
0.0401722 	37.4335 	-1.30237e-06 	3.9999e-15
0.0404264 	37.5032 	-1.30237e-06 	3.9999e-15
0.0406807 	37.5729 	-1.30237e-06 	3.9999e-15
0.0409349 	37.6426 	-1.30237e-06 	3.99989e-15
0.0411892 	37.7154 	-1.40127e-06 	4.11542e-15
0.0414434 	37.7909 	-1.40127e-06 	4.11541e-15
0.0416977 	37.8663 	-1.40127e-06 	4.11541e-15
0.041952 	37.9418 	-1.40127e-06 	4.1154e-15
0.0422062 	38.0172 	-1.40127e-06 	4.1154e-15
0.0424605 	38.0927 	-1.40127e-06 	4.11539e-15
0.0427147 	38.1681 	-1.40127e-06 	4.11539e-15
0.042969 	38.2436 	-1.40127e-06 	4.11538e-15
0.0432232 	38.319 	-1.40127e-06 	4.11538e-15
0.0434775 	38.3945 	-1.40127e-06 	4.11537e-15
0.0437317 	38.4726 	-1.50363e-06 	4.1954e-15
0.043986 	38.5541 	-1.50363e-06 	4.1954e-15
0.0442402 	38.6355 	-1.50363e-06 	4.19539e-15
0.0444945 	38.717 	-1.50363e-06 	4.19539e-15
0.0447487 	38.7984 	-1.50363e-06 	4.19538e-15
0.045003 	38.8798 	-1.50363e-06 	4.19538e-15
0.0452573 	38.9613 	-1.50363e-06 	4.19537e-15
0.0455115 	39.0427 	-1.50363e-06 	4.19537e-15
0.0457658 	39.1242 	-1.50363e-06 	4.19536e-15
0.04602 	39.2056 	-1.50363e-06 	4.19536e-15
0.0462743 	39.2893 	-1.60938e-06 	4.23663e-15
0.0465285 	39.377 	-1.60938e-06 	4.23663e-15
0.0467828 	39.4646 	-1.60938e-06 	4.23662e-15
0.047037 	39.5523 	-1.60938e-06 	4.23662e-15
0.0472913 	39.64 	-1.60938e-06 	4.23661e-15
0.0475455 	39.7276 	-1.60938e-06 	4.2366e-15
0.0477998 	39.8153 	-1.60938e-06 	4.2366e-15
0.0480541 	39.903 	-1.60938e-06 	4.23659e-15
0.0483083 	39.9906 	-1.60938e-06 	4.23659e-15
0.0485626 	40.0783 	-1.60938e-06 	4.23658e-15
0.0488168 	40.1677 	-1.71833e-06 	4.29189e-15
0.0490711 	40.2619 	-1.71833e-06 	4.29189e-15
0.0493253 	40.356 	-1.71833e-06 	4.29188e-15
0.0495796 	40.4501 	-1.71833e-06 	4.29188e-15
0.0498338 	40.5443 	-1.71833e-06 	4.29187e-15
0.0500881 	40.6384 	-1.71833e-06 	4.29186e-15
0.0503423 	40.7325 	-1.71833e-06 	4.29186e-15
0.0505966 	40.8267 	-1.71833e-06 	4.29185e-15
0.0508509 	40.9208 	-1.71833e-06 	4.29184e-15
0.0511051 	41.0149 	-1.71833e-06 	4.29184e-15
0.0513594 	41.1103 	-1.83019e-06 	4.40169e-15
0.0516136 	41.2112 	-1.83019e-06 	4.40168e-15
0.0518679 	41.312 	-1.83019e-06 	4.40168e-15
0.0521221 	41.4129 	-1.83019e-06 	4.40167e-15
0.0523764 	41.5137 	-1.83019e-06 	4.40166e-15
0.0526306 	41.6146 	-1.83019e-06 	4.40166e-15
0.0528849 	41.7155 	-1.83019e-06 	4.40165e-15
0.0531391 	41.8163 	-1.83019e-06 	4.40164e-15
0.0533934 	41.9172 	-1.83019e-06 	4.40164e-15
0.0536476 	42.018 	-1.83019e-06 	4.40163e-15
0.0539019 	42.1195 	-1.94446e-06 	4.47656e-15
0.0541562 	42.2274 	-1.94446e-06 	4.47655e-15
0.0544104 	42.3352 	-1.94446e-06 	4.47654e-15
0.0546647 	42.4431 	-1.94446e-06 	4.47654e-15
0.0549189 	42.5509 	-1.94446e-06 	4.47653e-15
0.0551732 	42.6587 	-1.94446e-06 	4.47652e-15
0.0554274 	42.7666 	-1.94446e-06 	4.47651e-15
0.0556817 	42.8744 	-1.94446e-06 	4.47651e-15
0.0559359 	42.9823 	-1.94446e-06 	4.4765e-15
0.0561902 	43.0901 	-1.94446e-06 	4.47649e-15
0.0564444 	43.1979 	-2.31478e-06 	-6.54939e-19
0.0566987 	43.313 	-2.06041e-06 	4.57938e-15
0.056953 	43.4281 	-2.06041e-06 	4.57937e-15
0.0572072 	43.5432 	-2.06041e-06 	4.57936e-15
0.0574615 	43.6582 	-2.06041e-06 	4.57935e-15
0.0577157 	43.7733 	-2.06041e-06 	4.57935e-15
0.05797 	43.8884 	-2.06041e-06 	4.57934e-15
0.0582242 	44.0035 	-2.06041e-06 	4.57933e-15
0.0584785 	44.1185 	-2.06041e-06 	4.57932e-15
0.0587327 	44.2336 	-2.06041e-06 	4.57932e-15
0.058987 	44.3487 	-2.06041e-06 	4.57931e-15
0.0592412 	44.4706 	-2.17704e-06 	4.69986e-15
0.0594955 	44.5931 	-2.17704e-06 	4.69986e-15
0.0597497 	44.7157 	-2.17704e-06 	4.69985e-15
0.060004 	44.8383 	-2.17704e-06 	4.69984e-15
0.0602583 	44.9608 	-2.17704e-06 	4.69983e-15
0.0605125 	45.0834 	-2.17704e-06 	4.69983e-15
0.0607668 	45.206 	-2.17704e-06 	4.69982e-15
0.061021 	45.3285 	-2.17704e-06 	4.69981e-15
0.0612753 	45.4511 	-2.17704e-06 	4.6998e-15
0.0615295 	45.5737 	-2.17704e-06 	4.69979e-15
0.0617838 	45.7026 	-2.29444e-06 	4.87316e-15
0.062038 	45.8329 	-2.29444e-06 	4.87316e-15
0.0622923 	45.9632 	-2.29444e-06 	4.87315e-15
0.0625465 	46.0935 	-2.29444e-06 	4.87314e-15
0.0628008 	46.2238 	-2.29444e-06 	4.87313e-15
0.0630551 	46.3541 	-2.29444e-06 	4.87312e-15
0.0633093 	46.4843 	-2.29444e-06 	4.87311e-15
0.0635636 	46.6146 	-2.29444e-06 	4.87311e-15
0.0638178 	46.7449 	-2.29444e-06 	4.8731e-15
0.0640721 	46.8752 	-2.29444e-06 	4.87309e-15
0.0643263 	47.0113 	-2.41237e-06 	4.96055e-15
0.0645806 	47.1496 	-2.41237e-06 	4.96054e-15
0.0648348 	47.2878 	-2.41237e-06 	4.96053e-15
0.0650891 	47.4261 	-2.41237e-06 	4.96053e-15
0.0653433 	47.5644 	-2.41237e-06 	4.96052e-15
0.0655976 	47.7026 	-2.41237e-06 	4.96051e-15
0.0658519 	47.8409 	-2.41237e-06 	4.9605e-15
0.0661061 	47.9791 	-2.41237e-06 	4.96049e-15
0.0663604 	48.1174 	-2.41237e-06 	4.96048e-15
0.0666146 	48.2557 	-2.41237e-06 	4.96047e-15
0.0668689 	48.3991 	-2.53013e-06 	5.11626e-15
0.0671231 	48.5456 	-2.53013e-06 	5.11625e-15
0.0673774 	48.692 	-2.53013e-06 	5.11624e-15
0.0676316 	48.8385 	-2.53013e-06 	5.11623e-15
0.0678859 	48.9849 	-2.53013e-06 	5.11622e-15
0.0681401 	49.1313 	-2.53013e-06 	5.11621e-15
0.0683944 	49.2778 	-2.53013e-06 	5.1162e-15
0.0686486 	49.4242 	-2.53013e-06 	5.11619e-15
0.0689029 	49.5707 	-2.53013e-06 	5.11619e-15
0.0691572 	49.7171 	-2.53013e-06 	5.11618e-15
0.0694114 	49.8681 	-2.64567e-06 	5.27706e-15
0.0696657 	50.023 	-2.64567e-06 	5.27705e-15
0.0699199 	50.1778 	-2.64567e-06 	5.27704e-15
0.0701742 	50.3327 	-2.64567e-06 	5.27703e-15
0.0704284 	50.4876 	-2.64567e-06 	5.27702e-15
0.0706827 	50.6424 	-2.64567e-06 	5.27701e-15
0.0709369 	50.7973 	-2.64567e-06 	5.277e-15
0.0711912 	50.9521 	-2.64567e-06 	5.27699e-15
0.0714454 	51.107 	-2.64567e-06 	5.27698e-15
0.0716997 	51.2618 	-2.64567e-06 	5.27697e-15
0.071954 	51.4206 	-2.7509e-06 	5.44163e-15
0.0722082 	51.5841 	-2.7509e-06 	5.44162e-15
0.0724625 	51.7475 	-2.7509e-06 	5.44161e-15
0.0727167 	51.911 	-2.7509e-06 	5.4416e-15
0.072971 	52.0744 	-2.7509e-06 	5.44159e-15
0.0732252 	52.2379 	-2.7509e-06 	5.44158e-15
0.0734795 	52.4014 	-2.7509e-06 	5.44157e-15
0.0737337 	52.5648 	-2.7509e-06 	5.44156e-15
0.073988 	52.7283 	-2.7509e-06 	5.44155e-15
0.0742422 	52.8917 	-2.7509e-06 	5.44154e-15
0.0744965 	53.0584 	-2.82824e-06 	5.61137e-15
0.0747508 	53.2306 	-2.82824e-06 	5.61136e-15
0.075005 	53.4028 	-2.82824e-06 	5.61135e-15
0.0752593 	53.575 	-2.82824e-06 	5.61134e-15
0.0755135 	53.7472 	-2.82824e-06 	5.61133e-15
0.0757678 	53.9193 	-2.82824e-06 	5.61132e-15
0.076022 	54.0915 	-2.82824e-06 	5.61131e-15
0.0762763 	54.2637 	-2.82824e-06 	5.61129e-15
0.0765305 	54.4359 	-2.82824e-06 	5.61128e-15
0.0767848 	54.6081 	-2.82824e-06 	5.61127e-15
0.077039 	54.7827 	-2.86348e-06 	5.73732e-15
0.0772933 	54.9636 	-2.86348e-06 	5.73731e-15
0.0775475 	55.1446 	-2.86348e-06 	5.7373e-15
0.0778018 	55.3255 	-2.86348e-06 	5.73728e-15
0.0780561 	55.5064 	-2.86348e-06 	5.73727e-15
0.0783103 	55.6874 	-2.86348e-06 	5.73726e-15
0.0785646 	55.8683 	-2.86348e-06 	5.73725e-15
0.0788188 	56.0492 	-2.86348e-06 	5.73724e-15
0.0790731 	56.2302 	-2.86348e-06 	5.73723e-15
0.0793273 	56.4111 	-2.86348e-06 	5.73721e-15
0.0795816 	56.5936 	-2.88436e-06 	5.91741e-15
0.0798358 	56.7831 	-2.88436e-06 	5.9174e-15
0.0800901 	56.9726 	-2.88436e-06 	5.91739e-15
0.0803443 	57.1622 	-2.88436e-06 	5.91737e-15
0.0805986 	57.3517 	-2.88436e-06 	5.91736e-15
0.0808529 	57.5412 	-2.88436e-06 	5.91735e-15
0.0811071 	57.7307 	-2.88436e-06 	5.91734e-15
0.0813614 	57.9203 	-2.88436e-06 	5.91733e-15
0.0816156 	58.1098 	-2.88436e-06 	5.91731e-15
0.0818699 	58.2993 	-2.88436e-06 	5.9173e-15
0.0821241 	58.4896 	-2.91396e-06 	6.09628e-15
0.0823784 	58.6874 	-2.91396e-06 	6.09627e-15
0.0826326 	58.8853 	-2.91396e-06 	6.09626e-15
0.0828869 	59.0831 	-2.91396e-06 	6.09625e-15
0.0831411 	59.281 	-2.91396e-06 	6.09623e-15
0.0833954 	59.4788 	-2.91396e-06 	6.09622e-15
0.0836496 	59.6766 	-2.91396e-06 	6.09621e-15
0.0839039 	59.8745 	-2.91396e-06 	6.0962e-15
0.0841582 	60.0723 	-2.91396e-06 	6.09618e-15
0.0844124 	60.2702 	-2.91396e-06 	6.09617e-15
0.0846667 	60.468 	-3.84889e-06 	1.61207e-17
0.0849209 	60.6739 	-2.94415e-06 	6.27768e-15
0.0851752 	60.8797 	-2.94415e-06 	6.27767e-15
0.0854294 	61.0856 	-2.94415e-06 	6.27765e-15
0.0856837 	61.2914 	-2.94415e-06 	6.27764e-15
0.0859379 	61.4973 	-2.94415e-06 	6.27763e-15
0.0861922 	61.7031 	-2.94415e-06 	6.27761e-15
0.0864464 	61.909 	-2.94415e-06 	6.2776e-15
0.0867007 	62.1148 	-2.94415e-06 	6.27759e-15
0.086955 	62.3207 	-2.94415e-06 	6.27757e-15
0.0872092 	62.5265 	-2.94415e-06 	6.27756e-15
0.0874635 	62.7394 	-2.956e-06 	6.46009e-15
0.0877177 	62.9529 	-2.956e-06 	6.46008e-15
0.087972 	63.1664 	-2.956e-06 	6.46006e-15
0.0882262 	63.3799 	-2.956e-06 	6.46005e-15
0.0884805 	63.5934 	-2.956e-06 	6.46004e-15
0.0887347 	63.8069 	-2.956e-06 	6.46002e-15
0.088989 	64.0205 	-2.956e-06 	6.46001e-15
0.0892432 	64.234 	-2.956e-06 	6.46e-15
0.0894975 	64.4475 	-2.956e-06 	6.45998e-15
0.0897518 	64.661 	-2.956e-06 	6.45997e-15
0.090006 	64.8804 	-2.94354e-06 	6.64279e-15
0.0902603 	65.101 	-2.94354e-06 	6.64278e-15
0.0905145 	65.3217 	-2.94354e-06 	6.64276e-15
0.0907688 	65.5423 	-2.94354e-06 	6.64275e-15
0.091023 	65.763 	-2.94354e-06 	6.64274e-15
0.0912773 	65.9836 	-2.94354e-06 	6.64272e-15
0.0915315 	66.2043 	-2.94354e-06 	6.64271e-15
0.0917858 	66.4249 	-2.94354e-06 	6.64269e-15
0.09204 	66.6456 	-2.94354e-06 	6.64268e-15
0.0922943 	66.8662 	-2.94354e-06 	6.64266e-15
0.0925485 	67.0914 	-2.93466e-06 	6.82448e-15
0.0928028 	67.3184 	-2.93466e-06 	6.82446e-15
0.0930571 	67.5454 	-2.93466e-06 	6.82445e-15
0.0933113 	67.7723 	-2.93466e-06 	6.82443e-15
0.0935656 	67.9993 	-2.93466e-06 	6.82442e-15
0.0938198 	68.2262 	-2.93466e-06 	6.82441e-15
0.0940741 	68.4532 	-2.93466e-06 	6.82439e-15
0.0943283 	68.6801 	-2.93466e-06 	6.82438e-15
0.0945826 	68.9071 	-2.93466e-06 	6.82436e-15
0.0948368 	69.134 	-2.93466e-06 	6.82435e-15
0.0950911 	69.3643 	-2.90396e-06 	6.9509e-15
0.0953453 	69.5965 	-2.90396e-06 	6.95088e-15
0.0955996 	69.8286 	-2.90396e-06 	6.95087e-15
0.0958539 	70.0608 	-2.90396e-06 	6.95085e-15
0.0961081 	70.2929 	-2.90396e-06 	6.95084e-15
0.0963624 	70.5251 	-2.90396e-06 	6.95082e-15
0.0966166 	70.7573 	-2.90396e-06 	6.95081e-15
0.0968709 	70.9894 	-2.90396e-06 	6.95079e-15
0.0971251 	71.2216 	-2.90396e-06 	6.95078e-15
0.0973794 	71.4538 	-2.90396e-06 	6.95076e-15
0.0976336 	71.688 	-2.82943e-06 	7.18702e-15
0.0978879 	71.924 	-2.82943e-06 	7.187e-15
0.0981421 	72.1599 	-2.82943e-06 	7.18699e-15
0.0983964 	72.3959 	-2.82943e-06 	7.18697e-15
0.0986507 	72.6319 	-2.82943e-06 	7.18696e-15
0.0989049 	72.8678 	-2.82943e-06 	7.18694e-15
0.0991592 	73.1038 	-2.82943e-06 	7.18693e-15
0.0994134 	73.3398 	-2.82943e-06 	7.18691e-15
0.0996677 	73.5757 	-2.82943e-06 	7.18689e-15
0.0999219 	73.8117 	-2.82943e-06 	7.18688e-15
0.100176 	74.0486 	-2.7125e-06 	7.40719e-15
0.10043 	74.2866 	-2.7125e-06 	7.40717e-15
0.100685 	74.5245 	-2.7125e-06 	7.40716e-15
0.100939 	74.7625 	-2.7125e-06 	7.40714e-15
0.101193 	75.0005 	-2.7125e-06 	7.40713e-15
0.101447 	75.2384 	-2.7125e-06 	7.40711e-15
0.101702 	75.4764 	-2.7125e-06 	7.4071e-15
0.101956 	75.7144 	-2.7125e-06 	7.40708e-15
0.10221 	75.9524 	-2.7125e-06 	7.40707e-15
0.102464 	76.1903 	-2.7125e-06 	7.40705e-15
0.102719 	76.4282 	-2.53584e-06 	7.5575e-15
0.102973 	76.666 	-2.53584e-06 	7.55749e-15
0.103227 	76.9039 	-2.53584e-06 	7.55747e-15
0.103481 	77.1417 	-2.53584e-06 	7.55746e-15
0.103736 	77.3795 	-2.53584e-06 	7.55744e-15
0.10399 	77.6173 	-2.53584e-06 	7.55743e-15
0.104244 	77.8551 	-2.53584e-06 	7.55741e-15
0.104498 	78.0929 	-2.53584e-06 	7.5574e-15
0.104753 	78.3307 	-2.53584e-06 	7.55738e-15
0.105007 	78.5685 	-2.53584e-06 	7.55737e-15
0.105261 	78.8056 	-2.35175e-06 	7.76333e-15
0.105516 	79.0408 	-2.35175e-06 	7.76332e-15
0.10577 	79.276 	-2.35175e-06 	7.7633e-15
0.106024 	79.5112 	-2.35175e-06 	7.76328e-15
0.106278 	79.7464 	-2.35175e-06 	7.76327e-15
0.106533 	79.9816 	-2.35175e-06 	7.76325e-15
0.106787 	80.2168 	-2.35175e-06 	7.76324e-15
0.107041 	80.452 	-2.35175e-06 	7.76322e-15
0.107295 	80.6872 	-2.35175e-06 	7.76321e-15
0.10755 	80.9225 	-2.35175e-06 	7.76319e-15
0.107804 	81.1567 	-2.06781e-06 	7.94093e-15
0.108058 	81.3868 	-2.06781e-06 	7.94092e-15
0.108312 	81.6168 	-2.06781e-06 	7.9409e-15
0.108567 	81.8469 	-2.06781e-06 	7.94089e-15
0.108821 	82.077 	-2.06781e-06 	7.94087e-15
0.109075 	82.307 	-2.06781e-06 	7.94086e-15
0.109329 	82.5371 	-2.06781e-06 	7.94084e-15
0.109584 	82.7671 	-2.06781e-06 	7.94083e-15
0.109838 	82.9972 	-2.06781e-06 	7.94081e-15
0.110092 	83.2272 	-2.06781e-06 	7.9408e-15
0.110346 	83.4566 	-1.75016e-06 	8.05762e-15
0.110601 	83.6787 	-1.75016e-06 	8.05761e-15
0.110855 	83.9008 	-1.75016e-06 	8.05759e-15
0.111109 	84.1228 	-1.75016e-06 	8.05758e-15
0.111363 	84.3449 	-1.75016e-06 	8.05757e-15
0.111618 	84.567 	-1.75016e-06 	8.05755e-15
0.111872 	84.7891 	-1.75016e-06 	8.05754e-15
0.112126 	85.0112 	-1.75016e-06 	8.05752e-15
0.11238 	85.2333 	-1.75016e-06 	8.05751e-15
0.112635 	85.4554 	-1.75016e-06 	8.05749e-15
0.112889 	85.6775 	-2.86653e-06 	3.00524e-17
0.113143 	85.8885 	-1.41531e-06 	8.15041e-15
0.113397 	86.0995 	-1.41531e-06 	8.1504e-15
0.113652 	86.3105 	-1.41531e-06 	8.15039e-15
0.113906 	86.5215 	-1.41531e-06 	8.15037e-15
0.11416 	86.7324 	-1.41531e-06 	8.15036e-15
0.114414 	86.9434 	-1.41531e-06 	8.15035e-15
0.114669 	87.1544 	-1.41531e-06 	8.15033e-15
0.114923 	87.3654 	-1.41531e-06 	8.15032e-15
0.115177 	87.5764 	-1.41531e-06 	8.15031e-15
0.115431 	87.7874 	-1.41531e-06 	8.15029e-15
0.115686 	87.9853 	-1.01263e-06 	8.22162e-15
0.11594 	88.1819 	-1.01263e-06 	8.22161e-15
0.116194 	88.3785 	-1.01263e-06 	8.2216e-15
0.116448 	88.5751 	-1.01263e-06 	8.22159e-15
0.116703 	88.7717 	-1.01263e-06 	8.22157e-15
0.116957 	88.9682 	-1.01263e-06 	8.22156e-15
0.117211 	89.1648 	-1.01263e-06 	8.22155e-15
0.117465 	89.3614 	-1.01263e-06 	8.22154e-15
0.11772 	89.558 	-1.01263e-06 	8.22152e-15
0.117974 	89.7546 	-1.01263e-06 	8.22151e-15
0.118228 	89.9366 	-6.04496e-07 	8.26949e-15
0.118482 	90.1153 	-6.04496e-07 	8.26947e-15
0.118737 	90.294 	-6.04496e-07 	8.26946e-15
0.118991 	90.4728 	-6.04496e-07 	8.26945e-15
0.119245 	90.6515 	-6.04496e-07 	8.26944e-15
0.119499 	90.8302 	-6.04496e-07 	8.26943e-15
0.119754 	91.0089 	-6.04496e-07 	8.26942e-15
0.120008 	91.1877 	-6.04496e-07 	8.26941e-15
0.120262 	91.3664 	-6.04496e-07 	8.26939e-15
0.120517 	91.5451 	-6.04496e-07 	8.26938e-15
0.120771 	91.7084 	-1.92436e-07 	8.29369e-15
0.121025 	91.8659 	-1.92436e-07 	8.29368e-15
0.121279 	92.0234 	-1.92436e-07 	8.29367e-15
0.121534 	92.1809 	-1.92436e-07 	8.29366e-15
0.121788 	92.3384 	-1.92436e-07 	8.29364e-15
0.122042 	92.4959 	-1.92436e-07 	8.29363e-15
0.122296 	92.6534 	-1.92436e-07 	8.29362e-15
0.122551 	92.8108 	-1.92436e-07 	8.29361e-15
0.122805 	92.9683 	-1.92436e-07 	8.2936e-15
0.123059 	93.1258 	-1.92436e-07 	8.29359e-15
0.123313 	93.2679 	2.21531e-07 	8.29437e-15
0.123568 	93.4012 	2.21531e-07 	8.29436e-15
0.123822 	93.5345 	2.21531e-07 	8.29435e-15
0.124076 	93.6677 	2.21531e-07 	8.29434e-15
0.12433 	93.801 	2.21531e-07 	8.29433e-15
0.124585 	93.9343 	2.21531e-07 	8.29432e-15
0.124839 	94.0676 	2.21531e-07 	8.29431e-15
0.125093 	94.2008 	2.21531e-07 	8.29431e-15
0.125347 	94.3341 	2.21531e-07 	8.2943e-15
0.125602 	94.4674 	2.21531e-07 	8.29429e-15
0.125856 	94.5862 	5.96802e-07 	8.27345e-15
0.12611 	94.693 	5.96802e-07 	8.27345e-15
0.126364 	94.7997 	5.96802e-07 	8.27344e-15
0.126619 	94.9065 	5.96802e-07 	8.27343e-15
0.126873 	95.0133 	5.96802e-07 	8.27342e-15
0.127127 	95.12 	5.96802e-07 	8.27342e-15
0.127381 	95.2268 	5.96802e-07 	8.27341e-15
0.127636 	95.3336 	5.96802e-07 	8.2734e-15
0.12789 	95.4404 	5.96802e-07 	8.2734e-15
0.128144 	95.5471 	5.96802e-07 	8.27339e-15
0.128398 	95.6413 	9.25743e-07 	8.23471e-15
0.128653 	95.7203 	9.25743e-07 	8.23471e-15
0.128907 	95.7993 	9.25743e-07 	8.2347e-15
0.129161 	95.8783 	9.25743e-07 	8.2347e-15
0.129415 	95.9573 	9.25743e-07 	8.23469e-15
0.12967 	96.0363 	9.25743e-07 	8.23469e-15
0.129924 	96.1153 	9.25743e-07 	8.23468e-15
0.130178 	96.1943 	9.25743e-07 	8.23468e-15
0.130432 	96.2733 	9.25743e-07 	8.23467e-15
0.130687 	96.3523 	9.25743e-07 	8.23467e-15
0.130941 	96.4212 	1.20515e-06 	8.18281e-15
0.131195 	96.4723 	1.20515e-06 	8.18281e-15
0.131449 	96.5234 	1.20515e-06 	8.1828e-15
0.131704 	96.5746 	1.20515e-06 	8.1828e-15
0.131958 	96.6257 	1.20515e-06 	8.1828e-15
0.132212 	96.6769 	1.20515e-06 	8.18279e-15
0.132466 	96.728 	1.20515e-06 	8.18279e-15
0.132721 	96.7792 	1.20515e-06 	8.18279e-15
0.132975 	96.8303 	1.20515e-06 	8.18278e-15
0.133229 	96.8815 	1.20515e-06 	8.18278e-15
0.133483 	96.9253 	1.42612e-06 	8.12096e-15
0.133738 	96.9495 	1.42612e-06 	8.12096e-15
0.133992 	96.9738 	1.42612e-06 	8.12096e-15
0.134246 	96.998 	1.42612e-06 	8.12096e-15
0.134501 	97.0223 	1.42612e-06 	8.12096e-15
0.134755 	97.0465 	1.42612e-06 	8.12096e-15
0.135009 	97.0707 	1.42612e-06 	8.12095e-15
0.135263 	97.095 	1.42612e-06 	8.12095e-15
0.135518 	97.1192 	1.42612e-06 	8.12095e-15
0.135772 	97.1435 	1.42612e-06 	8.12095e-15
0.136026 	97.1631 	1.62471e-06 	8.09618e-15
0.13628 	97.1622 	1.62471e-06 	8.09618e-15
0.136535 	97.1612 	1.62471e-06 	8.09618e-15
0.136789 	97.1602 	1.62471e-06 	8.09618e-15
0.137043 	97.1592 	1.62471e-06 	8.09618e-15
0.137297 	97.1583 	1.62471e-06 	8.09618e-15
0.137552 	97.1573 	1.62471e-06 	8.09618e-15
0.137806 	97.1563 	1.62471e-06 	8.09618e-15
0.13806 	97.1553 	1.62471e-06 	8.09618e-15
0.138314 	97.1543 	1.62471e-06 	8.09618e-15
0.138569 	97.1513 	1.78115e-06 	7.97094e-15
0.138823 	97.1271 	1.78115e-06 	7.97094e-15
0.139077 	97.1029 	1.78115e-06 	7.97094e-15
0.139331 	97.0788 	1.78115e-06 	7.97094e-15
0.139586 	97.0546 	1.78115e-06 	7.97094e-15
0.13984 	97.0304 	1.78115e-06 	7.97094e-15
0.140094 	97.0063 	1.78115e-06 	7.97095e-15
0.140348 	96.9821 	1.78115e-06 	7.97095e-15
0.140603 	96.958 	1.78115e-06 	7.97095e-15
0.140857 	96.9338 	1.78115e-06 	7.97095e-15
0.141111 	96.9096 	9.67374e-07 	2.01531e-17
0.141365 	96.8644 	1.90657e-06 	7.88417e-15
0.14162 	96.8192 	1.90657e-06 	7.88418e-15
0.141874 	96.774 	1.90657e-06 	7.88418e-15
0.142128 	96.7288 	1.90657e-06 	7.88418e-15
0.142382 	96.6836 	1.90657e-06 	7.88418e-15
0.142637 	96.6384 	1.90657e-06 	7.88419e-15
0.142891 	96.5932 	1.90657e-06 	7.88419e-15
0.143145 	96.548 	1.90657e-06 	7.88419e-15
0.143399 	96.5028 	1.90657e-06 	7.8842e-15
0.143654 	96.4576 	1.90657e-06 	7.8842e-15
0.143908 	96.3953 	2.02386e-06 	7.75207e-15
0.144162 	96.3312 	2.02386e-06 	7.75208e-15
0.144416 	96.2671 	2.02386e-06 	7.75208e-15
0.144671 	96.203 	2.02386e-06 	7.75208e-15
0.144925 	96.1389 	2.02386e-06 	7.75209e-15
0.145179 	96.0748 	2.02386e-06 	7.75209e-15
0.145433 	96.0107 	2.02386e-06 	7.7521e-15
0.145688 	95.9467 	2.02386e-06 	7.7521e-15
0.145942 	95.8826 	2.02386e-06 	7.7521e-15
0.146196 	95.8185 	2.02386e-06 	7.75211e-15
0.14645 	95.7406 	2.12992e-06 	7.5982e-15
0.146705 	95.6597 	2.12992e-06 	7.5982e-15
0.146959 	95.5787 	2.12992e-06 	7.59821e-15
0.147213 	95.4978 	2.12992e-06 	7.59821e-15
0.147467 	95.4169 	2.12992e-06 	7.59822e-15
0.147722 	95.3359 	2.12992e-06 	7.59822e-15
0.147976 	95.255 	2.12992e-06 	7.59823e-15
0.14823 	95.174 	2.12992e-06 	7.59823e-15
0.148484 	95.0931 	2.12992e-06 	7.59824e-15
0.148739 	95.0122 	2.12992e-06 	7.59824e-15
0.148993 	94.9204 	2.23082e-06 	7.49959e-15
0.149247 	94.8245 	2.23082e-06 	7.4996e-15
0.149502 	94.7286 	2.23082e-06 	7.4996e-15
0.149756 	94.6327 	2.23082e-06 	7.49961e-15
0.15001 	94.5368 	2.23082e-06 	7.49961e-15
0.150264 	94.4409 	2.23082e-06 	7.49962e-15
0.150519 	94.345 	2.23082e-06 	7.49963e-15
0.150773 	94.2491 	2.23082e-06 	7.49963e-15
0.151027 	94.1532 	2.23082e-06 	7.49964e-15
0.151281 	94.0573 	2.23082e-06 	7.49965e-15
0.151536 	93.953 	2.32665e-06 	7.39879e-15
0.15179 	93.8439 	2.32665e-06 	7.39879e-15
0.152044 	93.7349 	2.32665e-06 	7.3988e-15
0.152298 	93.6259 	2.32665e-06 	7.39881e-15
0.152553 	93.5168 	2.32665e-06 	7.39881e-15
0.152807 	93.4078 	2.32665e-06 	7.39882e-15
0.153061 	93.2987 	2.32665e-06 	7.39883e-15
0.153315 	93.1897 	2.32665e-06 	7.39884e-15
0.15357 	93.0806 	2.32665e-06 	7.39884e-15
0.153824 	92.9716 	2.32665e-06 	7.39885e-15
0.154078 	92.8564 	2.41411e-06 	7.29311e-15
0.154332 	92.736 	2.41411e-06 	7.29312e-15
0.154587 	92.6156 	2.41411e-06 	7.29313e-15
0.154841 	92.4952 	2.41411e-06 	7.29314e-15
0.155095 	92.3748 	2.41411e-06 	7.29315e-15
0.155349 	92.2544 	2.41411e-06 	7.29315e-15
0.155604 	92.134 	2.41411e-06 	7.29316e-15
0.155858 	92.0136 	2.41411e-06 	7.29317e-15
0.156112 	91.8932 	2.41411e-06 	7.29318e-15
0.156366 	91.7729 	2.41411e-06 	7.29318e-15
0.156621 	91.6482 	2.48986e-06 	7.18381e-15
0.156875 	91.5183 	2.48986e-06 	7.18381e-15
0.157129 	91.3884 	2.48986e-06 	7.18382e-15
0.157383 	91.2585 	2.48986e-06 	7.18383e-15
0.157638 	91.1286 	2.48986e-06 	7.18384e-15
0.157892 	90.9987 	2.48986e-06 	7.18385e-15
0.158146 	90.8688 	2.48986e-06 	7.18386e-15
0.1584 	90.7389 	2.48986e-06 	7.18386e-15
0.158655 	90.609 	2.48986e-06 	7.18387e-15
0.158909 	90.4791 	2.48986e-06 	7.18388e-15
0.159163 	90.3465 	2.55171e-06 	7.11278e-15
0.159417 	90.209 	2.55171e-06 	7.11279e-15
0.159672 	90.0715 	2.55171e-06 	7.1128e-15
0.159926 	89.9339 	2.55171e-06 	7.11281e-15
0.16018 	89.7964 	2.55171e-06 	7.11282e-15
0.160434 	89.6589 	2.55171e-06 	7.11283e-15
0.160689 	89.5214 	2.55171e-06 	7.11284e-15
0.160943 	89.3839 	2.55171e-06 	7.11284e-15
0.161197 	89.2464 	2.55171e-06 	7.11285e-15
0.161451 	89.1089 	2.55171e-06 	7.11286e-15
0.161706 	88.9698 	2.59898e-06 	7.05461e-15
0.16196 	88.8265 	2.59898e-06 	7.05461e-15
0.162214 	88.6833 	2.59898e-06 	7.05462e-15
0.162468 	88.54 	2.59898e-06 	7.05463e-15
0.162723 	88.3968 	2.59898e-06 	7.05464e-15
0.162977 	88.2535 	2.59898e-06 	7.05465e-15
0.163231 	88.1102 	2.59898e-06 	7.05466e-15
0.163485 	87.967 	2.59898e-06 	7.05467e-15
0.16374 	87.8237 	2.59898e-06 	7.05468e-15
0.163994 	87.6805 	2.59898e-06 	7.05469e-15
0.164248 	87.5365 	2.63206e-06 	6.9402e-15
0.164503 	87.3893 	2.63206e-06 	6.9402e-15
0.164757 	87.2421 	2.63206e-06 	6.94021e-15
0.165011 	87.0949 	2.63206e-06 	6.94022e-15
0.165265 	86.9477 	2.63206e-06 	6.94023e-15
0.16552 	86.8005 	2.63206e-06 	6.94024e-15
0.165774 	86.6533 	2.63206e-06 	6.94025e-15
0.166028 	86.5061 	2.63206e-06 	6.94026e-15
0.166282 	86.3589 	2.63206e-06 	6.94027e-15
0.166537 	86.2117 	2.63206e-06 	6.94028e-15
0.166791 	86.0643 	2.65182e-06 	6.81528e-15
0.167045 	85.9149 	2.65182e-06 	6.81529e-15
0.167299 	85.7654 	2.65182e-06 	6.8153e-15
0.167554 	85.6159 	2.65182e-06 	6.81531e-15
0.167808 	85.4665 	2.65182e-06 	6.81532e-15
0.168062 	85.317 	2.65182e-06 	6.81533e-15
0.168316 	85.1676 	2.65182e-06 	6.81534e-15
0.168571 	85.0181 	2.65182e-06 	6.81535e-15
0.168825 	84.8687 	2.65182e-06 	6.81536e-15
0.169079 	84.7192 	2.65182e-06 	6.81537e-15