/*--------------------------------*- C++ -*----------------------------------*\
| =========                 |                                                 |
| \\      /  F ield         | OpenFOAM: The Open Source CFD Toolbox           |
|  \\    /   O peration     | Version:  v3.0+                                 |
|   \\  /    A nd           | Web:      www.OpenFOAM.com                      |
|    \\/     M anipulation  |                                                 |
\*---------------------------------------------------------------------------*/
FoamFile
{
    version     2.0;
    format      ascii;
    class       volVectorField;
    location    "6000";
    object      D;
}
// * * * * * * * * * * * * * * * * * * * * * * * * * * * * * * * * * * * * * //

dimensions      [0 1 0 0 0 0 0];

internalField   nonuniform List<vector> 
24076
(
(4.1426e-06 4.07753e-06 0)
(4.67653e-09 5.20756e-08 0)
(3.65718e-11 7.34344e-10 0)
(3.7083e-11 7.13143e-10 0)
(1.08695e-06 3.17983e-06 0)
(5.97383e-09 6.18685e-08 0)
(4.5187e-09 5.23533e-08 0)
(4.23993e-06 4.10726e-06 0)
(-3.61421e-12 5.45232e-11 0)
(9.60706e-06 2.98144e-05 0)
(-1.27493e-06 2.71812e-06 0)
(9.79626e-06 3.01109e-05 0)
(1.67964e-06 1.74689e-06 0)
(9.99867e-07 3.16378e-06 0)
(1.04511e-05 2.43224e-05 0)
(1.77845e-06 2.28957e-05 0)
(-1.8121e-05 0.000151641 0)
(2.05126e-05 0.000151737 0)
(1.07436e-06 1.25815e-05 0)
(2.00178e-06 2.30229e-05 0)
(1.01879e-05 2.41394e-05 0)
(-1.23735e-06 5.36348e-06 0)
(5.84854e-09 8.36207e-08 0)
(-1.22692e-06 2.65192e-06 0)
(3.37946e-07 1.37633e-06 0)
(9.04214e-07 1.25265e-05 0)
(-1.36347e-07 2.18591e-07 0)
(5.83756e-09 6.09969e-08 0)
(1.30046e-07 2.71884e-05 0)
(2.65932e-07 1.35494e-06 0)
(-2.54453e-07 2.71558e-05 0)
(1.25249e-10 1.26501e-08 0)
(3.75816e-06 1.51938e-05 0)
(2.1633e-06 6.23221e-06 0)
(3.94605e-06 1.52516e-05 0)
(7.20912e-06 2.2082e-05 0)
(1.75771e-06 1.82021e-06 0)
(-1.80401e-05 0.000152772 0)
(2.04597e-05 0.00015288 0)
(3.39582e-06 2.0202e-06 0)
(-6.6063e-07 4.03389e-07 0)
(-8.02403e-07 5.57212e-05 0)
(1.5525e-06 2.25853e-06 0)
(2.06572e-06 6.23922e-06 0)
(6.93872e-06 2.19658e-05 0)
(-7.00779e-06 2.07081e-05 0)
(7.95454e-10 5.64883e-08 0)
(3.36544e-06 2.97857e-05 0)
(-1.45029e-07 2.23176e-07 0)
(-5.07046e-06 2.20485e-05 0)
(1.20957e-10 1.88905e-09 0)
(-1.21161e-07 1.98907e-07 0)
(-9.89843e-12 7.03878e-11 0)
(5.74305e-09 6.71253e-08 0)
(-3.61557e-12 5.83704e-11 0)
(9.77245e-06 8.11284e-05 0)
(1.47071e-06 5.48976e-06 0)
(6.1539e-06 8.93843e-06 0)
(4.28065e-06 0.000404808 0)
(1.05128e-05 8.12374e-05 0)
(-7.05291e-06 2.09816e-05 0)
(-1.18049e-09 2.5336e-08 0)
(-4.80599e-06 8.94489e-06 0)
(-4.80319e-06 2.1914e-05 0)
(-8.22591e-07 2.94866e-06 0)
(6.03206e-06 8.93658e-06 0)
(1.86864e-06 5.01337e-06 0)
(-7.42201e-07 2.93874e-06 0)
(2.14588e-09 3.80634e-08 0)
(1.89382e-06 4.9288e-06 0)
(2.97849e-06 0.000401755 0)
(-4.21171e-09 1.09931e-07 0)
(-1.03215e-05 5.819e-05 0)
(-5.49746e-10 5.93013e-09 0)
(-6.52517e-07 3.98232e-07 0)
(3.08402e-06 2.97164e-05 0)
(-1.33289e-06 5.43309e-06 0)
(-1.07006e-05 5.86505e-05 0)
(3.72734e-06 6.10728e-06 0)
(-4.70117e-06 8.80828e-06 0)
(1.19993e-09 5.68986e-08 0)
(4.70306e-06 5.1887e-05 0)
(-3.71336e-07 7.13637e-06 0)
(3.60704e-08 2.22871e-06 0)
(-3.93163e-07 3.37123e-07 0)
(-8.68581e-12 6.07161e-11 0)
(1.24917e-05 0.000252025 0)
(-1.11059e-05 8.60615e-05 0)
(4.59991e-07 0.000401131 0)
(1.04406e-05 0.000252201 0)
(4.30723e-06 5.22181e-05 0)
(2.8235e-06 0.000407074 0)
(-1.95309e-06 9.50397e-06 0)
(1.55822e-06 5.53843e-06 0)
(-8.82497e-10 2.29311e-06 0)
(-1.1052e-06 1.15643e-06 0)
(-2.10522e-06 0.000170875 0)
(7.7027e-06 0.00026017 0)
(3.03765e-11 1.22671e-08 0)
(1.71197e-06 3.75522e-06 0)
(-4.32419e-07 7.26501e-06 0)
(-9.41216e-07 1.88877e-06 0)
(-5.13885e-07 5.62391e-05 0)
(3.65663e-06 6.00589e-06 0)
(-9.35991e-07 3.84956e-05 0)
(-7.1643e-07 4.9584e-07 0)
(-1.65648e-10 2.47676e-09 0)
(-6.08403e-10 1.04524e-07 0)
(-2.82539e-06 7.52178e-06 0)
(-2.99134e-06 4.15227e-05 0)
(-2.37355e-06 0.000172333 0)
(2.66401e-06 3.01694e-05 0)
(-2.79242e-12 1.63895e-10 0)
(-1.31167e-09 2.48104e-08 0)
(1.80109e-05 0.00032729 0)
(1.03808e-10 1.84221e-09 0)
(-1.10208e-06 2.82319e-06 0)
(-2.6056e-06 4.1369e-05 0)
(7.36318e-06 0.000261834 0)
(-3.43331e-06 4.141e-05 0)
(6.34022e-07 3.37531e-05 0)
(-5.74835e-06 3.34223e-05 0)
(-6.93257e-07 5.06976e-07 0)
(3.30311e-06 1.96594e-06 0)
(6.97918e-06 2.56026e-05 0)
(-1.13387e-05 8.68164e-05 0)
(-2.85753e-06 7.64563e-06 0)
(8.03915e-06 4.25519e-05 0)
(-1.24039e-06 3.81897e-05 0)
(4.86587e-10 8.85159e-09 0)
(-5.73095e-06 3.30739e-05 0)
(-3.66466e-06 4.11069e-05 0)
(-4.0397e-06 7.88681e-05 0)
(5.43114e-09 8.4426e-08 0)
(-1.90176e-06 9.62969e-06 0)
(-1.63712e-07 2.17685e-07 0)
(1.32666e-06 9.07647e-06 0)
(1.47335e-06 2.19633e-06 0)
(3.19239e-06 0.000231173 0)
(1.62754e-06 9.85393e-06 0)
(1.76957e-06 9.88341e-06 0)
(-3.43073e-12 1.54497e-10 0)
(-1.12264e-08 2.68852e-08 0)
(-2.75802e-06 0.000193428 0)
(1.56124e-05 0.000199942 0)
(2.78377e-06 2.98734e-05 0)
(-4.28752e-06 7.95208e-05 0)
(1.02286e-05 0.000117445 0)
(1.25411e-06 1.08346e-05 0)
(1.82424e-10 4.16551e-09 0)
(-4.93698e-06 1.85741e-05 0)
(-3.49833e-13 2.70296e-12 0)
(1.57251e-06 5.48302e-07 0)
(1.59371e-06 2.91247e-06 0)
(4.33618e-06 8.65726e-06 0)
(2.61345e-06 5.32408e-05 0)
(3.50298e-06 2.51414e-06 0)
(-6.56086e-07 3.40398e-05 0)
(1.24417e-06 9.17244e-06 0)
(-2.53701e-11 9.00831e-10 0)
(1.82465e-08 -4.34231e-08 0)
(-3.61784e-12 4.37303e-11 0)
(1.21905e-05 3.1757e-05 0)
(-3.22515e-06 6.35685e-06 0)
(1.24624e-06 8.3425e-05 0)
(2.45393e-05 0.000232157 0)
(-2.24197e-05 0.000232162 0)
(-1.85285e-06 1.37259e-05 0)
(-1.2642e-06 4.09094e-06 0)
(-5.08946e-07 2.58087e-07 0)
(2.99063e-06 8.66865e-06 0)
(2.01011e-09 1.00177e-07 0)
(2.9421e-07 1.58016e-05 0)
(2.96192e-06 1.30176e-05 0)
(-3.20037e-06 1.37557e-05 0)
(5.32722e-06 1.37585e-05 0)
(-1.11445e-05 8.13102e-05 0)
(1.32329e-05 8.13152e-05 0)
(1.16136e-05 3.43633e-05 0)
(-5.5155e-06 1.71822e-05 0)
(-4.55242e-06 8.79494e-06 0)
(-8.85672e-10 6.49139e-09 0)
(2.76595e-06 5.94177e-06 0)
(-1.723e-07 -1.72905e-08 0)
(-1.88789e-07 -7.75354e-09 0)
(-1.002e-07 4.0119e-06 0)
(-1.283e-06 4.19285e-06 0)
(-5.8868e-07 5.03156e-07 0)
(-1.65928e-06 3.22244e-06 0)
(1.02111e-06 5.39283e-07 0)
(1.17613e-09 1.59185e-08 0)
(-3.37297e-06 1.88002e-05 0)
(-1.29343e-05 0.000224595 0)
(-6.79702e-06 5.23058e-05 0)
(6.1647e-06 4.91757e-05 0)
(7.46122e-06 1.45023e-05 0)
(5.69726e-09 6.39741e-08 0)
(1.19566e-05 8.03871e-05 0)
(-9.85895e-06 8.03746e-05 0)
(-5.3396e-06 1.45005e-05 0)
(2.76244e-06 5.83248e-06 0)
(-5.37792e-07 4.58489e-07 0)
(-2.28275e-05 0.000257666 0)
(2.49507e-05 0.000257666 0)
(3.78257e-06 0.000201002 0)
(1.41524e-06 3.27576e-06 0)
(-6.20112e-06 1.95767e-05 0)
(-1.21413e-05 0.000111819 0)
(2.99665e-06 2.04624e-06 0)
(5.9015e-08 1.58709e-05 0)
(-2.54736e-09 6.74572e-08 0)
(1.59592e-06 1.7978e-05 0)
(-4.65673e-08 1.50843e-07 0)
(-5.03767e-06 1.82848e-05 0)
(-3.84546e-12 4.33824e-11 0)
(4.85867e-07 1.3125e-05 0)
(-1.69805e-07 2.21029e-07 0)
(-4.89045e-06 1.17084e-05 0)
(-2.58647e-05 0.000390952 0)
(2.79886e-05 0.000390952 0)
(-5.2219e-07 0.000144252 0)
(1.08e-05 2.42369e-05 0)
(4.83288e-06 4.08094e-06 0)
(-1.06018e-06 6.47285e-06 0)
(7.9092e-06 1.70539e-05 0)
(-6.00788e-11 3.77982e-10 0)
(-4.52675e-11 8.26338e-10 0)
(-7.17199e-06 4.38915e-05 0)
(-7.65554e-11 5.21659e-10 0)
(9.05122e-06 0.000249743 0)
(-3.27783e-11 8.40757e-10 0)
(-3.44785e-06 1.9034e-05 0)
(-8.63677e-11 1.50416e-09 0)
(-9.92724e-10 7.40033e-09 0)
(1.58847e-06 7.13246e-06 0)
(6.03064e-06 9.12106e-05 0)
(-8.21416e-07 7.26035e-07 0)
(8.12232e-07 1.91635e-07 0)
(-6.90217e-06 8.1836e-05 0)
(-1.33512e-05 5.85778e-05 0)
(1.55174e-05 5.85944e-05 0)
(-4.06056e-07 3.41418e-07 0)
(-8.97967e-06 0.000104194 0)
(-8.09453e-06 0.000103394 0)
(1.95383e-05 0.000108292 0)
(-1.75115e-05 0.000108319 0)
(-6.83845e-06 5.93548e-05 0)
(7.71438e-06 1.4596e-05 0)
(-5.59326e-06 1.45942e-05 0)
(-1.12262e-06 2.41802e-06 0)
(-1.74925e-05 0.000195035 0)
(5.65996e-06 0.000168313 0)
(6.00368e-08 -4.94854e-08 0)
(5.2761e-06 6.9739e-06 0)
(2.0391e-05 0.000108761 0)
(-1.82684e-05 0.000108762 0)
(2.14817e-09 3.26815e-08 0)
(-5.60638e-11 1.08434e-08 0)
(-6.83169e-08 1.5568e-07 0)
(7.95969e-06 0.000237434 0)
(1.50335e-06 2.84942e-06 0)
(5.58925e-06 5.49951e-06 0)
(5.7551e-06 1.63728e-05 0)
(-2.40729e-12 4.64e-11 0)
(-1.81401e-06 8.37439e-06 0)
(4.37562e-07 1.35135e-06 0)
(-6.10053e-06 1.93525e-05 0)
(2.01914e-06 4.84328e-05 0)
(-6.47821e-06 5.264e-05 0)
(3.3285e-11 4.90886e-10 0)
(-1.37936e-05 0.000185345 0)
(1.60099e-05 0.000185382 0)
(5.15125e-06 6.90809e-06 0)
(2.1909e-06 3.08529e-05 0)
(-2.13559e-07 2.5859e-07 0)
(-7.48409e-06 7.32054e-05 0)
(-1.15808e-05 8.87426e-05 0)
(2.11731e-09 9.92706e-08 0)
(-5.80629e-06 2.13114e-05 0)
(1.24387e-05 3.20656e-05 0)
(1.39654e-10 3.03287e-09 0)
(-2.32808e-07 0.000206331 0)
(1.17518e-06 8.79094e-05 0)
(-1.27782e-07 1.88508e-07 0)
(9.68664e-07 8.10219e-06 0)
(-7.92538e-07 6.80334e-07 0)
(-1.23098e-09 1.21499e-08 0)
(6.22956e-06 1.6417e-05 0)
(-2.23996e-06 3.23347e-06 0)
(2.65179e-06 5.15582e-06 0)
(-4.12692e-06 0.000193114 0)
(4.32443e-06 4.95597e-06 0)
(2.88802e-06 1.31716e-05 0)
(1.57319e-06 3.83853e-06 0)
(2.54506e-05 0.000233996 0)
(-2.33276e-05 0.000233996 0)
(-3.70993e-06 1.94793e-05 0)
(1.49948e-11 7.58024e-10 0)
(-2.72161e-10 2.94833e-09 0)
(5.8614e-06 3.55926e-05 0)
(-7.13682e-06 5.99821e-05 0)
(9.33607e-06 6.00251e-05 0)
(-1.0135e-05 0.000119288 0)
(1.22923e-05 0.000119379 0)
(-8.03229e-07 6.6046e-07 0)
(-4.21371e-12 1.12529e-10 0)
(-6.78445e-07 0.000147149 0)
(-6.96433e-06 4.34848e-05 0)
(-1.42158e-07 6.40706e-06 0)
(-3.94672e-06 0.000174489 0)
(-1.23864e-06 2.79474e-05 0)
(1.53419e-06 4.83007e-05 0)
(3.08868e-12 9.0212e-11 0)
(-4.67375e-06 2.65014e-05 0)
(-2.15046e-06 1.82745e-05 0)
(6.60435e-06 8.73276e-06 0)
(4.95168e-06 2.64177e-05 0)
(-2.40914e-10 1.42462e-09 0)
(-1.61373e-06 1.94719e-06 0)
(5.46049e-07 1.29478e-05 0)
(9.76362e-06 6.51053e-05 0)
(-5.79564e-06 1.70789e-05 0)
(-4.35105e-06 2.64293e-05 0)
(-1.31841e-09 1.92784e-08 0)
(5.34016e-09 6.6696e-08 0)
(5.49678e-06 1.6492e-05 0)
(2.37098e-05 0.000176435 0)
(-2.15941e-05 0.000176426 0)
(3.07669e-06 2.14222e-06 0)
(-1.76746e-07 2.8792e-06 0)
(-3.42611e-07 8.22676e-06 0)
(1.38794e-05 8.07362e-05 0)
(-1.17602e-05 8.07348e-05 0)
(2.02637e-06 8.82036e-05 0)
(6.34648e-06 4.02575e-05 0)
(6.50593e-06 1.53931e-05 0)
(-1.16113e-06 2.79129e-06 0)
(6.50316e-09 7.20889e-08 0)
(-3.62405e-06 1.07085e-05 0)
(1.0276e-06 8.02451e-07 0)
(-3.9079e-06 6.99868e-06 0)
(-3.58394e-07 0.000156233 0)
(2.01502e-09 3.00385e-08 0)
(-6.8046e-06 8.95251e-05 0)
(1.05718e-06 3.38033e-05 0)
(-8.44515e-07 7.38876e-07 0)
(-7.10044e-08 1.6212e-07 0)
(9.84862e-08 4.57105e-06 0)
(2.58129e-06 5.4032e-05 0)
(8.90513e-06 2.95166e-05 0)
(-1.06782e-06 4.25091e-06 0)
(3.82836e-07 2.99236e-06 0)
(-6.95915e-06 4.18824e-05 0)
(1.71988e-06 1.34952e-05 0)
(4.95269e-06 5.7855e-06 0)
(5.81943e-06 4.87501e-05 0)
(4.76295e-06 1.46026e-05 0)
(1.46688e-06 1.13307e-05 0)
(-1.45341e-05 0.000223451 0)
(4.68293e-07 1.12593e-06 0)
(1.08113e-06 3.26025e-05 0)
(4.91497e-06 8.69341e-06 0)
(2.17157e-06 5.08159e-06 0)
(-1.23676e-09 3.0312e-08 0)
(-4.8416e-06 9.64428e-06 0)
(7.32581e-08 4.78008e-09 0)
(-8.91552e-07 2.80842e-05 0)
(8.45505e-06 2.95085e-05 0)
(3.47801e-06 6.05291e-06 0)
(1.47604e-06 1.77978e-05 0)
(5.06379e-06 5.83004e-06 0)
(8.41873e-07 1.41915e-06 0)
(1.02963e-05 2.55103e-05 0)
(-2.76291e-08 1.2762e-07 0)
(7.39166e-06 1.42846e-05 0)
(-5.27016e-06 1.42823e-05 0)
(-9.27598e-11 3.53218e-09 0)
(-1.55639e-05 0.000156426 0)
(1.76694e-05 0.00015624 0)
(-1.23473e-07 2.02434e-07 0)
(-6.51688e-07 5.6134e-07 0)
(-9.69392e-07 3.43634e-05 0)
(1.45789e-06 8.53534e-07 0)
(-4.73149e-07 1.76463e-06 0)
(-7.8491e-06 5.86099e-05 0)
(1.25559e-09 2.3026e-08 0)
(-1.5611e-06 1.30805e-05 0)
(2.27566e-09 9.98075e-08 0)
(9.26284e-12 5.38073e-10 0)
(4.06725e-06 5.2186e-06 0)
(2.61322e-07 2.70234e-06 0)
(-2.43511e-05 0.000256592 0)
(2.64742e-05 0.000256592 0)
(9.50012e-06 0.000238457 0)
(-1.29571e-05 0.000111142 0)
(-5.08347e-06 1.4133e-05 0)
(7.20529e-06 1.41355e-05 0)
(-2.21183e-06 4.7342e-06 0)
(-7.27989e-06 5.85597e-05 0)
(1.67013e-06 3.82895e-06 0)
(-5.70051e-06 2.66689e-05 0)
(1.05903e-05 8.88729e-05 0)
(-6.09246e-12 4.15915e-10 0)
(-7.20397e-07 2.46219e-06 0)
(9.26327e-06 2.08493e-05 0)
(-1.31483e-05 0.000186869 0)
(1.5421e-05 0.000186902 0)
(4.21888e-06 3.49866e-05 0)
(1.57928e-06 1.47179e-05 0)
(-2.69647e-06 0.000206292 0)
(-8.33905e-06 2.1565e-05 0)
(1.24226e-05 4.64926e-05 0)
(4.83961e-12 5.14676e-10 0)
(7.83081e-07 1.52262e-05 0)
(6.50481e-06 0.000169989 0)
(9.83302e-07 5.7725e-07 0)
(1.36714e-05 0.000197765 0)
(5.79878e-12 1.37862e-10 0)
(-2.25145e-06 3.28953e-06 0)
(-9.73103e-06 0.00011831 0)
(1.18869e-05 0.000118395 0)
(-1.81197e-06 8.49572e-06 0)
(2.44506e-06 2.56659e-06 0)
(-6.41624e-07 1.22536e-06 0)
(7.04385e-06 0.000255321 0)
(-1.11265e-06 4.18326e-06 0)
(1.50558e-06 3.27924e-06 0)
(3.06029e-06 5.1814e-06 0)
(-3.47385e-07 8.34665e-06 0)
(-6.67754e-08 1.55048e-07 0)
(4.51706e-06 7.23597e-06 0)
(-2.4337e-06 2.61188e-05 0)
(-5.71654e-08 4.08379e-06 0)
(1.32814e-06 6.3559e-06 0)
(1.30561e-05 0.000188925 0)
(-1.30284e-06 2.04943e-05 0)
(7.72228e-09 6.70535e-08 0)
(5.23713e-06 0.000161061 0)
(-6.81381e-07 5.66077e-07 0)
(2.04415e-06 3.42062e-06 0)
(4.30197e-10 1.60241e-08 0)
(-9.06639e-08 1.58689e-07 0)
(-1.49306e-06 2.46649e-06 0)
(2.6254e-06 5.07235e-06 0)
(8.91475e-07 8.41815e-05 0)
(5.4346e-06 5.59768e-06 0)
(4.88913e-09 5.66732e-08 0)
(1.18959e-05 4.67174e-05 0)
(-5.06252e-06 5.72902e-05 0)
(2.57515e-06 1.13867e-05 0)
(1.30659e-06 6.25664e-06 0)
(-6.76641e-06 8.27342e-05 0)
(1.47522e-05 0.000281216 0)
(1.09595e-05 5.29902e-05 0)
(2.30196e-06 2.96717e-06 0)
(-2.08713e-10 5.72416e-09 0)
(1.55516e-05 0.000327497 0)
(1.5288e-09 3.60145e-08 0)
(-6.74598e-10 4.42678e-09 0)
(2.48035e-07 2.07584e-06 0)
(-4.90013e-09 6.43647e-06 0)
(1.23462e-05 4.07535e-05 0)
(3.52811e-06 5.97978e-06 0)
(-1.79068e-10 2.1149e-09 0)
(-5.25153e-12 3.72978e-11 0)
(-1.64656e-05 0.000130127 0)
(1.88263e-05 0.000130199 0)
(8.49258e-06 4.27619e-05 0)
(-1.46015e-09 1.81158e-08 0)
(-1.22245e-06 1.34368e-06 0)
(-4.17462e-12 1.35809e-10 0)
(7.80693e-07 1.11051e-05 0)
(-1.65572e-06 7.81137e-06 0)
(-9.77994e-06 4.67386e-05 0)
(-1.42668e-05 0.000156196 0)
(1.63732e-05 0.000156011 0)
(3.75835e-06 4.02735e-06 0)
(6.38682e-06 3.78239e-05 0)
(-1.13026e-10 1.2774e-09 0)
(2.86549e-06 6.327e-06 0)
(1.73981e-06 2.37022e-06 0)
(-6.24311e-06 5.92336e-05 0)
(-5.03658e-06 4.81371e-05 0)
(6.692e-06 8.90018e-06 0)
(3.22543e-06 8.13578e-06 0)
(1.36433e-06 1.3814e-06 0)
(5.15895e-06 3.25565e-05 0)
(-3.26496e-06 6.28198e-06 0)
(9.75519e-06 0.000109159 0)
(9.45131e-06 6.59361e-05 0)
(2.26489e-05 0.000175242 0)
(-2.05332e-05 0.000175234 0)
(-1.90186e-08 1.28379e-07 0)
(1.04787e-05 2.15773e-05 0)
(-1.77331e-06 7.7922e-06 0)
(8.22592e-06 0.000128079 0)
(-7.58161e-10 6.12804e-09 0)
(-1.62887e-05 0.000171787 0)
(-2.91783e-10 2.5781e-09 0)
(1.16242e-05 0.000101378 0)
(-1.4295e-06 1.31745e-05 0)
(8.53545e-06 1.86044e-05 0)
(-1.0079e-11 4.07428e-10 0)
(6.55552e-07 0.000250011 0)
(-6.48149e-09 5.89039e-08 0)
(-5.53774e-07 1.51328e-05 0)
(-4.69754e-07 1.16517e-05 0)
(5.91338e-06 1.59655e-05 0)
(-3.51585e-06 6.05796e-06 0)
(-6.4985e-06 3.04545e-05 0)
(-1.18325e-05 5.34956e-05 0)
(-1.73654e-07 2.37626e-07 0)
(1.38714e-05 0.000190372 0)
(1.17092e-05 5.40804e-05 0)
(5.77017e-13 5.03916e-11 0)
(2.67851e-06 1.26308e-06 0)
(1.27862e-05 0.000221656 0)
(-9.6946e-09 6.3852e-08 0)
(-1.96392e-06 5.04676e-06 0)
(6.62221e-06 9.56451e-05 0)
(1.98296e-07 2.00984e-06 0)
(2.02404e-06 0.000131855 0)
(-1.60393e-06 3.13958e-06 0)
(-5.58522e-10 5.42965e-09 0)
(-5.96163e-07 6.3846e-07 0)
(4.99479e-10 1.12801e-08 0)
(1.71609e-06 1.48951e-05 0)
(-1.74096e-05 0.00028467 0)
(1.94072e-05 0.000284623 0)
(-3.3347e-06 2.59796e-05 0)
(-1.49993e-09 1.87667e-08 0)
(4.60151e-06 4.18456e-06 0)
(-1.19369e-09 9.67035e-09 0)
(8.41316e-06 3.15615e-05 0)
(2.55208e-05 0.000407055 0)
(-2.3417e-05 0.000407034 0)
(-1.07073e-11 1.6177e-10 0)
(-8.41215e-09 1.16277e-07 0)
(4.71607e-06 3.99796e-06 0)
(-3.58199e-06 3.44535e-05 0)
(-2.22635e-06 4.64089e-06 0)
(2.68881e-07 2.63026e-06 0)
(9.27089e-06 0.000255166 0)
(-1.43267e-06 4.35869e-05 0)
(6.2576e-11 7.85086e-10 0)
(1.12582e-06 5.17512e-05 0)
(2.08359e-05 0.00026947 0)
(-1.85723e-05 0.000269576 0)
(-1.12872e-11 7.05628e-10 0)
(1.16646e-10 2.95295e-09 0)
(6.38977e-06 4.33516e-05 0)
(-1.47325e-05 0.000284994 0)
(1.67376e-05 0.000285147 0)
(4.84632e-06 9.97512e-06 0)
(3.7673e-07 7.23082e-06 0)
(-1.08289e-10 1.21437e-09 0)
(9.79488e-06 0.000272124 0)
(5.57124e-06 1.51945e-05 0)
(4.96891e-07 5.32766e-06 0)
(1.74264e-05 0.000103792 0)
(-1.53038e-05 0.000103791 0)
(-5.46516e-06 1.51532e-05 0)
(7.59453e-06 1.5151e-05 0)
(5.1246e-06 5.10436e-06 0)
(-1.3617e-12 8.04758e-12 0)
(9.93103e-11 2.07049e-08 0)
(9.40156e-07 1.81714e-05 0)
(3.50727e-06 3.5198e-05 0)
(-2.07459e-10 1.40064e-09 0)
(5.34244e-06 6.1069e-06 0)
(1.36213e-06 2.21505e-06 0)
(3.04559e-12 6.03105e-10 0)
(1.17747e-05 6.65685e-05 0)
(-1.96804e-05 0.000260432 0)
(2.18036e-05 0.000260432 0)
(-6.94465e-07 1.22329e-06 0)
(-2.53302e-06 3.17445e-05 0)
(5.40101e-06 1.52225e-05 0)
(1.43864e-05 0.000283361 0)
(1.04616e-06 1.35762e-05 0)
(-1.01388e-10 1.93413e-09 0)
(4.42069e-06 4.96206e-06 0)
(-2.38506e-11 1.44332e-09 0)
(-3.53817e-09 6.14758e-08 0)
(-5.69149e-06 5.70264e-05 0)
(-5.09677e-07 4.08453e-07 0)
(-7.50173e-07 1.5248e-05 0)
(-1.84596e-06 2.35162e-06 0)
(2.21579e-05 0.00027136 0)
(-1.99565e-05 0.00027142 0)
(4.94897e-06 0.000159716 0)
(1.08189e-05 0.000274458 0)
(-2.61082e-06 3.20874e-05 0)
(-3.30688e-07 3.10848e-07 0)
(2.78762e-06 6.37955e-06 0)
(-3.83032e-08 1.36869e-07 0)
(5.07067e-06 3.28666e-05 0)
(-1.79318e-10 2.32976e-09 0)
(-3.27437e-06 7.34955e-06 0)
(-6.94345e-06 3.06609e-05 0)
(-3.62046e-06 1.59666e-05 0)
(1.65647e-06 1.36588e-05 0)
(-1.33269e-06 2.08026e-05 0)
(1.93076e-06 2.9468e-06 0)
(-1.82983e-07 4.55291e-06 0)
(1.50549e-05 0.000198518 0)
(2.71199e-06 1.75032e-06 0)
(4.70286e-06 1.00178e-05 0)
(-4.80416e-06 1.18309e-05 0)
(6.19097e-06 3.82202e-05 0)
(6.41621e-07 3.11677e-06 0)
(3.143e-06 1.21206e-05 0)
(-2.09921e-06 9.26631e-05 0)
(-5.27668e-07 4.17206e-07 0)
(1.10499e-05 5.36373e-05 0)
(1.10961e-05 2.45494e-05 0)
(-6.75266e-07 5.84579e-07 0)
(-1.02007e-05 0.000207653 0)
(1.24011e-05 0.000207609 0)
(4.5611e-09 6.68667e-08 0)
(-3.04221e-06 0.000243143 0)
(-1.11855e-06 6.58853e-06 0)
(4.00335e-11 1.34242e-09 0)
(6.47762e-06 1.65248e-05 0)
(-1.39411e-05 8.80073e-05 0)
(2.5199e-05 0.000313058 0)
(-2.31104e-05 0.000313087 0)
(-6.43932e-06 3.63664e-05 0)
(-2.14781e-12 6.04302e-10 0)
(4.07058e-07 1.13616e-05 0)
(-5.97053e-06 2.28803e-05 0)
(1.57535e-06 5.66908e-06 0)
(-7.65109e-06 7.39057e-05 0)
(-3.07809e-06 2.61659e-05 0)
(1.13462e-09 3.43685e-08 0)
(-6.66217e-11 5.41032e-10 0)
(1.46964e-06 1.90436e-05 0)
(1.01905e-05 0.000111935 0)
(2.77172e-06 0.000132883 0)
(-5.64768e-07 1.18189e-05 0)
(-2.33154e-11 1.39331e-09 0)
(-2.43137e-11 1.64233e-10 0)
(-5.68007e-06 2.28604e-05 0)
(-4.81195e-07 2.42412e-07 0)
(-1.53561e-05 0.000170669 0)
(1.54429e-06 5.72041e-07 0)
(2.87936e-06 5.28683e-06 0)
(-1.92068e-06 1.83206e-05 0)
(-2.36661e-10 1.58757e-09 0)
(-6.03726e-07 4.80738e-07 0)
(1.23746e-05 5.38573e-05 0)
(1.34373e-05 5.23065e-05 0)
(1.15576e-05 3.39909e-05 0)
(1.232e-05 0.000198108 0)
(-6.01795e-06 0.000261106 0)
(7.35982e-06 9.64967e-05 0)
(1.93129e-06 7.24829e-06 0)
(2.47653e-06 1.15384e-05 0)
(1.03739e-05 2.58962e-05 0)
(-1.03093e-05 4.65106e-05 0)
(-3.84208e-06 1.1376e-05 0)
(-7.71456e-06 3.05133e-05 0)
(-1.79883e-12 4.63376e-11 0)
(1.65302e-09 3.68392e-08 0)
(3.81355e-07 1.87505e-06 0)
(-4.18348e-06 8.50282e-06 0)
(-3.96813e-09 1.09156e-07 0)
(-3.68564e-06 3.48109e-05 0)
(2.07388e-06 7.08886e-06 0)
(1.5562e-06 5.15189e-05 0)
(-1.00559e-10 1.84773e-09 0)
(-2.22176e-06 2.18972e-05 0)
(1.84352e-06 7.32014e-06 0)
(-1.83091e-06 3.9446e-05 0)
(-1.08623e-06 1.11543e-06 0)
(2.6928e-05 0.000274944 0)
(-2.48048e-05 0.000274944 0)
(1.32902e-05 0.000224006 0)
(1.91729e-05 9.48756e-05 0)
(-1.70501e-05 9.48759e-05 0)
(-5.69411e-06 2.15559e-05 0)
(-1.55233e-06 1.88559e-06 0)
(1.09413e-09 2.47942e-08 0)
(-3.60255e-06 1.44148e-05 0)
(1.04114e-05 2.23135e-05 0)
(-2.16108e-07 2.59059e-07 0)
(-9.03179e-10 6.53094e-09 0)
(-2.31478e-05 0.000247991 0)
(2.52719e-05 0.000247991 0)
(3.33984e-06 8.19812e-06 0)
(-1.85482e-06 1.09526e-05 0)
(9.84253e-07 8.22748e-06 0)
(5.73532e-06 1.44277e-05 0)
(4.63586e-06 3.11658e-05 0)
(5.59007e-09 6.47726e-08 0)
(2.49648e-06 1.95785e-06 0)
(-3.51674e-06 6.16363e-06 0)
(8.66748e-07 8.32209e-06 0)
(-8.56864e-07 6.56155e-06 0)
(1.73077e-05 0.000104765 0)
(-1.51878e-05 0.000104751 0)
(-5.41146e-09 5.45109e-08 0)
(5.34477e-06 6.19931e-06 0)
(-7.87897e-12 8.16541e-11 0)
(4.84183e-06 6.01202e-06 0)
(-6.58864e-11 6.97453e-10 0)
(3.48765e-06 1.39274e-05 0)
(4.19964e-06 3.11789e-05 0)
(1.21511e-07 -9.1651e-08 0)
(-8.29173e-06 2.23034e-05 0)
(-9.19567e-11 1.56404e-09 0)
(1.22978e-06 6.42914e-07 0)
(-7.7231e-07 6.14297e-07 0)
(3.61491e-06 1.38084e-05 0)
(1.24086e-09 5.54971e-08 0)
(-9.49182e-06 0.000208897 0)
(1.1648e-05 0.00020889 0)
(-4.44667e-06 8.64943e-06 0)
(8.47038e-06 2.24094e-05 0)
(1.39134e-06 1.88785e-06 0)
(-3.83993e-06 6.92229e-05 0)
(5.51028e-06 6.65903e-06 0)
(-1.36317e-06 1.47809e-06 0)
(4.5148e-09 8.70636e-08 0)
(1.09809e-06 1.8446e-05 0)
(8.30461e-07 9.92659e-05 0)
(1.85433e-10 6.97988e-09 0)
(-5.63584e-08 1.65264e-07 0)
(-2.21108e-06 5.51786e-06 0)
(-1.8755e-05 0.00023704 0)
(2.08782e-05 0.00023704 0)
(-6.6901e-07 2.39731e-06 0)
(-3.87452e-12 3.76071e-11 0)
(8.37018e-06 0.000229657 0)
(-4.47498e-07 9.09216e-06 0)
(-3.47846e-06 2.28146e-05 0)
(-8.7003e-07 6.67404e-06 0)
(6.59055e-06 4.29754e-05 0)
(-5.78862e-07 4.92546e-07 0)
(-5.34253e-06 1.29897e-05 0)
(7.46157e-06 1.29957e-05 0)
(-1.86836e-06 4.95605e-06 0)
(-2.2063e-08 -1.03249e-08 0)
(2.05638e-09 4.58147e-08 0)
(-7.01294e-06 3.11547e-05 0)
(3.30564e-06 1.22538e-05 0)
(5.40359e-06 6.63037e-06 0)
(4.40193e-06 3.41336e-06 0)
(1.38809e-05 8.53911e-05 0)
(8.70709e-08 -6.42596e-08 0)
(-5.53778e-07 4.70777e-07 0)
(-1.75998e-06 1.51181e-05 0)
(-7.90481e-07 1.11853e-05 0)
(-5.60011e-06 5.63305e-05 0)
(-6.85372e-06 3.67134e-05 0)
(4.09369e-07 5.32636e-06 0)
(-6.79838e-07 4.91187e-07 0)
(4.7015e-07 0.000255728 0)
(-1.08164e-07 2.82052e-06 0)
(5.85626e-06 9.70879e-06 0)
(3.17913e-07 3.99951e-06 0)
(-1.05605e-07 1.76042e-07 0)
(-1.74411e-12 1.16732e-10 0)
(-1.06147e-06 3.72956e-06 0)
(-1.52154e-11 1.59439e-09 0)
(-3.4816e-06 1.57753e-05 0)
(-1.9461e-06 7.46202e-06 0)
(6.89467e-06 5.88407e-05 0)
(-6.45329e-08 1.53832e-07 0)
(-5.8151e-08 1.18563e-07 0)
(-2.48259e-05 0.000282306 0)
(2.69494e-05 0.000282306 0)
(-2.18784e-06 3.16701e-06 0)
(-5.18904e-07 6.52985e-07 0)
(-1.00282e-11 3.99816e-11 0)
(5.11818e-10 2.66977e-08 0)
(1.97103e-05 0.000110643 0)
(-1.76744e-05 0.000110653 0)
(-7.25789e-06 0.000127671 0)
(1.34435e-10 7.00038e-09 0)
(3.70972e-06 1.24758e-05 0)
(-8.28912e-07 7.21792e-07 0)
(-4.96184e-06 9.75319e-06 0)
(4.5048e-06 1.53048e-05 0)
(-8.49019e-07 6.27942e-07 0)
(-2.59578e-06 2.14952e-05 0)
(1.92412e-07 -4.22083e-08 0)
(-2.52418e-07 1.68708e-07 0)
(-2.13864e-07 2.32026e-07 0)
(-1.5898e-06 2.04315e-06 0)
(4.6834e-07 1.29075e-06 0)
(2.90126e-06 5.43812e-06 0)
(3.8414e-06 1.38855e-05 0)
(-1.08147e-11 1.49791e-10 0)
(-9.11024e-07 1.82679e-06 0)
(-1.6014e-06 1.94869e-06 0)
(-1.93693e-06 4.33789e-06 0)
(2.15288e-06 7.16877e-06 0)
(3.14409e-09 8.81458e-08 0)
(-1.48215e-05 8.78218e-05 0)
(4.74184e-08 5.90609e-05 0)
(6.97042e-06 0.000250203 0)
(-2.96555e-07 1.26546e-07 0)
(1.03804e-06 2.40356e-05 0)
(2.10355e-09 3.38259e-08 0)
(4.22126e-10 8.7957e-09 0)
(1.08256e-06 7.6516e-07 0)
(2.0206e-06 2.95556e-06 0)
(6.11904e-06 1.59828e-05 0)
(4.91464e-06 0.000165091 0)
(7.51896e-06 0.000338146 0)
(5.16405e-06 0.000383013 0)
(1.74903e-06 8.75202e-06 0)
(3.10391e-06 5.99517e-06 0)
(1.61446e-09 2.77862e-08 0)
(-1.27429e-06 1.34112e-06 0)
(5.42634e-06 5.70814e-06 0)
(3.89042e-06 1.25439e-05 0)
(-6.42922e-12 4.45182e-11 0)
(-1.19936e-07 2.93869e-05 0)
(1.68831e-06 8.63449e-06 0)
(-1.61608e-07 2.30553e-07 0)
(4.27028e-06 6.05506e-05 0)
(5.17881e-06 8.29387e-05 0)
(5.29293e-07 1.51006e-05 0)
(1.01569e-05 2.60199e-05 0)
(2.79505e-06 5.23921e-06 0)
(-3.29711e-10 2.96438e-09 0)
(-3.71688e-06 2.30225e-05 0)
(-3.40803e-10 3.07972e-09 0)
(1.28971e-05 0.000103748 0)
(2.66809e-06 6.00488e-06 0)
(-2.58007e-06 3.91275e-05 0)
(4.37181e-06 9.30034e-05 0)
(1.25897e-10 4.29291e-09 0)
(-1.13999e-11 3.92565e-11 0)
(1.527e-06 1.05075e-05 0)
(-1.21905e-09 1.05422e-07 0)
(2.54557e-06 4.90954e-06 0)
(-1.9654e-06 1.08697e-05 0)
(-2.83078e-06 1.16441e-05 0)
(-5.57346e-06 2.2191e-05 0)
(-1.79073e-05 0.00034711 0)
(2.01732e-05 0.000347127 0)
(3.77236e-06 5.48238e-06 0)
(6.46205e-09 5.86864e-08 0)
(-1.54669e-06 3.47351e-06 0)
(5.9646e-06 9.64589e-06 0)
(-9.003e-09 1.16745e-07 0)
(4.33437e-06 1.53124e-05 0)
(-1.38071e-06 1.4852e-06 0)
(-7.0387e-07 4.78609e-07 0)
(-1.50743e-06 1.47616e-05 0)
(5.11689e-07 0.000100153 0)
(-2.45523e-10 5.65949e-09 0)
(-5.06552e-06 9.98192e-06 0)
(-8.51853e-06 8.70646e-05 0)
(-2.60712e-07 2.81523e-07 0)
(1.56036e-06 1.74732e-06 0)
(-4.45044e-06 1.43948e-05 0)
(1.96869e-07 -7.92154e-08 0)
(6.57423e-06 1.43965e-05 0)
(-5.01185e-12 3.23272e-11 0)
(-7.94784e-06 2.04175e-05 0)
(1.68453e-06 5.48398e-06 0)
(-9.54021e-06 0.000295849 0)
(1.24154e-05 4.6006e-05 0)
(1.49823e-06 7.06693e-06 0)
(-2.19181e-07 2.38781e-07 0)
(-7.21113e-06 0.000349894 0)
(-1.94096e-12 1.86051e-11 0)
(4.76822e-09 4.24203e-08 0)
(-3.66897e-07 2.98858e-07 0)
(2.00334e-07 4.96325e-06 0)
(2.15669e-06 1.03028e-05 0)
(-4.20381e-06 9.17638e-05 0)
(7.39885e-06 1.19255e-05 0)
(4.31733e-12 1.35452e-10 0)
(-1.12044e-05 0.000123083 0)
(-1.1764e-09 3.21124e-08 0)
(-1.88089e-06 1.11428e-05 0)
(7.32145e-07 3.25971e-05 0)
(8.76577e-06 3.47301e-05 0)
(1.42164e-05 9.74332e-05 0)
(-1.20937e-05 9.74335e-05 0)
(1.31932e-05 0.000138139 0)
(-1.1045e-05 0.000138123 0)
(-7.45936e-12 7.44833e-11 0)
(-4.03626e-06 0.00017299 0)
(5.60967e-11 7.64754e-10 0)
(8.11448e-06 0.00016602 0)
(-1.25018e-06 2.43267e-05 0)
(5.05159e-06 4.89214e-06 0)
(6.18512e-06 3.54312e-05 0)
(2.35892e-09 9.94047e-08 0)
(4.67275e-06 4.15015e-06 0)
(1.39096e-06 7.8835e-07 0)
(4.07115e-06 6.90452e-06 0)
(8.95263e-06 4.16548e-05 0)
(2.53377e-05 0.000273999 0)
(-2.32144e-05 0.000273999 0)
(1.6926e-06 5.39651e-06 0)
(1.65822e-11 4.0925e-10 0)
(3.43912e-11 6.69728e-10 0)
(1.55652e-07 -7.95881e-08 0)
(5.30422e-06 5.49214e-06 0)
(-1.51062e-05 9.40068e-05 0)
(1.72291e-05 9.40065e-05 0)
(-2.3167e-06 5.79432e-05 0)
(4.27995e-07 2.92566e-06 0)
(-8.14511e-07 7.76252e-07 0)
(1.9782e-05 0.000111605 0)
(-1.76616e-05 0.000111632 0)
(1.3943e-05 0.000102354 0)
(6.46547e-07 1.11956e-05 0)
(2.55513e-06 9.24157e-06 0)
(1.42229e-05 0.00013784 0)
(-1.20745e-05 0.000137823 0)
(-2.61909e-06 0.000106113 0)
(5.02513e-13 4.95424e-11 0)
(1.53818e-06 1.81857e-06 0)
(1.72737e-06 1.92013e-06 0)
(-3.43153e-10 3.87792e-09 0)
(2.59071e-06 0.000260333 0)
(-3.01743e-06 7.3992e-06 0)
(5.70872e-06 7.92087e-05 0)
(-4.35763e-06 9.56633e-05 0)
(1.34431e-05 0.000153969 0)
(-1.13157e-05 0.000154038 0)
(-1.55417e-12 1.03607e-11 0)
(6.6355e-06 4.38017e-05 0)
(1.15067e-05 5.47978e-05 0)
(-1.4227e-06 2.41181e-06 0)
(-2.27378e-06 2.15656e-05 0)
(1.33314e-06 2.7414e-05 0)
(-6.36626e-11 6.32451e-10 0)
(8.98996e-06 2.08704e-05 0)
(-4.88986e-06 9.51394e-06 0)
(5.91946e-07 3.04551e-06 0)
(-2.82327e-10 3.08762e-09 0)
(-8.53476e-07 7.46005e-07 0)
(-1.33971e-06 3.6007e-06 0)
(-5.87354e-08 1.6826e-07 0)
(-4.47867e-06 0.000122123 0)
(1.86846e-06 1.84494e-06 0)
(-1.30557e-07 1.86359e-07 0)
(1.86289e-09 2.93041e-08 0)
(3.44354e-06 3.55728e-05 0)
(-3.75801e-06 1.06736e-05 0)
(-2.40431e-06 4.90967e-06 0)
(-4.22976e-11 8.02557e-10 0)
(2.32493e-06 2.8919e-06 0)
(-8.31742e-10 4.75992e-08 0)
(-2.27903e-06 4.83673e-06 0)
(3.15813e-06 6.08793e-06 0)
(6.32177e-06 0.000166606 0)
(-1.17229e-11 1.32676e-10 0)
(4.89904e-06 4.96402e-06 0)
(-2.38329e-05 0.000284021 0)
(2.59565e-05 0.00028402 0)
(3.60223e-10 1.1579e-08 0)
(-5.84698e-06 2.2187e-05 0)
(7.37515e-07 1.49319e-07 0)
(6.2997e-06 0.000335668 0)
(3.8804e-07 1.15522e-06 0)
(-5.93955e-09 5.80102e-08 0)
(-4.46488e-06 9.26595e-05 0)
(-1.54797e-09 2.28409e-08 0)
(-2.3117e-11 1.45288e-10 0)
(3.87627e-06 2.79931e-05 0)
(8.74456e-06 3.15271e-05 0)
(4.55515e-07 -2.30612e-08 0)
(3.93889e-06 2.41762e-05 0)
(-7.76119e-06 3.28248e-05 0)
(1.25531e-05 5.3199e-05 0)
(-7.82278e-07 9.59985e-07 0)
(-7.49127e-06 3.17976e-05 0)
(7.12664e-12 4.13658e-10 0)
(5.12769e-06 9.3818e-05 0)
(-1.04123e-06 2.39723e-05 0)
(-1.00627e-05 3.17361e-05 0)
(8.75368e-07 1.35849e-06 0)
(4.74981e-06 2.79636e-05 0)
(-9.26606e-08 4.56041e-06 0)
(1.7696e-10 4.30816e-09 0)
(-1.09538e-05 8.38264e-05 0)
(-2.89927e-06 7.40714e-06 0)
(2.82678e-06 5.47276e-06 0)
(7.43361e-07 3.15989e-06 0)
(8.97944e-06 2.59223e-05 0)
(1.27833e-05 5.19578e-05 0)
(-5.37068e-06 2.66226e-05 0)
(1.40817e-05 5.2162e-05 0)
(-2.19447e-08 1.21393e-07 0)
(-2.64318e-06 1.45894e-05 0)
(6.02551e-06 3.99489e-05 0)
(-1.28419e-10 7.80623e-10 0)
(-1.61847e-06 0.000156858 0)
(-6.24648e-08 7.05907e-08 0)
(1.38037e-05 0.000103202 0)
(8.70969e-06 3.5088e-05 0)
(1.01493e-06 2.44202e-05 0)
(1.94754e-11 4.27108e-10 0)
(-7.6716e-07 3.63976e-05 0)
(-5.23112e-06 5.16592e-05 0)
(1.07213e-05 6.4903e-05 0)
(-7.71292e-08 1.5218e-07 0)
(-5.10225e-06 1.10925e-05 0)
(-4.44174e-07 2.88013e-07 0)
(-7.75406e-06 8.63681e-05 0)
(-1.41748e-07 -3.48946e-08 0)
(-1.96667e-07 8.12046e-06 0)
(-5.14623e-06 5.90937e-05 0)
(-8.13454e-10 2.73375e-08 0)
(-1.2701e-06 9.30521e-05 0)
(-8.68562e-06 5.27347e-05 0)
(-1.53768e-06 1.89679e-06 0)
(-3.49531e-12 3.04797e-11 0)
(-3.45877e-06 8.1731e-06 0)
(-9.10013e-06 3.92456e-05 0)
(-7.59179e-07 9.83265e-07 0)
(1.92096e-09 3.77696e-08 0)
(-1.6929e-06 3.55471e-06 0)
(2.60534e-06 2.01748e-06 0)
(-2.06987e-05 0.00014997 0)
(2.28206e-05 0.000149971 0)
(4.38939e-06 2.25154e-05 0)
(2.78738e-06 1.83949e-05 0)
(1.42462e-06 1.08581e-05 0)
(1.59835e-06 1.15591e-05 0)