/*--------------------------------*- C++ -*----------------------------------*\
| =========                 |                                                 |
| \\      /  F ield         | OpenFOAM: The Open Source CFD Toolbox           |
|  \\    /   O peration     | Version:  v3.0+                                 |
|   \\  /    A nd           | Web:      www.OpenFOAM.com                      |
|    \\/     M anipulation  |                                                 |
\*---------------------------------------------------------------------------*/
FoamFile
{
    version     2.0;
    format      ascii;
    class       volSymmTensorField;
    location    "6000";
    object      sigma;
}
// * * * * * * * * * * * * * * * * * * * * * * * * * * * * * * * * * * * * * //

dimensions      [1 -1 -2 0 0 0 0];

internalField   nonuniform List<symmTensor> 
24076
(
(-7.52739e+07 2.34461e+06 -4.81838e-12 693693 1.3212e-13 -1.85049e+07)
(-7231.27 -85404.2 4.06939e-15 999632 -7.17508e-15 246235)
(-187.669 -1877.63 -5.77024e-17 14781.1 1.4831e-16 3620.92)
(334.118 -1413.1 -1.68965e-17 15267.8 1.16579e-16 3871.15)
(-1.12051e+07 4.25426e+06 2.60499e-12 5.86796e+06 -9.48703e-13 -1.32426e+06)
(-3593.18 -65433.5 1.34205e-15 1.16157e+06 4.27618e-14 287318)
(6965.47 -98968.6 -9.78192e-17 1.03637e+06 -1.35915e-14 258873)
(-8.02757e+07 1.41251e+06 -6.11185e-12 424323 1.53448e-12 -1.98127e+07)
(250.52 -922.669 -1.20071e-18 1114.14 4.85779e-17 338.6)
(-6.85401e+07 -1.20189e+06 5.17823e-12 85160.7 -1.20897e-11 -1.69851e+07)
(5.34236e+07 -7.9709e+06 -1.06234e-12 1.19613e+07 2.00504e-12 1.62233e+07)
(-6.66338e+07 -1.11234e+06 -2.06281e-12 -20348.4 6.09371e-12 -1.65382e+07)
(-3.30938e+07 9.18445e+06 -2.05496e-12 2.16671e+06 -1.90529e-12 -7.67363e+06)
(-7.14678e+06 4.75422e+06 -2.7892e-12 5.72706e+06 -7.03113e-13 -352262)
(-8.23095e+07 -1.02315e+06 1.01218e-12 -392548 -8.90841e-12 -2.05201e+07)
(-6.38563e+06 -1.83538e+06 -5.83279e-12 -243542 -1.46049e-11 -1.64483e+06)
(4.36885e+07 -830438 7.89591e-12 -45994 -3.2616e-11 1.08286e+07)
(-4.43824e+07 -1.13014e+06 -9.85198e-12 40755.2 2.60264e-11 -1.10021e+07)
(-548525 -3.09609e+06 -1.07074e-11 386718 6.0078e-12 -40147.6)
(-8.28531e+06 -3.31192e+06 -1.93167e-11 -166354 1.74473e-11 -2.09703e+06)
(-8.10363e+07 178651 5.24557e-13 -357894 -2.70849e-12 -2.01956e+07)
(4.64615e+07 -4.02246e+06 1.28834e-12 6.43366e+06 -3.32464e-12 1.31244e+07)
(-7140.6 -61608.3 1.71073e-15 1.46496e+06 -1.70722e-16 361714)
(5.4244e+07 -7.22475e+06 1.89223e-12 1.1545e+07 -4.28254e-13 1.63236e+07)
(1.78377e+06 7.28391e+06 3.16846e-13 3.68363e+06 -3.35434e-13 1.35657e+06)
(2.99077e+06 -2.01585e+06 -8.94654e-12 311307 5.44989e-12 819313)
(2.25717e+06 -3.68244e+06 -3.16487e-14 5.7743e+06 1.837e-14 1.99277e+06)
(5069.34 -79914.5 -2.00308e-15 1.16599e+06 1.05683e-14 290564)
(5.74967e+06 -2.68887e+06 -1.07381e-11 -298692 -9.42653e-13 1.3525e+06)
(4.50869e+06 8.61054e+06 -6.23779e-12 3.81914e+06 -1.88878e-12 2.0663e+06)
(1.27757e+07 -2.15615e+06 4.35649e-12 -312138 7.70002e-12 3.09247e+06)
(13287.7 -70897.7 -1.1963e-15 274728 -3.68918e-15 71462.5)
(-2.99194e+07 -2.12e+06 1.71944e-11 128125 2.19157e-12 -7.39181e+06)
(-2.43203e+07 -360513 2.56715e-12 3.10133e+06 -7.28502e-12 -5.26485e+06)
(-3.47275e+07 -3.0228e+06 1.44948e-11 -199555 -1.71521e-12 -8.66612e+06)
(-5.87633e+07 -2.28072e+06 8.46248e-12 41462.5 3.03931e-12 -1.45701e+07)
(-3.23842e+07 8.52775e+06 -4.06414e-12 1.58687e+06 -1.36687e-12 -7.64144e+06)
(4.48584e+07 445881 8.60286e-12 186378 -1.8733e-11 1.11765e+07)
(-4.52802e+07 307890 -1.81794e-12 -220208 3.93614e-11 -1.12896e+07)
(-8.24399e+07 45374.6 -2.36263e-12 -272085 -2.80318e-13 -2.05225e+07)
(2.48222e+07 -8.88877e+06 6.46277e-13 3.35782e+06 -6.8208e-13 6.99204e+06)
(8.52566e+06 -2.14974e+06 -1.47521e-11 329630 -3.03339e-12 2.19718e+06)
(-2.47312e+07 6.86825e+06 -8.66262e-12 3.25065e+06 -3.27212e-12 -5.32976e+06)
(-2.09743e+07 -677402 -4.09622e-12 2.89439e+06 -2.24188e-12 -4.486e+06)
(-5.50422e+07 -1.02109e+06 4.46532e-12 82566.1 3.77195e-12 -1.36366e+07)
(7.93968e+07 -1.36934e+06 -7.40768e-12 -28152 9.35071e-13 1.9693e+07)
(55121.4 -409389 3.23832e-15 1.27409e+06 8.74962e-15 329803)
(-1.98095e+07 -2.52079e+06 5.01064e-14 -9323.87 4.24982e-12 -4.91744e+06)
(3.03316e+06 -4.06518e+06 8.44357e-14 5.96449e+06 -4.79403e-14 2.2325e+06)
(5.85117e+07 -2.39725e+06 1.32205e-11 -128246 4.05527e-12 1.44861e+07)
(595.575 -2399.1 -3.94867e-16 40226.2 -1.05056e-15 10128.7)
(580613 -1.75799e+06 8.794e-14 5.68852e+06 -1.38581e-13 1.5555e+06)
(1112.92 -2829.67 1.5035e-17 1695.73 -1.91321e-16 696.883)
(4054.99 -107413 5.54913e-15 1.26598e+06 1.30521e-14 315120)
(182.944 -897.016 -2.89173e-18 1070.55 -5.08501e-17 311.018)
(-3.34698e+07 -1.60168e+06 0 -269077 0 -8.3713e+06)
(-1.25208e+07 670686 9.28903e-13 4.0327e+06 1.16419e-12 -2.10608e+06)
(-8.43491e+07 -232203 6.63341e-12 56859.2 5.61978e-12 -2.09146e+07)
(-154519 -2.82808e+06 1.79373e-11 -38863.9 7.78353e-12 -47982.3)
(-3.90515e+07 -2.38029e+06 5.33059e-12 -253862 1.35406e-11 -9.75246e+06)
(7.95736e+07 178646 2.25193e-11 -199015 -3.0877e-11 1.96945e+07)
(67352.1 -397122 1.59854e-15 555208 1.86813e-14 154470)
(9.49234e+07 -233239 -3.2967e-13 -119714 1.17757e-11 2.35227e+07)
(5.4798e+07 -963229 -3.24904e-13 25393.3 -7.59511e-12 1.36028e+07)
(3.99698e+07 -2.9614e+06 -3.94546e-12 1.05998e+07 -3.20664e-12 1.25473e+07)
(-7.982e+07 -844082 9.36462e-12 254833 1.08784e-11 -1.97417e+07)
(-2.23468e+07 1.53618e+06 -5.56013e-12 4.10263e+06 -3.00601e-12 -4.52676e+06)
(3.52086e+07 -2.23726e+06 -2.63223e-13 1.07272e+07 1.58473e-12 1.13976e+07)
(5897.48 -142897 3.06323e-15 774897 -1.55727e-15 193731)
(-2.08096e+07 1.01227e+06 2.78621e-12 3.77776e+06 -5.51662e-13 -4.22594e+06)
(-289303 -2.93064e+06 -3.80228e-11 -23210.4 -1.04592e-13 -77541)
(58286.8 -219189 -1.59039e-14 2.11806e+06 2.75272e-14 539996)
(5.95668e+07 -1.11672e+06 -2.62156e-12 -122730 -1.29076e-12 1.47493e+07)
(41229.5 -118312 -1.12235e-16 137205 -1.72685e-14 44273.3)
(2.29905e+07 -8.82972e+06 1.09195e-12 3.50205e+06 -1.07009e-12 6.57335e+06)
(-1.43032e+07 -1.86049e+06 -2.44155e-11 464580 9.86447e-12 -3.43363e+06)
(4.84578e+07 -5.63936e+06 3.13991e-12 7.07209e+06 -2.30111e-12 1.37781e+07)
(5.74972e+07 -1.65379e+06 -3.88961e-11 44369.5 2.25742e-11 1.42772e+07)
(-5.25404e+07 774206 0 1.22532e+06 0 -1.27323e+07)
(9.62337e+07 -590354 -2.95591e-12 -209222 7.95774e-12 2.38256e+07)
(18688.6 -379834 -2.13609e-15 1.19787e+06 -3.11047e-14 301853)
(-1.89604e+07 -1.89799e+06 -7.29877e-12 -52900.6 -1.23967e-12 -4.71758e+06)
(2.57279e+07 -3.35871e+06 -4.93899e-12 3.50367e+06 2.49685e-12 7.25296e+06)
(1.42881e+07 3.69896e+06 0 7.19542e+06 0 5.33049e+06)
(8.97292e+06 -9.10275e+06 1.11317e-13 9.16903e+06 -9.40175e-15 4.50139e+06)
(1367.11 -2831.77 1.01855e-17 1923.75 -9.89748e-17 816.53)
(-1.50384e+07 -2.06224e+06 7.91501e-12 152421 -1.00813e-12 -3.69352e+06)
(4.76173e+07 -1.9466e+06 -1.36942e-11 -220777 1.74343e-11 1.176e+07)
(199513 -2.78876e+06 -2.15173e-11 9503.62 1.46282e-11 51861.4)
(-9.64426e+06 -2.47317e+06 4.29254e-11 96841.3 -1.04922e-11 -2.36891e+06)
(-1.8047e+07 -3.398e+06 8.72149e-12 254354 -7.31251e-12 -4.41471e+06)
(-230911 -2.90039e+06 -1.69426e-11 48814.1 2.6349e-11 -45182)
(4.58564e+07 -2.66883e+06 4.10041e-12 1.04739e+06 -3.96612e-12 1.16378e+07)
(-1.3595e+07 -537670 7.19898e-12 4.04911e+06 4.75961e-12 -2.36852e+06)
(1.33507e+07 3.78319e+06 2.57116e-12 7.98016e+06 2.42602e-12 5.29263e+06)
(4.34847e+07 -1.32549e+07 -1.05724e-12 1.11919e+07 1.46973e-12 1.35664e+07)
(7.15649e+06 -3.45879e+06 3.73924e-12 -379363 -2.03129e-11 1.68154e+06)
(-6.46172e+06 -2.98234e+06 0 80902.3 0 -1.58321e+06)
(6218.49 -76551.8 1.45036e-16 250012 2.72201e-15 63575.9)
(-2.21157e+07 4.20048e+06 2.30903e-12 4.55087e+06 3.12174e-12 -4.3582e+06)
(2.43292e+07 -2.94947e+06 1.03778e-11 3.30915e+06 3.68126e-12 6.85763e+06)
(4.1166e+07 -4.4919e+06 -2.32972e-12 9.9154e+06 4.7366e-13 1.26743e+07)
(9.96241e+06 -2.87469e+06 1.26791e-11 102329 -2.11701e-11 2.49727e+06)
(-5.36947e+07 626073 2.1621e-12 1.6102e+06 2.77802e-12 -1.29232e+07)
(1.44803e+07 -2.98635e+06 4.57142e-12 69322.7 1.22111e-11 3.61007e+06)
(2.36421e+07 -1.33805e+07 4.59845e-13 1.02282e+07 -7.47868e-13 8.40391e+06)
(10643.9 -35902.2 1.60888e-17 56129.6 -3.8028e-15 16567.9)
(-5031.73 -76802.5 2.0195e-15 1.75539e+06 -9.37725e-15 434298)
(7.10508e+07 -4.29672e+06 -7.29805e-12 1.75382e+06 -1.62651e-12 1.80643e+07)
(2.64708e+07 -3.19395e+06 -1.65366e-11 87875.4 1.89504e-12 6.58974e+06)
(6.2875e+06 -1.80564e+06 1.19377e-11 56081.6 -2.89913e-12 1.57397e+06)
(-1.40827e+07 -2.32683e+06 1.34236e-11 440062 -1.63233e-11 -3.38501e+06)
(158.296 -1232.78 -2.47491e-17 3342.6 2.19802e-17 868.643)
(105848 -423436 7.04462e-16 615784 9.67602e-15 179052)
(-1.13112e+07 -1.52677e+06 -1.07382e-11 131681 3.26768e-11 -2.77386e+06)
(-324.793 -3624.84 -4.04696e-16 37163.4 -1.60186e-15 9140.41)
(4.77366e+07 -5.9472e+06 1.83707e-12 1.16122e+07 -9.7071e-13 1.47256e+07)
(2.23569e+07 -1.647e+06 -6.83372e-12 -378541 -9.38989e-13 5.45327e+06)
(-7.64011e+06 -2.23448e+06 -3.8788e-12 -25354.7 -4.64189e-11 -1.90196e+06)
(2.97118e+07 -2.55802e+06 7.44346e-12 -165160 7.07566e-12 7.33112e+06)
(4.55572e+06 -2.93158e+06 2.5245e-12 -319282 6.77323e-12 1.05115e+06)
(4.9907e+07 -851723 5.07984e-12 12152.8 2.24772e-12 1.23859e+07)
(2.03903e+07 -1.44948e+07 -4.39056e-13 1.34205e+07 6.13101e-13 8.38916e+06)
(-7.8914e+07 1.79136e+06 -2.29438e-12 895670 -1.2525e-12 -1.93579e+07)
(-5.18537e+07 -2.31711e+06 0 207706 0 -1.28144e+07)
(4.55101e+07 -908903 4.18642e-12 -356257 6.60289e-14 1.12036e+07)
(7.08562e+07 -2.52292e+06 1.93892e-12 1.38303e+06 2.33091e-12 1.7924e+07)
(-4.22594e+07 -1.16378e+06 -4.23035e-12 131439 4.05019e-12 -1.04528e+07)
(1.53994e+07 -1.81533e+06 4.62151e-13 64546.8 1.71162e-13 3.83692e+06)
(879.043 -17824.8 7.55056e-17 185150 -1.49034e-15 46157.7)
(4.94607e+07 -2.28261e+06 -6.34185e-12 -103439 -9.63151e-13 1.22465e+07)
(2.88576e+07 -1.78886e+06 8.92781e-12 237558 2.50788e-11 7.21909e+06)
(2.19075e+07 -2.54486e+06 6.01364e-12 -156277 -4.21518e-11 5.39691e+06)
(12126.8 -95324.6 3.89501e-15 1.51813e+06 -2.65647e-14 379687)
(4.72071e+07 -2.58868e+06 -4.45224e-12 931592 5.24048e-12 1.19442e+07)
(920373 -2.18002e+06 -1.43424e-13 7.66798e+06 1.60186e-13 2.13094e+06)
(-3.78866e+06 -1.93156e+06 1.12515e-11 1.19167e+06 -1.34417e-12 -644368)
(-2.50572e+07 8.05106e+06 -5.48962e-12 3.65693e+06 -4.26222e-12 -5.30985e+06)
(-3.22647e+06 -1.67625e+06 -3.28328e-11 -116086 1.25994e-12 -829356)
(-7.98006e+06 -1.77684e+06 -7.06878e-13 1.08094e+06 -2.9011e-12 -1.71181e+06)
(-1.21537e+07 -2.20904e+06 2.40505e-12 1.18102e+06 -4.37711e-12 -2.72254e+06)
(336.774 -1370.65 1.13797e-17 3361.95 1.00161e-16 917.73)
(4.13091e+06 -3.4901e+06 4.1301e-14 1.87778e+06 -1.22704e-13 1.49088e+06)
(5.22413e+06 -2.72825e+06 -2.58641e-11 13318.8 -1.19791e-11 1.29952e+06)
(-2.33372e+07 -1.51648e+06 -3.38998e-11 -242438 5.05195e-12 -5.85058e+06)
(-1.24018e+07 -2.78516e+06 -2.22877e-12 153817 -4.35222e-13 -3.03897e+06)
(2.03067e+07 -1.81552e+06 1.15823e-12 299521 -7.95949e-12 5.11283e+06)
(-2.85164e+07 -2.39323e+06 -3.30789e-11 -13863.8 -2.96012e-12 -7.07895e+06)
(-1.00942e+06 -2.43533e+06 -8.35732e-12 1.02713e+06 -5.19467e-12 4394.21)
(1850.73 -10888.9 5.97992e-16 89466.7 1.75452e-15 22657.7)
(6.46207e+07 -1.56116e+06 -5.40661e-12 235529 -1.78554e-12 1.60922e+07)
(282.44 -662.147 5.59014e-18 178.773 -4.3767e-17 114.436)
(-4.33014e+07 7.45758e+06 -8.21158e-13 126324 -2.03807e-13 -1.07126e+07)
(-2.22907e+07 5.10262e+06 3.61747e-12 4.08646e+06 2.52217e-12 -4.51684e+06)
(-5.26202e+07 -1.2057e+06 2.54637e-12 421285 -2.27744e-12 -1.29516e+07)
(-7.54334e+06 -3.16379e+06 3.15e-11 555025 -2.586e-11 -1.73394e+06)
(-7.87728e+07 1.48337e+06 3.32226e-13 -235062 5.09101e-13 -1.96035e+07)
(1.39753e+07 -2.17694e+06 -7.42981e-12 105957 3.37494e-13 3.49386e+06)
(-4.34418e+06 -2.79273e+06 8.45842e-12 1.61618e+06 -9.88624e-12 -676871)
(1776.89 -8078.62 9.57144e-17 19793.2 8.01734e-16 5351.99)
(2.07558e+06 5.88127e+06 -9.51679e-14 -3.8387e+06 1.73636e-13 -437465)
(227.95 -889.602 0 841.132 0 265.261)
(-8.51278e+07 1510.33 8.39312e-12 -79132.8 -1.2584e-13 -2.11416e+07)
(9.13226e+07 -4.83508e+06 8.96245e-13 2.20215e+06 -1.63498e-12 2.32054e+07)
(932030 -3.0017e+06 5.79061e-12 -304744 -1.23315e-11 155642)
(-3.34001e+07 -799209 -3.33813e-11 111704 -2.74558e-11 -8.25952e+06)
(3.33608e+07 -819522 -8.346e-12 -119206 2.93606e-11 8.2479e+06)
(3.5461e+07 -1.87507e+06 -1.33447e-13 161827 6.69587e-13 8.83874e+06)
(5.01907e+07 -5.72168e+06 -4.76713e-12 9.96746e+06 2.61223e-12 1.49265e+07)
(2.03417e+07 -5.58094e+06 -1.71228e-13 -782850 1.02992e-13 4.85295e+06)
(-3.27992e+07 -1.07711e+06 -7.5294e-12 1.42661e+06 -2.33514e-12 -7.78417e+06)
(3514.86 -27990.2 -2.25724e-14 1.60941e+06 4.45623e-14 400199)
(7.56537e+06 -2.18746e+06 -3.55339e-12 90763.3 -2.8609e-12 1.89964e+06)
(-2.33156e+07 -2.12746e+06 3.12621e-12 382008 -6.48227e-12 -5.69029e+06)
(5.25989e+07 -1.35893e+06 -3.76712e-12 -27913.9 -5.54298e-12 1.30439e+07)
(-5.24223e+07 -1.37289e+06 6.63069e-12 144543 -1.00383e-11 -1.29712e+07)
(5.00699e+07 -1.90842e+06 6.08965e-12 -86316 -1.2352e-11 1.24019e+07)
(-4.95973e+07 -1.9339e+06 7.50015e-12 -17795.1 -5.11076e-12 -1.23105e+07)
(-7.58232e+07 214452 -1.22375e-12 62470.1 2.59494e-11 -1.87978e+07)
(7.13694e+07 -1.82007e+06 -1.01615e-11 -90023.6 7.45645e-12 1.76859e+07)
(9.20003e+07 -571306 8.26338e-12 -110831 -7.16758e-13 2.27996e+07)
(123536 -312722 -7.67134e-16 168184 9.41664e-15 72381.6)
(-3.61024e+07 1.26087e+06 5.28802e-12 2.4182e+06 -1.03612e-12 -8.35774e+06)
(1.07051e+07 1.64733e+06 -1.99777e-13 -3.84403e+06 1.50493e-13 1.70236e+06)
(1.12423e+07 1.75549e+06 3.55748e-13 -4.4674e+06 -2.27769e-13 1.68098e+06)
(1.85586e+07 -438813 -1.676e-12 8.59488e+06 1.75446e-12 6.73732e+06)
(5.0689e+07 -4.49267e+06 5.39076e-13 9.52261e+06 -2.94211e-12 1.49397e+07)
(8.03781e+06 -1.48871e+07 0 2.7978e+07 0 8.93625e+06)
(6.64411e+07 -1.10191e+07 -4.13732e-13 1.16905e+07 2.50745e-12 1.93861e+07)
(-2.36033e+07 1.09236e+07 -5.99007e-13 -392186 5.80212e-13 -5.95376e+06)
(-2974.49 -14065.2 -1.26636e-15 325048 1.24764e-15 79913.1)
(4.67278e+07 -2.52221e+06 -1.27808e-12 -36486.7 -1.37246e-12 1.15851e+07)
(1.97654e+07 -2.59234e+06 -1.4991e-11 273017 -1.07439e-11 4.97194e+06)
(4.25418e+07 -1.15121e+06 -2.13822e-11 -62610 -8.55101e-12 1.054e+07)
(-2.70145e+07 -2.37635e+06 3.63103e-12 -14846.6 2.21165e-11 -6.70654e+06)
(-7.73757e+07 -282716 -5.27148e-12 171604 -1.934e-12 -1.91559e+07)
(-262.8 -86041.4 -2.43127e-15 1.21191e+06 1.86459e-14 300635)
(-4.52175e+07 -2.04151e+06 2.85275e-12 27014.2 -2.03524e-11 -1.12127e+07)
(4.54648e+07 -1.96815e+06 -1.75104e-11 -87434.9 1.13769e-11 1.1259e+07)
(7.71256e+07 -211414 5.28263e-12 -159360 -1.93583e-12 1.90969e+07)
(-3.5585e+07 304887 -2.63066e-12 2.41611e+06 -2.3946e-12 -8.22987e+06)
(6.25465e+06 -1.27398e+07 2.25719e-13 2.64054e+07 -3.4155e-13 8.10363e+06)
(2.70085e+07 -1.22573e+06 8.30938e-12 -338227 7.50574e-12 6.61744e+06)
(-2.70496e+07 -1.2307e+06 0 341222 0 -6.6269e+06)
(-2.51087e+06 -2.73475e+06 -1.64982e-11 -103283 -8.69155e-13 -648625)
(-1.65576e+07 4.51467e+06 -3.32852e-12 4.49359e+06 -5.47204e-13 -2.99333e+06)
(7.28205e+07 -883115 -8.47645e-12 -37713.4 7.55372e-12 1.80589e+07)
(4.16349e+07 -2.15783e+06 6.10617e-12 58395.3 -2.12813e-11 1.03449e+07)
(-6.93245e+07 3.67167e+06 -4.20458e-12 103625 -1.80462e-12 -1.71751e+07)
(1.28391e+07 -2.96112e+06 -1.16734e-12 66257.7 7.2357e-12 3.20209e+06)
(162787 -703710 0 1.66398e+06 0 453259)
(-4.63972e+06 -2.94881e+06 -4.81741e-12 -13292.2 3.72599e-12 -1.15451e+06)
(134121 -562948 -2.24128e-15 3.38959e+06 -6.42574e-14 874303)
(6.27986e+07 -1.34362e+06 -3.48269e-12 -286557 7.10869e-12 1.55105e+07)
(296.736 -989.131 0 901.682 0 297.352)
(6.62631e+06 -2.37594e+06 2.86508e-12 184488 -9.46029e-12 1.6899e+06)
(694479 -2.19274e+06 7.09629e-14 7.24809e+06 -2.40359e-13 1.97071e+06)
(8.09463e+07 -360753 3.2121e-12 -72636 2.82012e-12 2.00664e+07)
(5.12394e+06 -99072.7 -1.93577e-11 101612 2.98138e-14 1.29657e+06)
(-5.14184e+06 -100680 1.95254e-11 -99975.8 -4.91484e-14 -1.3006e+06)
(6.29117e+06 -2.42097e+06 1.54321e-11 142778 2.59725e-12 1.59639e+06)
(-8.91874e+07 57842.3 1.14594e-11 -285350 2.72401e-12 -2.22e+07)
(-9.40506e+07 -2214.19 -1.74708e-13 -578302 -5.30159e-13 -2.34794e+07)
(4.06165e+07 -3.97523e+06 2.07137e-12 4.81596e+06 1.9454e-12 1.12727e+07)
(-7.72313e+07 -487572 -4.05331e-12 273933 3.19796e-13 -1.90947e+07)
(11024.7 -23728.6 -8.93545e-17 10169.7 7.05847e-16 5258.78)
(2360.49 -10393.5 -3.96097e-17 17475.5 -4.96729e-16 4921.7)
(4.8862e+07 -1.27393e+06 -9.61244e-12 252144 1.77102e-11 1.21862e+07)
(10367.4 -22916.1 -5.90721e-17 14433.5 8.31019e-16 6153.59)
(-1.11242e+07 -2.04172e+06 3.26411e-11 -117985 8.23622e-12 -2.78942e+06)
(1613.19 -8836.96 -1.4048e-17 17403 -4.41645e-16 4718.31)
(4.54127e+07 -1.35611e+06 1.06596e-11 -33804.7 -9.52696e-12 1.12594e+07)
(4773.24 -18536.1 6.40541e-17 33669.5 2.6385e-16 9538.41)
(139656 -390054 1.11967e-15 173485 -1.31884e-14 77696.7)
(-1.04462e+07 -2.02106e+06 -4.4321e-12 2.6512e+06 9.22272e-13 -1.93409e+06)
(-1.93246e+07 -1.70088e+06 1.67216e-11 -195697 -9.95588e-12 -4.84337e+06)
(3.1327e+07 -6.12573e+06 4.05819e-13 4.85113e+06 1.38994e-13 8.97653e+06)
(-2.20658e+07 9.61048e+06 -1.74071e-12 -943355 -4.93229e-13 -5.70904e+06)
(3.06505e+07 -3.11066e+06 -9.00949e-12 285319 -7.4387e-12 7.6758e+06)
(7.33195e+07 -1.44284e+06 -6.58993e-12 147794 1.92951e-11 1.82287e+07)
(-7.28556e+07 -1.59965e+06 1.01346e-11 84162.4 -2.06338e-11 -1.80561e+07)
(1.04174e+07 -9.58798e+06 3.51808e-13 9.39098e+06 6.32953e-14 4.91487e+06)
(3.14083e+07 -2.77415e+06 1.74462e-11 -38444.8 1.62782e-11 7.78349e+06)
(3.18209e+07 -1.29038e+06 2.05735e-11 477397 -3.1847e-11 8.01387e+06)
(-5.96804e+07 845416 1.08283e-12 -187297 1.72205e-11 -1.48544e+07)
(5.93157e+07 785009 2.81906e-12 31388.3 -1.60271e-11 1.47252e+07)
(4.09246e+07 -2.13639e+06 0 67797.3 0 1.0171e+07)
(-8.14311e+07 -1.56721e+06 2.82697e-12 480749 3.76282e-12 -2.00854e+07)
(8.11074e+07 -1.47266e+06 -6.43091e-12 -459297 1.01512e-12 2.00104e+07)
(5.01344e+07 -6.84306e+06 8.77271e-13 1.19467e+07 5.81219e-13 1.54036e+07)
(3.28441e+07 -352858 -1.76535e-11 -54925 -3.26694e-12 8.13567e+06)
(-1.13952e+07 -2.41153e+06 2.24995e-11 -2499.56 4.8111e-11 -2.82799e+06)
(-1.53121e+06 6.14306e+06 8.12873e-13 -3.90775e+06 -1.0729e-13 -1.34952e+06)
(-7.89398e+07 -637930 1.54171e-12 321453 3.28814e-12 -1.95068e+07)
(-5.87163e+07 -154369 0 -241478 0 -1.46286e+07)
(5.8858e+07 -137791 -2.6046e-12 268451 -2.17408e-12 1.46705e+07)
(-2760.05 -83875 1.37082e-15 655272 1.66797e-14 161902)
(6751.28 -75338.5 1.94825e-15 220382 3.01665e-15 56356.3)
(-47627.1 -286583 -6.1258e-14 3.23004e+06 -9.62905e-14 789621)
(-9.48204e+06 -1.8299e+06 -1.43613e-11 -88492.2 3.72313e-12 -2.37464e+06)
(-2.16438e+07 6.50277e+06 -7.06088e-12 4.32596e+06 -2.6402e-12 -4.29692e+06)
(-9.68657e+07 35888.6 3.77647e-12 -653607 3.55889e-13 -2.41965e+07)
(-5.36574e+07 -942935 0 -106816 0 -1.334e+07)
(-9.21087 -5.26981 1.18005e-18 168.3 5.32178e-18 39.4733)
(4.73883e+07 -3.6329e+06 9.72241e-14 1.56697e+06 5.58996e-12 1.21468e+07)
(-2.20537e+06 8.83169e+06 2.45057e-12 3.77092e+06 -5.88982e-13 388445)
(7.39288e+07 -1.43885e+06 5.65057e-12 -53309.2 8.19079e-12 1.833e+07)
(-7.19165e+06 -2.74112e+06 1.78848e-11 77532.8 2.07068e-11 -1.76516e+06)
(4.23772e+07 -2.41467e+06 8.00145e-12 -249451 -9.25141e-12 1.04527e+07)
(249.949 -523.392 2.61959e-18 10696 1.74687e-16 2715.91)
(2.55892e+07 -1.64593e+06 -2.83683e-11 -519085 -1.00628e-11 6.22041e+06)
(-2.59547e+07 -1.6321e+06 5.14001e-12 470373 4.89908e-11 -6.32318e+06)
(-7.63797e+07 694112 1.71643e-12 252288 5.96087e-12 -1.88888e+07)
(-6.65778e+06 -2.50911e+06 -4.18659e-12 83566 6.65368e-12 -1.63119e+06)
(4.20915e+06 -5.47535e+06 1.57312e-13 7.68812e+06 -7.01993e-14 2.95195e+06)
(3.76943e+07 -2.81691e+06 8.44516e-12 -236872 -2.09124e-11 9.29396e+06)
(4.65469e+07 -2.07127e+06 8.31838e-12 -230908 2.61486e-11 1.14919e+07)
(3807.43 -67842.5 -2.67158e-14 1.63981e+06 6.01603e-14 407816)
(6.45572e+07 -1.16748e+06 -1.00692e-11 151346 1.16554e-11 1.60555e+07)
(-8.35574e+07 -34585.8 0 -667920 0 -2.0898e+07)
(1099.56 -7594.24 0 65083.4 0 16421.3)
(-64571.8 -2.22504e+06 -2.49119e-11 293542 4.5346e-11 56812.1)
(455480 -1.71453e+06 -1.3616e-11 -1738.97 9.89861e-12 112582)
(99583.9 -799593 2.15133e-13 5.30666e+06 -2.02813e-13 1.3414e+06)
(358225 -2.8466e+06 -5.6909e-12 2.42459e+06 2.67221e-12 690472)
(3.23744e+07 -6.1314e+06 1.14163e-13 4.74621e+06 4.51237e-13 9.21038e+06)
(130504 -341848 -4.2311e-16 328656 1.69232e-14 113927)
(-5.90959e+07 -846992 3.71762e-12 67109.1 -1.9378e-12 -1.46462e+07)
(9.71999e+07 -2.64633e+07 6.40793e-13 1.0495e+07 -5.21352e-13 2.67213e+07)
(-3.62535e+07 1.54358e+06 0 2.63528e+06 0 -8.34137e+06)
(1.02249e+07 -1.9332e+06 4.67145e-12 287354 2.42302e-11 2.60831e+06)
(-7.22729e+07 1.39294e+06 -7.58769e-12 533247 -5.63447e-12 -1.78001e+07)
(-2.47827e+07 -2.21122e+06 3.26178e-12 183375 -6.81846e-12 -6.10359e+06)
(-1.77665e+07 2.90995e+06 2.93254e-12 4.53605e+06 4.7571e-12 -3.28274e+06)
(-3.15355e+07 -78847.5 -2.02584e-11 -948150 -6.17603e-13 -8.05986e+06)
(3.14845e+07 -79370.2 -8.94781e-12 950450 -4.11982e-12 8.04777e+06)
(4.99997e+07 -1.99645e+06 4.70903e-12 -103178 -8.02413e-12 1.23803e+07)
(665.715 -3544.98 6.01373e-17 16421.1 4.70002e-18 4239.6)
(20428.4 -56286.2 2.30819e-17 71580.9 2.45606e-15 22829.4)
(-3.22929e+07 -2.79653e+06 9.1159e-12 -91065.8 -4.56303e-12 -8.03512e+06)
(3.90536e+07 -2.14591e+06 8.00223e-12 125317 1.2263e-12 9.72109e+06)
(-3.94412e+07 -2.62176e+06 -2.98845e-12 -78997.9 -2.15264e-11 -9.80575e+06)
(3.1138e+07 -1.37682e+06 -7.9176e-12 255188 -3.77768e-11 7.78929e+06)
(-3.11721e+07 -1.2795e+06 2.09607e-11 -173287 2.16621e-11 -7.77744e+06)
(2.98252e+07 -6.33186e+06 -9.54319e-13 4.7181e+06 3.67508e-13 8.5709e+06)
(242.85 -1129.3 -7.42581e-19 2340.57 -5.20308e-17 640.999)
(5.95514e+06 -2.30961e+06 -1.58364e-11 -147097 3.55508e-11 1.44109e+06)
(5.06707e+07 -1.90218e+06 -3.06668e-12 53429.7 2.15846e-11 1.25857e+07)
(2.19446e+07 -2.40045e+06 1.35784e-11 4.098e+06 -5.01292e-12 6.4617e+06)
(1.04655e+07 -1.82946e+06 2.73805e-11 135613 -2.25235e-12 2.63035e+06)
(1.99172e+07 -1.93768e+06 5.63962e-12 -248227 1.99274e-11 4.88028e+06)
(-1.26237e+06 -1.8062e+06 2.55568e-11 84413.7 -1.88521e-12 -292276)
(-20.696 -315.619 1.07646e-17 1599.46 1.1636e-17 391.723)
(4.95909e+07 -2.14934e+06 -2.17017e-11 -28804.2 -6.72878e-13 1.22974e+07)
(3.54951e+07 -2.15127e+06 -1.04284e-11 46725 -6.24108e-12 8.81866e+06)
(-9.24754e+07 -930275 3.63775e-12 -155285 1.92495e-12 -2.29836e+07)
(-3.15816e+07 -2.78575e+06 -5.50464e-12 65979.5 -5.91813e-13 -7.81965e+06)
(173498 -311940 3.15282e-15 116601 -1.91665e-14 71979.5)
(7.06838e+07 -3.14837e+07 1.6857e-12 1.81842e+07 -2.59041e-12 2.20499e+07)
(7.58842e+06 -3.02633e+06 6.67556e-12 -195.41 6.61217e-12 1.88279e+06)
(-3.88234e+07 -2.13262e+06 7.63829e-12 -124464 -4.85119e-12 -9.66377e+06)
(7.67802e+07 -293402 -3.78046e-12 -97690.8 -1.37891e-12 1.90265e+07)
(4.48196e+07 -1.31264e+06 -8.60427e-12 19135.5 -4.83733e-12 1.11254e+07)
(107304 -368449 -2.91314e-16 474260 -2.79053e-14 144298)
(-5413.14 -111470 3.53842e-15 1.26225e+06 6.23585e-15 311848)
(-4.88667e+07 -2.6845e+06 3.76835e-12 78315.7 8.59516e-12 -1.21054e+07)
(-4.2742e+07 -157261 -3.76969e-11 -903043 -5.58744e-12 -1.08292e+07)
(4.27467e+07 -154954 -2.07756e-11 897297 1.49544e-11 1.0829e+07)
(-6.79427e+07 5.14952e+06 -9.98303e-14 324127 -1.3217e-13 -1.67775e+07)
(2.03583e+07 898303 2.59132e-12 8.95169e+06 -4.39441e-12 7.27242e+06)
(2.27809e+07 -3.58937e+06 -4.6581e-12 2.31068e+06 -2.73457e-12 6.22572e+06)
(-4.96292e+07 -528692 -1.22667e-11 -40813.6 6.43437e-12 -1.23241e+07)
(4.96858e+07 -571915 0 21903.3 0 1.23335e+07)
(-4.83588e+06 -3.33257e+06 -2.09136e-11 227670 1.19328e-11 -1.14339e+06)
(-3.39175e+07 -2.90873e+06 -6.37796e-12 302582 -7.19574e-12 -8.34054e+06)
(-6.53309e+07 -1.31864e+06 -3.50309e-12 50514.6 -5.8726e-12 -1.61974e+07)
(4.88253e+07 -5.05235e+06 8.13899e-13 1.06147e+07 1.76569e-12 1.47483e+07)
(-3105.27 -72602.4 -1.30685e-14 1.30019e+06 -2.62771e-14 321834)
(6.71442e+07 -1.75797e+06 7.0744e-12 160124 -9.41553e-12 1.66996e+07)
(-2.28229e+07 9.95112e+06 -1.45979e-12 95821.5 -2.53894e-13 -5.63905e+06)
(9.80906e+07 -1.02339e+06 1.83132e-12 394195 2.32286e-13 2.44361e+07)
(3.90887e+06 -1.93828e+06 1.23541e-11 -140021 8.53043e-12 935128)
(-261.371 -66136.6 -3.80531e-15 609468 -3.8533e-15 151157)
(3.1024e+07 -1.74401e+06 2.94163e-11 43534.2 -6.07002e-12 7.70849e+06)
(-833903 -3.39213e+06 -1.13282e-11 51805.6 -7.79545e-12 -194054)
(2.20555e+07 -2.41765e+07 -2.39359e-12 2.8571e+07 2.26165e-12 1.25615e+07)
(2.77472e+06 -3.22189e+06 -4.80169e-14 4.15504e+06 6.42861e-14 1.71942e+06)
(1.6802e+07 -1.22951e+06 3.10902e-13 7.336e+06 3.22929e-12 5.98913e+06)
(-8.34813e+06 -1.47177e+06 -1.87765e-11 307579 1.49224e-12 -1.99502e+06)
(-6.32473e+07 -1.25449e+06 -3.07362e-12 93971.1 8.1192e-12 -1.56696e+07)
(4.53694e+07 -4.5693e+06 8.34207e-13 9.55081e+06 1.69576e-12 1.36268e+07)
(4.70955e+06 3.90977e+06 3.57998e-13 7.56105e+06 -5.68798e-13 3.04458e+06)
(4.88406e+07 -1.47764e+06 -1.60164e-11 -89142.1 1.05918e-11 1.20962e+07)
(-6.78163e+06 -2.94339e+06 2.49887e-12 64097.8 -6.42858e-12 -1.66676e+06)
(-7.97813e+07 984174 -5.01651e-12 384718 -2.31631e-12 -1.96999e+07)
(-2.8735e+07 -1.82135e+06 1.54013e-11 55866.7 -3.20046e-11 -7.11588e+06)
(-4.3943e+07 -1.35687e+06 -6.98114e-12 156331 -5.17289e-12 -1.08644e+07)
(-6.98482e+06 -2.83675e+06 3.54588e-12 596866 6.14923e-12 -1.58498e+06)
(2.18685e+07 -929689 -1.20309e-11 203835 -2.51875e-11 5.47658e+06)
(-2.85958e+06 1.00473e+07 -3.20628e-12 2.37122e+06 1.89561e-14 -121171)
(-2.10181e+06 -2.48962e+06 -1.37203e-11 -316943 1.42627e-11 -600141)
(-6.30003e+07 -1.52315e+06 -3.65908e-12 456659 -2.51712e-12 -1.55183e+07)
(-2.69754e+07 2.00892e+06 3.11758e-12 3.19155e+06 -1.41852e-12 -5.90125e+06)
(117009 -459745 2.04824e-15 759695 3.93343e-14 217528)
(9.3509e+07 -335866 0 85416.6 0 2.32227e+07)
(-2.69727e+07 1.03648e+06 1.24924e-14 -4.05593e+06 -3.4295e-13 -7.69883e+06)
(1.54616e+07 -3.48927e+06 -7.23435e-12 -202082 -2.8711e-12 3.78619e+06)
(-5.68772e+07 -1.40711e+06 -4.93792e-12 -354058 1.40865e-11 -1.42002e+07)
(-4.99587e+07 229912 -3.19799e-14 1.78713e+06 1.18128e-12 -1.19524e+07)
(-5.69674e+06 -2.3913e+06 1.13087e-11 -36831.6 1.23665e-11 -1.42261e+06)
(-8.35356e+07 -86563.9 -5.84626e-12 263210 -5.44985e-13 -2.06616e+07)
(-1.30085e+07 9.18812e+06 2.81475e-12 3.06611e+06 1.33193e-12 -2.4669e+06)
(-7.92827e+07 -1.31139e+06 -5.66985e-12 208957 -7.38183e-12 -1.96198e+07)
(849071 -1.54574e+06 8.27433e-14 3.04392e+06 -9.09115e-14 965930)
(-7.79516e+07 -1.70007e+06 5.52636e-12 127358 4.43522e-12 -1.93098e+07)
(7.7695e+07 -1.60268e+06 -5.03405e-12 -103299 -4.44866e-12 1.92521e+07)
(5206.09 -31626.2 -2.21663e-16 73528.1 1.13686e-16 19535.6)
(3.83921e+07 -1.95803e+06 -2.43813e-11 168114 -2.02335e-11 9.56756e+06)
(-3.85064e+07 -2.03434e+06 -1.88396e-11 -251358 -2.82557e-11 -9.61658e+06)
(656192 -1.97264e+06 1.88771e-13 6.07441e+06 -1.36867e-13 1.67e+06)
(2.64087e+07 -2.81817e+06 -1.09585e-13 2.38853e+06 -5.0354e-13 7.14517e+06)
(1.30341e+07 -3.09948e+06 -1.66833e-12 17113.2 -8.5542e-12 3.23827e+06)
(-3.29377e+07 9.72213e+06 3.1068e-13 472739 -5.83128e-13 -8.05523e+06)
(2.75927e+07 1.24667e+06 6.81241e-13 7.79303e+06 -2.14692e-12 8.77991e+06)
(4.67633e+07 -2.31522e+06 -1.02294e-12 299569 -1.69031e-11 1.16773e+07)
(4759.53 -65224 -2.54412e-15 480583 -5.28375e-15 120423)
(3.4537e+07 -1.61468e+06 -2.47341e-12 238147 1.3481e-11 8.62843e+06)
(11644.8 -34010.8 -1.95333e-15 1.54751e+06 1.53095e-15 386859)
(362.691 -2442.12 7.04613e-17 11537 2.42126e-16 2952.56)
(-6.63936e+07 1.79138e+06 6.47914e-12 1.2859e+06 3.04301e-12 -1.61545e+07)
(8.18261e+06 4.59785e+06 3.31216e-12 7.42705e+06 -1.17261e-12 3.87307e+06)
(2.8504e+07 -39262.9 2.44662e-11 238104 -2.30164e-12 7.1315e+06)
(-2.85407e+07 -38632.5 -4.69705e-12 -240176 -2.69233e-12 -7.14112e+06)
(-1.01807e+07 -2.90077e+06 -1.91881e-11 122327 4.04117e-12 -2.49568e+06)
(4.35522e+07 -488839 -1.22616e-11 -59334.7 -7.89987e-12 1.07915e+07)
(7.71439e+07 -560214 1.18083e-11 -15583.2 -3.47906e-12 1.91371e+07)
(-7.73912e+07 -631492 -7.13842e-12 45932.3 4.43902e-12 -1.91909e+07)
(7.88951e+07 -8.79536e+06 -2.042e-12 8.76982e+06 6.03828e-12 2.17514e+07)
(3.94396e+07 -2.22449e+06 -6.3032e-12 -98339.3 5.71663e-12 9.76136e+06)
(-2.21272e+07 3.44271e+06 -4.43034e-12 4.97755e+06 3.55807e-12 -4.25517e+06)
(5.83598e+07 -1.70648e+06 6.20317e-12 -40633.2 -4.81775e-13 1.44702e+07)
(-3.42796e+07 -2.88166e+06 -9.42728e-12 290646 -2.14618e-11 -8.43335e+06)
(382.107 -3234.25 4.62092e-17 8580.57 9.28045e-17 2223.82)
(3.43358e+07 -1.29243e+06 2.82952e-12 9.94517e+06 1.01455e-12 1.0987e+07)
(-8.18993e+07 -426167 1.46517e-12 12125.9 -3.67118e-12 -2.03179e+07)
(2.80876e+07 -1.49245e+06 7.89137e-12 -64477.5 4.40593e-11 6.95311e+06)
(-2.83267e+07 -1.43547e+06 -2.31132e-12 -161754 3.332e-11 -7.06857e+06)
(-2.41686e+07 -2.52619e+06 -2.68673e-11 -268610 8.44651e-12 -6.06337e+06)
(-6.88731e+06 -2.16786e+06 3.76889e-12 -38937.4 1.31624e-13 -1.71854e+06)
(8.13332e+06 -2.24695e+06 -9.84902e-12 -306180 -1.74066e-11 1.94207e+06)
(8.83589e+07 -11597.6 -2.59105e-11 734445 -1.30086e-12 2.21059e+07)
(-6.74821e+07 -85535.2 -1.07455e-11 117597 3.30103e-12 -1.67145e+07)
(345.266 -2871.32 4.94022e-17 10797.7 5.02785e-16 2764.79)
(3.52815e+06 -3.49211e+06 0 198881 0 924752)
(-9.23477e+06 -2.48506e+06 -2.29839e-11 -12945.8 -2.27577e-11 -2.29455e+06)
(-2.46333e+07 1.01094e+07 9.73264e-13 -702440 9.19762e-13 -6.28631e+06)
(-2.27261e+07 -1.43201e+06 3.54178e-11 -314417 -2.79464e-11 -5.71682e+06)
(57.7596 -406.734 -1.23929e-17 2800.23 4.97386e-17 709.126)
(1.0063e+08 -2.4972e+07 -1.5538e-12 1.06554e+07 2.03224e-12 2.76121e+07)
(3.33261e+07 -2.16528e+06 -5.46213e-13 110616 2.88175e-11 8.29633e+06)
(-3.33094e+07 -1.95795e+06 2.63193e-12 183867 5.54776e-12 -8.21911e+06)
(4.86346e+07 -2.53008e+06 3.83547e-12 1.63836e+06 2.7036e-12 1.24738e+07)
(-4.45782e+07 6.5277e+06 -2.54173e-12 1.87622e+06 -5.068e-13 -1.05952e+07)