/*--------------------------------*- C++ -*----------------------------------*\
| =========                 |                                                 |
| \\      /  F ield         | OpenFOAM: The Open Source CFD Toolbox           |
|  \\    /   O peration     | Version:  v3.0+                                 |
|   \\  /    A nd           | Web:      www.OpenFOAM.com                      |
|    \\/     M anipulation  |                                                 |
\*---------------------------------------------------------------------------*/
FoamFile
{
    version     2.0;
    format      ascii;
    class       volScalarField;
    location    "6000";
    object      sigmaEq;
}
// * * * * * * * * * * * * * * * * * * * * * * * * * * * * * * * * * * * * * //

dimensions      [1 -1 -2 0 0 0 0];

internalField   nonuniform List<scalar> 
24076
(
6.85397e+07
919072
13861.3
13736.6
1.65747e+07
1.05647e+06
945093
7.27659e+07
1797.63
6.19169e+07
4.18471e+07
6.01131e+07
3.53019e+07
1.3865e+07
7.39585e+07
6.41778e+06
3.94644e+07
4.01078e+07
5.42356e+06
9.32075e+06
7.2816e+07
3.77852e+07
1.33099e+06
4.24098e+07
1.27973e+07
4.27403e+06
7.35195e+06
1.05687e+06
7.14228e+06
1.50725e+07
1.23398e+07
267592
2.733e+07
2.43498e+07
3.1606e+07
5.31778e+07
3.38211e+07
4.03239e+07
4.06747e+07
7.41465e+07
2.51585e+07
8.31987e+06
2.75324e+07
2.11991e+07
4.97375e+07
7.16695e+07
1.31503e+06
1.83852e+07
7.82035e+06
5.30328e+07
36068.4
5.5976e+06
4977.59
1.15381e+06
1761.95
3.01103e+07
1.45408e+07
7.61198e+07
4.89965e+06
3.52697e+07
7.19205e+07
822320
8.57045e+07
4.94317e+07
2.89051e+07
7.21994e+07
2.35133e+07
2.4462e+07
737195
2.17918e+07
5.08185e+06
1.90437e+06
5.38521e+07
225658
2.37333e+07
1.36418e+07
3.96941e+07
5.19027e+07
4.83418e+07
8.69595e+07
1.25283e+06
1.73742e+07
2.14124e+07
1.03951e+07
1.64162e+07
4997.62
1.41382e+07
4.32464e+07
4.83336e+06
9.76215e+06
1.74908e+07
5.02967e+06
4.08268e+07
1.54962e+07
9.6663e+06
3.87152e+07
9.02194e+06
7.83394e+06
257531
2.46138e+07
2.0148e+07
3.09601e+07
1.02046e+07
4.96715e+07
1.3998e+07
2.72919e+07
75508.2
1.5926e+06
6.3192e+07
2.44417e+07
6.43871e+06
1.36467e+07
3597.45
875190
1.06361e+07
34344.4
3.61705e+07
2.06509e+07
7.88638e+06
2.72854e+07
6.6892e+06
4.50266e+07
2.71893e+07
7.19234e+07
4.70969e+07
4.13476e+07
6.30085e+07
3.82674e+07
1.41925e+07
169162
4.48624e+07
2.60314e+07
2.03605e+07
1.36998e+06
4.21093e+07
7.28592e+06
5.49758e+06
2.90154e+07
4.04897e+06
8.60625e+06
1.24755e+07
3656.19
6.52997e+06
6.66594e+06
2.10285e+07
1.22891e+07
1.83588e+07
2.60408e+07
4.57201e+06
81499.5
5.81658e+07
1156.23
4.1226e+07
2.49189e+07
4.78255e+07
9.07274e+06
7.09138e+07
1.30793e+07
7.10736e+06
21650.7
1.14105e+07
1651.87
7.67174e+07
8.1129e+07
5.31063e+06
3.02407e+07
3.02126e+07
3.20247e+07
3.92587e+07
2.12696e+07
3.07324e+07
1.44968e+06
7.74442e+06
2.16363e+07
4.75191e+07
4.74499e+07
4.53449e+07
4.48441e+07
6.84344e+07
6.45145e+07
8.30663e+07
547978
3.4491e+07
1.3034e+07
1.40447e+07
1.10368e+07
3.95166e+07
3.23323e+07
5.47702e+07
2.8259e+07
296435
4.23978e+07
1.81824e+07
3.84683e+07
2.46988e+07
6.99184e+07
1.10335e+06
4.09557e+07
4.1213e+07
6.96828e+07
3.39579e+07
2.93108e+07
2.47087e+07
2.47486e+07
5.21703e+06
2.00685e+07
6.57241e+07
3.76923e+07
6.29256e+07
1.26187e+07
1.84053e+06
6.59643e+06
3.1124e+06
5.69047e+07
1816.79
7.14149e+06
7.11611e+06
7.30643e+07
4.5475e+06
4.56497e+06
6.96862e+06
8.0222e+07
8.43856e+07
3.37583e+07
6.98695e+07
41451
22811.9
4.39328e+07
40334.4
1.05535e+07
21076.2
4.10512e+07
41842.2
680813
1.20318e+07
1.75296e+07
2.68578e+07
2.54026e+07
2.79513e+07
6.60625e+07
6.58316e+07
1.73629e+07
2.8761e+07
2.84252e+07
5.37039e+07
5.34909e+07
3.7044e+07
7.38598e+07
7.35459e+07
3.84542e+07
2.96706e+07
1.1092e+07
1.09236e+07
7.14501e+07
5.27739e+07
5.2881e+07
610633
233515
2.99103e+06
9.05736e+06
2.55286e+07
8.68673e+07
4.83405e+07
159.128
4.20278e+07
1.61536e+07
6.67643e+07
8.08597e+06
3.86376e+07
9500.68
2.36481e+07
2.39355e+07
6.90903e+07
7.46413e+06
1.03921e+07
3.45239e+07
4.23095e+07
1.48074e+06
5.81448e+07
7.48536e+07
59341
3.86678e+06
2.99811e+06
4.90994e+06
5.2918e+06
2.77973e+07
627219
5.33705e+07
9.20601e+07
3.48297e+07
9.60672e+06
6.56345e+07
2.28153e+07
2.02376e+07
2.77246e+07
2.76769e+07
4.5306e+07
15569.2
109562
2.9457e+07
3.53236e+07
3.58015e+07
2.79915e+07
2.80703e+07
2.58603e+07
2747.67
6.78757e+06
4.57785e+07
1.72971e+07
9.85903e+06
1.84606e+07
3.35193e+06
1557.45
4.49031e+07
3.21942e+07
8.3302e+07
2.89391e+07
547436
7.44437e+07
8.62088e+06
3.51154e+07
6.93251e+07
4.04727e+07
727814
1.15876e+06
4.43773e+07
3.78656e+07
3.78741e+07
6.21684e+07
1.24301e+07
1.98208e+07
4.47394e+07
4.48064e+07
7.34132e+06
3.12303e+07
5.90053e+07
3.736e+07
1.18173e+06
6.05129e+07
2.69034e+07
8.8187e+07
4.94643e+06
561690
2.81106e+07
5.92847e+06
4.41356e+07
5.96803e+06
1.04261e+07
8.17257e+06
5.71563e+07
3.48744e+07
7.84281e+06
4.41919e+07
8.00009e+06
7.22688e+07
2.615e+07
3.98212e+07
8.35714e+06
1.96346e+07
1.79828e+07
4.62115e+06
5.72295e+07
2.70283e+07
996315
8.42737e+07
2.14053e+07
1.53398e+07
5.10871e+07
4.64285e+07
6.57773e+06
7.55423e+07
2.12915e+07
7.1701e+07
3.42672e+06
7.04639e+07
7.02075e+07
83035.3
3.46646e+07
3.47175e+07
6.04696e+06
2.25646e+07
1.29116e+07
3.44619e+07
1.94454e+07
4.21398e+07
444424
3.10943e+07
1.38812e+06
10978.4
6.09422e+07
8.90548e+06
2.55272e+07
2.55587e+07
1.05487e+07
3.93345e+07
6.95955e+07
6.98435e+07
6.63914e+07
3.58535e+07
2.46011e+07
5.27491e+07
3.15362e+07
9321.41
2.39915e+07
7.38788e+07
2.55129e+07
2.55464e+07
2.20327e+07
7.23309e+06
8.51187e+06
7.91335e+07
6.09526e+07
10702.8
6.766e+06
9.36663e+06
2.78718e+07
2.04094e+07
2579.8
9.3424e+07
3.02067e+07
3.03721e+07
4.2849e+07
4.31512e+07
2.17244e+07
6.78294e+06
3.37392e+07
2.3539e+07
4.22002e+07
1.94352e+07
5.58985e+06
5.83179e+07
2.66781e+07
1.23842e+07
9.15612e+06
2.11702e+07
2.19576e+07
1.07628e+06
8.15334e+06
2.41183e+07
3.15392e+07
317323
3.35567e+06
5.48673e+07
3.55534e+07
4.32068e+06
8.25077e+07
1.01094e+06
5.8143e+07
2.8405e+07
1.87595e+07
1.05559e+07
2.86259e+07
1.19194e+07
4.83971e+07
4.03435e+07
139260
8.01639e+06
731080
867597
1.07653e+07
1.30185e+07
6.54817e+07
4.60773e+07
74459.4
3059.86
4.05992e+07
4.12533e+07
4.20868e+07
783332
4.6737e+07
3161.68
4.88676e+06
4.00789e+07
5.8235e+07
3.02887e+07
2.97314e+07
6.29025e+07
3.1469e+07
46228.7
3.40683e+07
3.27583e+07
3.25809e+07
3.35585e+07
8.30648e+07
3.37343e+07
2.82794e+07
2.66217e+07
8.19208e+07
2.51563e+07
3.68286e+07
4.06822e+07
4.0692e+07
2.82366e+06
7.94306e+07
4.42148e+07
1.75327e+07
336812
3.14526e+07
117608
3.01109e+07
2.93744e+07
7.1654e+07
9519.38
4.60246e+06
2.36871e+06
1.80687e+07
2.04864e+07
4.90111e+07
9.01025e+07
5.27296e+07
6.08727e+07
8.26334e+06
1.97112e+07
4.98401e+07
658.21
6.32051e+07
1.66713e+07
2.79301e+06
5.42185e+07
1.97146e+07
1.09069e+07
6.00352e+06
5.57304e+07
224718
2.04386e+07
218842
7.08467e+06
1.66127e+07
1.66603e+07
3.34671e+07
828755
7.93485e+07
765051
4.94882e+07
2.91381e+06
2.92303e+06
4726.48
1.83592e+06
8.46833e+07
3.17418e+07
6.49103e+07
7.28344e+06
1.06616e+07
1.46374e+07
15235.8
5.88354e+06
1.9947e+07
1.99764e+07
15677.1
57259.7
3.14919e+07
1.25417e+07
1.27133e+07
5.23319e+07
9.8085e+06
42785.1
1.03277e+07
4.86236e+07
3.49907e+06
4.76493e+07
4.74913e+07
7.01748e+07
7.04348e+07
8.09956e+07
825.823
445306
3.95028e+06
1.60502e+07
113124
7.71239e+07
2.39136e+07
12290.8
4.42682e+07
1.94648e+07
1.95025e+07
2.47917e+07
2.58443e+07
4.4904e+07
1.23825e+07
4.92906e+06
51060.6
6.95272e+07
31754.1
1.95332e+06
3.09869e+07
2.09871e+07
2.01508e+07
8.93087e+07
1.80694e+07
1.79818e+07
1.07199e+07
8.62772e+06
2.4503e+07
1.46982e+07
3.25697e+07
2.14008e+06
2.78817e+07
73589.6
7.16732e+07
5.59688e+07
4.70568e+07
8.93536e+06
2.12053e+07
3.07029e+07
1.59228e+07
2.26541e+07
5.96828e+07
4.89498e+07
7.31393e+07
3.28716e+07
8.53109e+06
2.58517e+07
1.17579e+07
2.20065e+07
4.82696e+07
7.81517e+07
3.80811e+07
1.53768e+07
1.53559e+07
1.19891e+06
7.42813e+06
3.25666e+07
27106.6
5.62212e+07
5.00691e+07
1.70498e+07
1.69939e+07
4.70521e+07
13365.9
8.11441e+06
5.99177e+07
1.4946e+07
3.25215e+07
3.22135e+07
718447
28375.2
5.47084e+06
2.67424e+07
5.6145e+06
1.91748e+07
32445.8
13577.2
5.47001e+07
1.91421e+07
3.23393e+07
4.19805e+07
3.86659e+07
2.748e+07
125454
2.58999e+07
5.59965e+07
6.09429e+07
6.81753e+07
1.63751e+07
9.05963e+06
1.90452e+07
1.74272e+07
1.9945e+07
7.18688e+07
6.0965e+07
6.34422e+07
6.25928e+07
191.223
726327
1.28297e+07
8.10704e+07
1.84253e+06
2.97385e+07
2.07062e+07
3.75819e+06
50915.1
2.89371e+07
1.58815e+07
1.64236e+07
3.97764e+07
2.17363e+07
2.17133e+07
1.53329e+07
5.50844e+07
5.5089e+07
6.009e+07
6.59923e+07
490761
5.04019e+07
7.97626e+07
1.03912e+07
604950
2.72628e+07
2.72571e+07
3.54512e+07
3.76892e+07
3.28784e+06
5.04144e+07
2.65973e+07
1.11534e+06
5.13143e+07
9.10167e+07
4.81074e+06
2.91493e+07
4.88437e+07
4.86675e+07
2.25289e+06
7.87722e+07
3196.9
6.86786e+07
25905.5
2.7547e+07
2.03264e+07
1.23474e+07
7.9679e+07
43606.5
3.12499e+07
2.73999e+07
2.79956e+07
1.23921e+06
1.677e+07
1.65382e+07
8.43617e+07
6.35605e+07
2.92954e+07
1.9453e+07
7.84014e+07
7.46532e+07
1.4581e+06
4.82192e+06
6.25211e+06
135701
3.83196e+06
6.13403e+07
2.22163e+07
2.23821e+07
2.45253e+07
1858.86
1.05873e+07
2.02645e+07
3.86379e+07
2.88261e+07
2.95911e+07
3.21606e+07
7.6138e+07
7.65053e+07
5.36879e+07
7.36893e+06
937550
5.49299e+07
2.68805e+07
7.49269e+07
8.11448e+07
4.26595e+07
1.23319e+07
3.01122e+07
2.94884e+07
2.50669e+07
3.16921e+07
4.82248e+07
6.0613e+06
2.6542e+07
5.48176e+06
1.29324e+07
6.66433e+07
5.89473e+06
4.37558e+06
2538.18
3.50883e+07
35607.3
4.88269e+07
4.62285e+07
2.86821e+07
3.04036e+06
6.40728e+06
2.08219e+07
2.08726e+07
9.19762e+07
1.87968e+07
79.9661
556830
5.26838e+07
5.27697e+07
1.99373e+07
143856
3.13474e+07
4.44369e+07
8.30981e+07
3.7965e+07
3.14636e+07
3.30754e+07
2.34702e+07
1.53214e+07
1.153e+07
6.449e+07
1.50935e+07
3.87433e+07
3.26e+07
4809.44
3.20156e+07
7.29064e+07
5.80417e+07
1.96555e+07
1.5294e+06
5.49556e+07
5.7685e+06
7.54831e+06
1.7219e+07
5.95886e+06
634071
169055
2.80216e+07
3.46122e+07
5.36369e+07
9.2689e+06
4.85075e+06
4.59361e+06
1.12487e+07
4.04334e+07
525332
7.04672e+07
8.44143e+07
3.50672e+07
3768.4
1.01882e+07
1.25876e+07
7.78958e+06
1.4346e+07
1.34445e+07
7.25192e+06
6.99644e+07
3.72543e+07
128859
3.97749e+07
139295
3.61783e+07
3.28201e+07
2.19194e+07
1.16274e+07
86289
92.2726
9.15756e+06
1.70465e+06
3.34365e+07
3.85927e+07
4.84693e+07
5.50837e+07
8.90634e+06
8.99481e+06
5.27782e+07
989233
5.14936e+07
6.97432e+07
1.89016e+06
3.38104e+07
7.02212e+07
2.57815e+07
2.83685e+07
4.07159e+06
144380
8.46678e+07
3.12909e+07
1.21041e+07
3.05476e+07
6.17628e+07
1.3124e+07
6.19015e+07
3832.65
8.07442e+07
1.83829e+07
9.21854e+06
6.02893e+07
1.0657e+07
9.47944e+06
5.43867e+06
1275.34
759741
1.68749e+07
7.95364e+06
1.71512e+07
1.91219e+07
7.89074e+07
2534.96
3.03029e+07
987647
3.75929e+07
6.14708e+06
4.84303e+07
4.12815e+07
4.12776e+07
2.70856e+07
2.7126e+07
3175.84
1.09781e+07
14052.9
1.39764e+07
1.78905e+07
8.14329e+07
3.14819e+07
1.41646e+06
8.17184e+07
3.5673e+07
5.22301e+07
4.58315e+07
2.24901e+07
2.25115e+07
1.76212e+07
8000.93
12815.6
1.23234e+07
8.31923e+07
4.9276e+07
4.92608e+07
1.43913e+07
7.12041e+06
2.67648e+07
5.279e+07
5.30986e+07
3.82359e+07
6.75736e+06
2.38889e+07
3.21229e+07
3.21372e+07
1.33996e+07
628.596
3.22952e+07
3.56306e+07
139935
5.44173e+06
6.85505e+07
1.89095e+07
1.87466e+07
2.7032e+07
2.67802e+07
841.839
2.96942e+07
5.12725e+07
5.02795e+07
2.81237e+07
6.41809e+06
26460.6
6.821e+07
8.28458e+07
9.4204e+06
113224
2.99269e+07
4.24883e+07
4.45401e+06
1.66453e+07
3.71302e+07
5.37341e+06
562792
1.62968e+07
6.44965e+07
6.98871e+07
21779.9
3.89704e+07
1.32194e+06
6.50644e+07
3.8967e+07
9.74609e+06
4703.88
7.69384e+07
2.16026e+07
2.16696e+07
230490
5.9711e+07
2.62325e+07
5.45237e+06
1.43326e+07
2.21631e+06
1.72962e+07
937560
16494.1
2.13182e+07
5.36766e+07
2.12367e+07
2.18092e+07
5.95176e+07
5.43914e+07
2.58044e+07
5.72873e+07
8305.15
1.23541e+07
1.91187e+07
7.68997e+07
2.1387e+07
2.60116e+07
1.21386e+07
82233.8
4.19961e+07
6.34727e+07
3.66656e+07
8.85411e+06
6.05976e+07
5.74911e+07
4.7805e+07
6.56358e+07
3.13936e+06
4.00816e+07
3.06843e+07
91220.1
8.39166e+06
1.33796e+07
3.89204e+07
5.0037e+07
3.17236e+06
7975.71
1.24494e+07
3.18526e+07
4.23339e+07
2.96405e+06
7.92224e+07
1.85134e+07
3.0448e+07
1.15329e+07
1.79719e+07
2.97055e+07
771823
1.06216e+07
4.63311e+07
6.64419e+07
1896.76
7.1586e+07
5.87546e+07
2.62648e+07
743813
5.41728e+07
5.22143e+07
4.47811e+07
4.46919e+07
2.92385e+07
1.68265e+07
8.35948e+06
6.98057e+06
7.24661e+07
4.76392e+07
2.63291e+07
2.63355e+07
948848
2.60241e+07
8.61691e+06
114119
5.7357e+07
63749.7
5.44362e+06
18427.5
2.78831e+07
4.61312e+06
5.74493e+07
5.41222e+06
3.67219e+07
3.85376e+07
1.67595e+07
691501
26643.4
7.04091e+07
7.13714e+06
4.91394e+06
1.69547e+07
1.30634e+07
5.78815e+07
5.5146e+07
6.18254e+07
689200
6.94465e+06
1.44936e+07
1.71019e+07
6.41946e+06
1.91525e+07
1.3858e+07
1.90665e+07
4.37216e+06
9010.4
5.32264e+07
2.37437e+07
2.42058e+07
2.37605e+07
5.01199e+06
3.79636e+07
1.08014e+07
4.64637e+07
7.99045e+07
1.23749e+07
5669.64
7.92723e+06
4.22475e+06
5.77304e+07
6.6051e+07
2.58798e+07
4.83047e+07
3.97373e+07
3.62999e+07
72601.9
2.5e+07
1.32381e+07
613538
300886
5.35967e+06
6.12079e+07
117133
1.06428e+07
6.04409e+07
4.4121e+07
8.30078e+06
2733.65
2.37634e+07
2.88414e+07
4.19939e+07
3.25195e+07
28269.3
3.9566e+07
1.70158e+07
2.38565e+07
1.07125e+07
4.29456e+07
5.37886e+07
4.22215e+07
5.78957e+07
2.31388e+07
73454.3
9.66858e+06
2009.81
1.61395e+07
1.97924e+07
5.14478e+06
5.93598e+07
7.83144e+07
3.59386e+07
7.49573e+07
1.06622e+06
1.21278e+07
760556
4.68822e+07
6.05692e+07
3.06282e+07
1.51137e+07
1.52624e+07
4.88134e+07
9324.67
1.64265e+07
341619
2.26077e+07
2.03707e+07
8.43855e+06
4.02572e+06
1.21747e+07
7.09082e+06
2.93582e+07
2.70841e+07
5.02433e+07
5.02362e+07
2.59699e+07
2.58042e+07
1.29311e+07
2.27333e+07
24833.3
4.55182e+07
2.64742e+07
308551
83316.5
5.25525e+07
2.56941e+07
6499.04
1.60783e+07
1.63466e+07
3.09858e+07
8.00129e+07
1.92587e+07
2.59923e+07
4.38928e+07
3.21556e+07
4.62747e+07
3.98654e+07
17622
75193.6
2.8226e+07
1.19515e+07
6.59946e+07
6.94655e+07
82869.8
2.90763e+07
3.21964e+07
3.21531e+07
2.89767e+07
3.64729e+07
4.12779e+06
57875
1.2019e+07
5.02687e+07
694468
971475
3.3544e+07
7.20643e+06
4.61185e+07
4.61355e+07
48188
505214
5.14806e+06
5.72275e+07
1.63145e+07
3.47773e+07
6.71132e+07
4.56343e+07
1.36593e+06
4.52351e+07
9.57547e+06
983767
113366
230364
2819.61
6.98695e+06
1.11531e+07
776406
1.87581e+06
4.15456e+07
1.28349e+07
1.35721e+07
2.53027e+07
6.42416e+06
4.10715e+07
6.34249e+06
6.96683e+07
6.99486e+07
4.82961e+07
6.46541e+06
2.73801e+07
3.47694e+07
6.35671e+07
3.83114e+06
3.67323e+06
4.69251e+06
6.0874e+07
2.39018e+07
4.58746e+07
1.32207e+07
1.27763e+07
3.68875e+07
5.7114e+07
3.49154e+07
5.55485e+07
1.87378e+07
1.86897e+07
3.9419e+07
7.08184e+06
2.96619e+07
1.06177e+07
2.59868e+07
853.133
8.16576e+06
6.29254e+07
16341.2
2.514e+07
5.17555e+06
4.59245e+07
1.10309e+07
1.17384e+07
4.22015e+07
13923.7
4.4843e+07
6.30225e+07
4.27892e+07
1.18573e+07
62959.6
2.52063e+07
5.31229e+06
8.29524e+07
5.66556e+06
6.05911e+07
2.64691e+07
1.13231e+07
203653
2.04804e+06
2.04781e+06
4.80755e+07
1.08246e+07
1.8858e+07
4.80535e+07
5.00094e+07
5.10145e+07
4.77979e+07
4.41986e+07
22055.7
6.0379e+07
5.41916e+06
1.40294e+07
5.1617e+06
6.02502e+06
5.90891e+06
3635.65
8.09785e+06
2.31529e+06
2.72199e+06
3.0268e+07
6.94822e+07
34421.2
1766.02
3.55153e+06
630002
4.59715e+07
3.39847e+07
5.97119e+06
7.35379e+07
5.13792e+06
4.77691e+07
1.06645e+07
4.26473e+07
1.48763e+07
2.32723e+07
2.03669e+07
2.72024e+07
6.77006e+07
3.11246e+07
7.59994e+07
2.37082e+07
6.65364e+07
5.87925e+07
533871
5.83148e+07
1.39216e+07
2.39109e+07
1.18172e+07
2.54787e+07
5.75857e+06
4.55404e+07
3.54121e+07
120275
5.54609e+07
3.98194e+07
6.73304e+07
1281.23
3.2372e+07
1.45548e+07
8.01101e+07
1.47954e+07
7.96688e+07
6.74477e+07
8.48237e+06
1.90695e+07
5.15109e+07
358431
2.08326e+07
3.2184e+06
776262
5.70313e+07
1.4882e+07
5.07375e+06
4.81207e+07
3.92212e+07
3.88598e+07
1.55203e+07
1.16674e+07
4.05383e+07
6.1487e+07
7.91463e+07
7.27903e+07
4.24216e+07
7.87257e+07
281320
5.1799e+07
6.87169e+07
1.17993e+07
4.17468e+06
7.3676e+07
1.3449e+07
3.73653e+07
8.61157e+07
8.65637e+06
1.45289e+07
8.47633e+07
1.83569e+07
1.96494e+07
8.54263e+06
5.41672e+07
1.03157e+07
1.9202e+07
5.15981e+07
469708
1.23596e+07
1.58709e+07
1.59641e+07
1.76449e+07
3.97924e+07
4.46286e+07
5.26107e+06
1.37184e+07
6.34416e+07
4.54117e+07
703071
768752
4.39018e+06
1.49435e+06
7.31483e+07
5.9086e+07
5.57459e+07
1.00168e+07
5.9913e+07
2.56886e+07
3.02041e+07
576015
4.73178e+07
3.53567e+07
2.1828e+07
7.20637e+07
1.62826e+07
7.23276e+07
2.06571e+07
5.63896e+06
6.66361e+07
3.07744e+07
1.97026e+07
2.92609e+07
2.74905e+07
4.14246e+07
1.92605e+07
25677.1
3.32299e+07
4.99314e+07
4.66377e+07
591.012
4.67777e+06
4264.29
2.4382e+07
2.90764e+07
231235
2.93059e+06
365607
1.89242e+06
5.63111e+07
5.64274e+07
4.96997e+07
6573.53
1.82346e+06
7.21813e+06
1.12588e+07
4.30138e+07
213611
1.04982e+07
613647
3.31818e+07
6.2721e+06
856.215
1.721e+06
1.21646e+07
8.03679e+07
5.13867e+07
5.14815e+07
2.67258e+07
4.34677e+07
4.04083e+07
3.89429e+07
7.84438e+07
7.6639e+07
2.00276e+07
9.70208e+06
2.06273e+07
6.6441e+07
3.70377e+07
2.70805e+07
1.54101e+06
8.23904e+07
1.4142e+07
3.40582e+07
2.84275e+07
1.18558e+07
6.55716e+06
1.10601e+07
3.91393e+07
5.13057e+07
6.55063e+07
2.32563e+07
4.15939e+06
8.52105e+07
7.58291e+06
1.99116e+07
9.5169e+06
4471.01
2.90122e+06
368.178
8.75438e+06
1.06855e+07
2.05872e+07
4.08763e+07
3.1272e+06
198810
6.61154e+07
1.82998e+07
2.90243e+06
1.09159e+06
8.0415e+07
8.35994e+07
3.45438e+07
2.01062e+07
28280.1
1.03699e+07
2.16642e+06
8.12161e+07
4.22864e+07
3.62701e+07
4.91714e+07
1.11596e+06
3.87059e+07
3.86727e+07
4.43281e+07
1.8395e+07
218231
2.24146e+07
676434
4.58636e+07
7.87106e+07
537707
5.68504e+07
4.5918e+07
5.89212e+07
3.64072e+07
4.6119e+07
3.88038e+07
2.23621e+07
3.96186e+07
4.97629e+07
4.97448e+07
2882.53
1.53704e+06
1.52022e+06
2.84971e+07
7.00065e+07
3.70519e+06
2.68028e+07
75259.3
5.24497e+07
1.22495e+06
489823
759.276
33658.9
1.77817e+06
4.80411e+07
6.0022e+07
2.66559e+07
3.78128e+07
5.58268e+07
2.12276e+07
8.67487e+06
4.92152e+07
4.28901e+07
6556.35
8.55569e+06
8.39906e+06
1.20799e+07
4.60872e+07
30137.8
3.47219e+06
6.68667e+07
17787.5
2.0846e+07
5.6175e+07
895344
1.02381e+07
2.98618e+07
1.9174e+06
1.3623e+07
77905.2
1.54174e+06
719143
3.77642e+07
1.65577e+07
687786
2.32447e+07
5.25802e+07
1.90988e+07
5.50644e+07
4.78939e+06
4.8528e+07
1.93529e+07
4.83908e+06
3.13541e+07
1.55714e+07
5.21411e+07
4.8638e+07
182778
7.4209e+06
1.19061e+07
1.19439e+07
4.43621e+07
4.86642e+07
1.55881e+07
6.98838e+07
3.38543e+07
514806
1.51039e+07
1.52942e+07
3.32888e+07
9.10635e+06
1.05006e+07
1660.29
1.05231e+07
4.43187e+07
4.42289e+07
2.78601e+07
7.96522e+07
5509.09
5.65084e+07
1.98031e+06
6.41846e+07
8.23097e+07
3972.23
92053.4
1.16403e+07
5.95127e+07
7.77646e+06
1.94626e+07
86174.7
4.62915e+07
8.7235e+07
3.90296e+07
12714
3.47334e+07
6.10147e+06
3.78458e+06
4.93856e+07
7.81753e+06
16605.5
1.37634e+07
2.80674e+07
7.31549e+06
8.44249e+06
4.28446e+07
6.84823e+07
3.4262e+07
2.92067e+07
5.57882e+07
5.07633e+07
2.09292e+07
3.43545e+07
8.58096e+06
3001.85
3.89009e+07
135303
3.6836e+07
3.70224e+07
3.17564e+07
5.24481e+06
6.96607e+07
4.08418e+07
4.09675e+07
4.14833e+07
6.4895e+06
57374.4
9.01417e+06
1.23855e+07
106263
2.73079e+07
4.47145e+06
73964.7
5.09911e+07
8.58908e+06
5.65612e+06
5.28635e+07
6.0692e+07
586580
8349.73
3.02397e+07
5.63641e+06
204302
1.18479e+07
15645
7.44938e+07
2.07391e+07
2224.49
8.90637e+06
8.99279e+06
2.78945e+07
6.76804e+07
3.67342e+07
5244.25
50675.9
7.13574e+07
8.40847e+07
4.64963e+07
1.81213e+06
3.33587e+07
8.12176e+07
4.93609e+07
8.7355e+07
9.22884e+06
4.87792e+07
2.0042e+07
39114.3
2.76399e+07
5.6679e+07
5.32242e+07
5.49455e+07
715449
9.75736e+06
5.04433e+07
1.08928e+06
2.11866e+07
6.19094e+06
4.34146e+06
5.73434e+07
4.61324e+07
5.46429e+06
2.77086e+07
6.32776e+07
3.51256e+07
5.99774e+07
2.23493e+07
3.78827e+06
2.23065e+07
8698.17
4.28886e+07
397.206
2.78578e+07
5.44118e+07
4.15726e+07
1.12926e+07
7.36747e+07
2.06795e+07
2.48327e+07
1.88391e+07
4.69112e+07
8.22402e+07
1.69322e+07
8.88863e+07
4.16821e+07
4.111e+07
2980.17
148617
8.43796e+07
47049.9
5.39191e+07
4034.19
4.26256e+06
4.8109e+07
37849.7
3.97583e+07
5.66912e+06
4.98922e+07
8.469e+07
8.03681e+06
5.33972e+06
6144.42
6.0089e+06
1.08701e+07
3.76226e+07
3.7522e+07
12392.8
899735
34698.6
5.868e+07
5.86797e+07
103898
6.69515e+06
5.17073e+07
6.86028e+07
2.69745e+07
663131
2.70811e+07
3.29584e+07
86197.2
5.2213e+07
7.20823e+07
4.34149e+06
3.15902e+07
547407
3.04269e+07
5.38194e+07
2.6312e+07
7.12391e+07
9.10318e+06
1.61145e+07
7.0356e+07
6.90366e+07
6.56552e+07
1.41376e+07
3.74543e+07
5.68111e+07
1.00557e+06
1.65194e+07
5.26677e+07
1.46019e+07
4.03775e+07
3.10317e+06
2.20206e+07
1.60265e+06
1.20565e+06
8.72524e+07
2.72999e+07
19310.2
8.87117e+07
47074.1
7.16501e+06
7.3909e+06
7.80193e+07
4.83117e+07
1.8956e+07
2.01045e+07
1089.81
3.84595e+07
1.69149e+07
5.68656e+07
1.7076e+07
4.16267e+07
21958.8
2.22328e+07
6.86583e+07
7.83839e+07
8.11232e+07
467242
3.78789e+07
3.02074e+07
3.51893e+06
8.04767e+06
1988.59
2.01949e+07
3.99754e+07
1.09808e+07
2.77463e+07
2.43726e+07
3.15356e+07
3.69612e+07
71661.4
4196.15
2.76407e+07
2.6074e+07
8.43308e+06
221469
144706
5.06639e+06
6.72675e+07
4.85372e+07
8.93486e+07
6.63713e+07
6.65303e+07
2.74913e+07
768140
1.97865e+07
61758
5.32492e+07
2.85135e+07
3.74588e+07
3.91501e+07
4.22519e+07
3.10361e+07
2.72513e+06
8.0582e+07
4.07019e+06
4.29812e+07
5.47531e+07
4.82899e+07
5.5256e+06
2.70831e+07
2.70366e+07
1.20942e+07
5.0561e+07
45452.3
1.89408e+06
1.20129e+06
6.65603e+07
2.17978e+07
5.85213e+07
6.82548e+07
1.65399e+07
1.63536e+07
8.1997e+07
5.11884e+07
1.75931e+07
2.90277e+07
2.84649e+07
5.5567e+07
3.02078e+07
3.76657e+07
1.64426e+07
7.77763e+07
761.989
5.64005e+07
7.14935e+07
2.67568e+07
99964.9
208897
34876.1
9.30304e+06
8.08767e+07
3.37778e+07
7.1549e+07
2.35709e+07
5.36704e+07
8.87047e+06
8.96897e+06
5.49054e+06
8.63548e+06
4498.11
2.36007e+07
1.30534e+07
166628
3.28564e+06
3018.29
2.02928e+07
1.2623e+07
4.36235e+07
5988.87
5.85633e+07
5.85381e+07
6.59565e+06
5.89459e+07
2.83131e+07
5.61744e+07
5.68571e+07
4.01745e+07
3.98633e+07
315824
162215
5708.31
5.00061e+06
233464
1.57002e+07
4.51314e+07
7.35111e+07
2.9253e+06
1.71906e+07
510049
6.51092e+07
1.60927e+07
8.30433e+07
4.25024e+07
7.82811e+07
2.32713e+07
1.15589e+07
7.11359e+07
782570
4.46039e+07
9.12122e+06
7.13233e+07
1.94258e+07
7.9498e+06
4.12757e+06
5.92218e+07
2.74004e+07
4719.48
7.36995e+07
2.61443e+07
2.8716e+07
5.93784e+07
2.04125e+07
5.23129e+07
230454
9.21016e+06
2.22911e+07
2.20402e+06
4.11656e+07
1.03327e+07
5151.39
6.99739e+07
4.14128e+07
429982
835295
4.98652e+07
3.74259e+07
1.36878e+07
1.0856e+07
5.39025e+06
8.79826e+07
9.55216e+06
2.96408e+07
4.47807e+07
3.58901e+07
2.15097e+07
3523.41
6.79823e+07
4.0396e+06
1.42372e+07
4.04381e+07
4.96025e+07
8.51798e+06
8.57691e+07
530438
2.99472e+07
3.64547e+07
580512
2.63706e+07
8055.91
2.39615e+07
6.98487e+07
924847
1.94304e+07
7.77895e+06
1.70015e+07
1.6996e+07
5.47323e+06
15621.3
4.91259e+06
3.51255e+06
5.55486e+07
1.04144e+07
1.08169e+07
5.36905e+07
1.01566e+06
5.08319e+07
6.89009e+06
2.87484e+06
112970
7.51112e+07
4.50534e+07
7.14444e+07
1.9528e+07
3.88252e+06
1.40943e+07
1.16956e+07
1.76739e+07
2.38713e+07
1.75231e+07
728651
2.80123e+07
2.79999e+07
1.53198e+07
1.48522e+07
8.32192e+07
3.55996e+07
1.52426e+07
9.77829e+06
5.82592e+07
3.17405e+07
3.17927e+07
2.544e+07
5.61256e+07
1.3005e+07
1.70925e+07
888720
110220
4.42392e+06
1.20704e+06
2.77052e+07
4.59609e+07
4.13857e+06
2.27159e+07
7.98129e+07
4.40251e+06
4.48916e+07
902656
1.63993e+07
2.85042e+07
5.29197e+07
4.84943e+07
4.80231e+07
510151
3.42726e+07
1.72876e+07
2.76932e+07
6.82711e+06
8.85396e+06
9.8053e+06
6.60432e+07
136688
7.7785e+07
562202
1.30773e+07
2.2223e+07
5.61308e+07
1.37868e+07
1.15998e+07
6.49275e+07
2.03971e+07
4.33315e+06
4.77576e+07
2.53161e+07
2.52625e+07
2.09341e+06
6.5082e+06
212978
4.70737e+07
1.68784e+06
2.73479e+07
2.73458e+07
5.08873e+06
2.21377e+07
6.2979e+07
4.90831e+07
3271.07
7.83638e+07
2.15943e+07
2.2072e+07
8.18302e+06
2.41812e+07
6.05793e+07
2.58644e+07
2.58421e+07
3.40827e+07
85844.2
1.11788e+07
5.73652e+06
493011
3.52791e+06
5.85234e+07
886541
3.96242e+07
1.47715e+07
3.8795e+06
6.21585e+07
2.7916e+07
86787.8
9.9858e+06
5.4854e+07
4.44646e+06
4.67013e+07
1.70589e+07
1.10476e+06
3.96675e+07
9.90449e+06
2.97559e+07
1.71541e+07
2.06275e+07
6.64649e+06
7.58623e+07
7.90519e+07
89116.5
1.9834e+07
2.25882e+07
5445.68
4.08877e+07
2.31186e+07
4.34438e+07
3.108e+07
3.01287e+07
53592.3
1.95127e+07
1.35084e+07
2.40286e+07
4.73057e+07
2.93269e+07
3.62965e+07
476881
5.37186e+07
8.53104e+07
4.45643e+07
1.63371e+07
7803.25
7.11313e+06
1.6562e+07
8.59361e+07
2.1392e+07
2.14403e+07
5.70029e+07
1.51365e+07
710554
1.66607e+06
6.13695e+07
5.17464e+07
2.20649e+07
8.83321e+07
1.19225e+07
119971
1.34077e+06
4.86241e+07
1.24676e+06
1.93109e+07
1.99185e+07
4.49735e+07
36954.8
113911
2.82188e+07
1.47711e+07
4.99722e+07
4.55679e+06
3.73228e+07
2084.48
1.68636e+07
2.3886e+07
3.59195e+07
9.13975e+07
6.24612e+07
7.80325e+07
1.63994e+07
2.47643e+07
3.53457e+07
7.7564e+07
2.55184e+07
1.49535e+07
3.94449e+07
2.13322e+07
2.48566e+07
4.52997e+07
4.52665e+07
8.39062e+07
5.08122e+07
5.1914e+06
919396
4.57475e+06
4.86448e+07
9.277e+06
824668
9.90071e+06
315994
3.94968e+07
510096
1.15314e+07
8.71008e+07
1.99002e+07
586780
2.4967e+07
4.50223e+07
125563
6.82959e+07
1708.63
6.03288e+06
2.64071e+07
1.84706e+07
103748
1.91417e+07
121601
4.329e+06
8.01566e+06
6.28227e+06
7.69811e+06
3.16688e+07
3.55846e+07
1.48359e+07
9.79662e+06
2.56461e+07
101522
5599.4
1.55194e+07
7.34931e+07
5.92365e+07
81845.6
1.37622e+07
6.65136e+07
50186.8
2.66506e+07
5.07525e+07
3.58355e+07
1.7521e+07
4.98064e+06
6.55698e+06
1.74964e+07
6.57718e+07
1.0975e+06
627123
2.49482e+07
92972
4.28728e+06
36580.1
2.68393e+07
1.93159e+07
7.14935e+07
6.93733e+06
420.725
10450.1
3.02236e+07
2.32267e+07
2.84991e+07
3.32315e+07
4.62471e+07
47210
2.00928e+06
4065.85
5.51702e+07
4.86853e+07
9.80108e+06
1.502e+07
2.76423e+07
8.7321e+07
875987
3.94259e+06
2.78596e+07
7.28105e+07
2.35133e+07
5.88896e+06
6.57091e+07
319.451
5.97837e+07
4.07891e+07
8.11899e+06
2.25528e+07
3.66356e+07
3.45383e+07
1.65615e+07
3.69573e+07
7.67417e+06
150581
5.19849e+07
211273
5.3923e+07
2.51336e+07
3.05101e+06
4.53518e+07
6.54882e+07
1.54191e+07
7.73456e+06
5.28917e+07
113070
4.53472e+06
16458.8
23720
431711
5.81088e+07
1.60218e+07
1.51961e+07
4.18283e+07
4.75068e+07
2.39856e+07
4.51799e+06
4.7013e+07
2.38703e+07
3.77566e+07
1882.65
17711.3
2.66852e+06
6.53066e+07
7.91884e+06
6.38952e+06
1.61772e+07
7.0195e+07
4.58702e+07
7845.24
6.48179e+07
2.63572e+07
4.39258e+06
3.22499e+07
6.71797e+07
5.90933e+06
150819
3.7149e+07
3.11007e+07
1.74687e+07
1.28252e+07
8.37913e+07
7.68949e+07
4.56248e+07
3.81002e+07
4.12696e+07
4.70482e+06
8.43599e+07
1.73502e+07
3.73369e+06
1.16475e+07
1.68008e+07
2.66537e+07
2.46619e+07
1.55913e+07
8.36477e+07
4.01096e+07
3.99899e+07
6.15018e+07
2.11555e+06
1.42892e+06
4.79856e+07
2.56704e+07
3.24103e+07
115093
43435.5
2.75453e+07
2.07078e+07
4.41923e+07
1.07783e+06
123886
583870
1.994e+07
1.74475e+07
7.28515e+07
2.43768e+07
3.40754e+07
16248.7
4.99512e+07
5.2236e+06
59155.7
7.28904e+07
1.94347e+06
8.76464e+07
3.28096e+07
1.57332e+07
7.17083e+07
1.29739e+06
4.8654e+07
4.87022e+07
4.71429e+06
6.03765e+07
3.63798e+07
6.28421e+07
5.07081e+07
4.35906e+07
4.35782e+07
5.0719e+07
5.04703e+07
9.12069e+07
2.32706e+07
2.34307e+07
7.71967e+07
5.55013e+07
5.55706e+07
7.69722e+07
647701
211737
5.41889e+07
6.96429e+06
4.63676e+07
4.63261e+07
8.25578e+07
5.06041e+06
2.4896e+07
3.52578e+07
2.14722e+07
1.01478e+07
1.71341e+07
15848.6
8.47924e+06
2.64174e+07
1.72425e+07
3.68744e+06
2.39497e+07
5.72155e+07
7.91289e+07
3.07868e+07
3.63212e+07
1.83045e+07
7.93286e+07
7.89062e+07
2.1931e+06
4.4804e+07
3.10742e+07
1.79376e+07
3.89885e+07
3.64685e+07
1.19334e+07
3.81848e+06
20996.2
8.10831e+07
4.10392e+07
6.59104e+07
5.76717e+07
3.81154e+07
3.80734e+07
13434.5
3375.59
3.79399e+07
3.07818e+07
4.06832e+07
5.504e+07
46876.9
8.11024e+07
2.66896e+07
5.77311e+06
2.52985e+07
1.4026e+07
1.98947e+07
7.37771e+07
3.94032e+07
4.86365e+07
5.77592e+07
4.17091e+07
4.65478e+06
1.53471e+07
5.43482e+07
5.10741e+06
1.54231e+07
1.72072e+07
7.52531e+07
38456.6
569443
5.5292e+07
6.8039e+06
2.74583e+07
4.31828e+07
56008
8.15252e+06
8.4378e+07
5.93625e+07
1.80522e+07
1.25361e+07
2.50825e+07
3.20642e+06
3.22758e+06
3.26658e+07
7.4606e+07
6.6812e+06
8.61059e+07
8.58498e+07
205371
22016.2
16875.4
2.76213e+07
7.6448e+07
1.94675e+06
1.30686e+07
1.27393e+07
2.66526e+07
1.6067e+07
1.11489e+07
936024
2.96481e+07
620939
2.43114e+07
2.43128e+07
2.87499e+07
4.69261e+07
7.04778e+06
5.26449e+07
3.96457e+06
4.61264e+06
4.36879e+07
2.51272e+07
2.92368e+07
5.25649e+07
1.24792e+07
2.85318e+07
2.41519e+07
2.22775e+07
128249
7.80387e+07
222227
1.02189e+06
5.97514e+07
8.49453e+07
330821
3.49164e+07
3.65039e+07
2.62824e+07
9.23461e+06
18975.7
923032
51369.5
3.10883e+07
1.62847e+06
1.66463e+07
2.07357e+07
8.50551e+06
4.49721e+07
119667
5.22403e+07
3.67105e+07
6.12338e+07
6.12059e+07
6.80603e+06
5.4042e+07
7.12519e+07
5.17027e+07
1.6656e+07
2.07122e+07
22822
5.31639e+07
4.42379e+07
1.71243e+07
2.9455e+07
5.76015e+07
5.37112e+07
7.92703e+07
2.67823e+07
7.19327e+07
4353.75
1.85222e+07
3.44998e+07
9403.14
315835
3.45385e+07
765123
22483.1
9.69973e+06
1.55814e+07
9.54648e+06
5.64015e+07
2.31082e+07
1.06786e+07
791940
3.98105e+07
5.37015e+07
3.57731e+07
4.9983e+07
6.36609e+07
6.08105e+06
1.48316e+07
1.36209e+07
2.58287e+07
1.47367e+07
1.35493e+07
2.12049e+07
2.72115e+07
2.7298e+07
4.99477e+07
1.35166e+07
7.53399e+07
8.86966e+07
1.19655e+07
4.07161e+07
3.47053e+07
2380.18
4.81352e+06
7.79025e+06
5.65595e+06
1.05991e+07
2.66995e+06
390071
2.60705e+07
1.59285e+06
9.16557e+06
9.82316e+07
553315
1.84356e+07
4.76329e+07
1.10703e+06
931833
3304.88
595820
6.98147e+07
6.44925e+06
42109.5
9.08914e+06
7.32378e+06