0 	30.6129 	-0.0262054 	9.58481e-14
0.000254254 	30.6129 	-0.0261915 	7.6607e-12
0.000508509 	30.6129 	-0.0261776 	1.52255e-11
0.000762763 	30.616 	-0.0263301 	-6.92205e-06
0.00101702 	30.6213 	-0.0266086 	-1.90799e-05
0.00127127 	30.6267 	-0.026887 	-3.12377e-05
0.00152553 	30.6321 	-0.0271655 	-2.02076e-05
0.00177978 	30.6374 	-0.027444 	-8.05957e-06
0.00203403 	30.6446 	-0.0277583 	1.58498e-11
0.00228829 	30.6553 	-0.0281433 	8.27187e-12
0.00254254 	30.666 	-0.0285283 	6.93964e-13
0.0027968 	30.6767 	-0.0282911 	6.86864e-12
0.00305105 	30.6875 	-0.0279911 	1.44298e-11
0.00330531 	30.6996 	-0.0279323 	-4.17269e-06
0.00355956 	30.713 	-0.0281299 	-1.27846e-05
0.00381381 	30.7265 	-0.0283276 	-2.13965e-05
0.00406807 	30.74 	-0.0285253 	-1.51721e-05
0.00432232 	30.7535 	-0.0287229 	-6.57577e-06
0.00457658 	30.7676 	-0.0290063 	1.64972e-11
0.00483083 	30.7838 	-0.0295688 	8.94059e-12
0.00508509 	30.8 	-0.0301312 	1.38399e-12
0.00533934 	30.8163 	-0.0300673 	6.61749e-12
0.00559359 	30.8327 	-0.029863 	1.47188e-11
0.00584785 	30.8492 	-0.0299103 	-7.35092e-06
0.0061021 	30.866 	-0.030325 	-2.5437e-05
0.00635636 	30.8827 	-0.0307397 	-4.35232e-05
0.00661061 	30.8995 	-0.0311544 	-3.37885e-05
0.00686486 	30.9162 	-0.0315691 	-1.57571e-05
0.00711912 	30.933 	-0.0320268 	1.84096e-11
0.00737337 	30.9502 	-0.0327821 	1.03164e-11
0.00762763 	30.9673 	-0.0335374 	2.22321e-12
0.00788188 	30.9847 	-0.0336429 	5.92761e-12
0.00813614 	31.0021 	-0.0335022 	1.41004e-11
0.00839039 	31.0197 	-0.0336104 	-8.79382e-06
0.00864464 	31.0375 	-0.0342102 	-3.49618e-05
0.0088989 	31.0554 	-0.03481 	-6.11297e-05
0.00915315 	31.0732 	-0.0354098 	-5.18683e-05
0.00940741 	31.0911 	-0.0360096 	-2.58109e-05
0.00966166 	31.1089 	-0.0366125 	1.93113e-11
0.00991592 	31.1273 	-0.0375499 	1.115e-11
0.0101702 	31.1456 	-0.0384873 	2.98879e-12
0.0104244 	31.1641 	-0.0387496 	5.57276e-12
0.0106787 	31.1827 	-0.0386218 	1.43658e-11
0.0109329 	31.2017 	-0.0387307 	-8.80052e-06
0.0111872 	31.2213 	-0.0394685 	-4.09921e-05
0.0114414 	31.241 	-0.0402063 	-7.31836e-05
0.0116957 	31.2606 	-0.0409442 	-6.77164e-05
0.0119499 	31.2802 	-0.041682 	-3.56996e-05
0.0122042 	31.2999 	-0.0424198 	-3.68278e-06
0.0124585 	31.3204 	-0.0434845 	1.27942e-11
0.0127127 	31.3411 	-0.0445916 	4.01716e-12
0.012967 	31.362 	-0.0450133 	5.10606e-12
0.0132212 	31.383 	-0.0448567 	1.45216e-11
0.0134755 	31.4044 	-0.0449172 	-7.9786e-06
0.0137297 	31.4268 	-0.0457545 	-4.45027e-05
0.013984 	31.4493 	-0.0465918 	-8.10268e-05
0.0142382 	31.4718 	-0.0474291 	-8.15394e-05
0.0144925 	31.4942 	-0.0482664 	-4.52573e-05
0.0147467 	31.5167 	-0.0491038 	-8.9751e-06
0.015001 	31.5402 	-0.0502643 	1.45534e-11
0.0152553 	31.5641 	-0.0515311 	5.15865e-12
0.0155095 	31.5881 	-0.0521296 	4.22585e-12
0.0157638 	31.6124 	-0.0519141 	1.35981e-11
0.016018 	31.637 	-0.0518913 	-6.79069e-06
0.0162723 	31.663 	-0.0528005 	-4.6435e-05
0.0165265 	31.6889 	-0.0537098 	-8.60794e-05
0.0167808 	31.7148 	-0.0546191 	-9.39164e-05
0.017035 	31.7407 	-0.0555284 	-5.45819e-05
0.0172893 	31.7667 	-0.0564376 	-1.52474e-05
0.0175435 	31.7936 	-0.0576592 	1.53346e-11
0.0177978 	31.8211 	-0.0590786 	5.98678e-12
0.0180521 	31.8489 	-0.0598816 	3.36133e-12
0.0183063 	31.8769 	-0.0595866 	1.27103e-11
0.0185606 	31.9051 	-0.0594577 	-5.53707e-06
0.0188148 	31.9349 	-0.0604208 	-4.75001e-05
0.0190691 	31.9646 	-0.0613839 	-8.9463e-05
0.0193233 	31.9944 	-0.062347 	-0.000105456
0.0195776 	32.0241 	-0.0633101 	-6.38705e-05
0.0198318 	32.0539 	-0.0642732 	-2.22852e-05
0.0200861 	32.0844 	-0.065517 	1.6141e-11
0.0203403 	32.1159 	-0.0670849 	6.82019e-12
0.0205946 	32.1475 	-0.0681281 	2.50221e-12
0.0208488 	32.1795 	-0.0677398 	1.18293e-11
0.0211031 	32.2116 	-0.0674917 	-4.40116e-06
0.0213574 	32.2454 	-0.0684979 	-4.82016e-05
0.0216116 	32.2792 	-0.0695041 	-9.2002e-05
0.0218659 	32.313 	-0.0705102 	-0.00011672
0.0221201 	32.3468 	-0.0715164 	-7.33656e-05
0.0223744 	32.3806 	-0.0725226 	-3.00109e-05
0.0226286 	32.415 	-0.0737471 	1.69445e-11
0.0228829 	32.4506 	-0.0754625 	7.64912e-12
0.0231371 	32.4863 	-0.0767872 	1.65006e-12
0.0233914 	32.5224 	-0.0762956 	1.09676e-11
0.0236456 	32.5586 	-0.0759223 	-3.49376e-06
0.0238999 	32.5967 	-0.0769665 	-4.89019e-05
0.0241542 	32.6347 	-0.0780107 	-9.431e-05
0.0244084 	32.6727 	-0.0790549 	-0.000128246
0.0246627 	32.7107 	-0.0800991 	-8.33528e-05
0.0249169 	32.7488 	-0.0811433 	-3.846e-05
0.0251712 	32.787 	-0.0823053 	1.77658e-11
0.0254254 	32.8269 	-0.0841713 	8.48366e-12
0.0256797 	32.8669 	-0.0858243 	8.01914e-13
0.0259339 	32.9073 	-0.085215 	1.01254e-11
0.0261882 	32.9479 	-0.0847096 	-2.88667e-06
0.0264424 	32.9903 	-0.0857922 	-4.99057e-05
0.0266967 	33.0327 	-0.0868749 	-9.69246e-05
0.026951 	33.0751 	-0.0879575 	-0.00014066
0.0272052 	33.1175 	-0.0890402 	-9.42287e-05
0.0274595 	33.1599 	-0.0901228 	-4.77978e-05
0.0277137 	33.2024 	-0.0912055 	-1.36694e-06
0.027968 	33.2467 	-0.0932083 	9.33042e-12
0.0282222 	33.291 	-0.0952391 	4.59823e-14
0.0284765 	33.3359 	-0.0944843 	9.29627e-12
0.0287307 	33.381 	-0.0938176 	-2.62479e-06
0.028985 	33.4279 	-0.0949407 	-5.13134e-05
0.0292392 	33.4749 	-0.0960638 	-0.000100002
0.0294935 	33.5219 	-0.0971868 	-0.000148691
0.0297477 	33.5689 	-0.0983099 	-0.000106157
0.030002 	33.6159 	-0.0994329 	-5.81337e-05
0.0302563 	33.6629 	-0.100556 	-1.011e-05
0.0305105 	33.7115 	-0.10256 	1.0191e-11
0.0307648 	33.7605 	-0.104798 	8.91041e-13
0.031019 	33.81 	-0.104111 	9.02321e-12
0.0312733 	33.8597 	-0.103232 	-2.74393e-06
0.0315275 	33.9114 	-0.104395 	-5.30322e-05
0.0317818 	33.9631 	-0.105558 	-0.00010332
0.032036 	34.0148 	-0.106721 	-0.000153609
0.0322903 	34.0666 	-0.107884 	-0.000118909
0.0325445 	34.1183 	-0.109047 	-6.93645e-05
0.0327988 	34.17 	-0.110209 	-1.98203e-05
0.0330531 	34.223 	-0.112182 	1.17824e-11
0.0333073 	34.2768 	-0.114695 	1.85241e-12
0.0335616 	34.3311 	-0.114143 	7.58168e-12
0.0338158 	34.3856 	-0.113044 	-3.28241e-06
0.0340701 	34.4423 	-0.114244 	-5.50275e-05
0.0343243 	34.4989 	-0.115444 	-0.000106773
0.0345786 	34.5556 	-0.116645 	-0.000158518
0.0348328 	34.6122 	-0.117845 	-0.000132301
0.0350871 	34.6688 	-0.119045 	-8.13793e-05
0.0353413 	34.7255 	-0.120245 	-3.04578e-05
0.0355956 	34.783 	-0.122093 	1.18402e-11
0.0358498 	34.8418 	-0.124905 	2.56938e-12
0.0361041 	34.9011 	-0.124584 	7.2796e-12
0.0363584 	34.9607 	-0.123284 	-4.27589e-06
0.0366126 	35.0224 	-0.124519 	-5.73274e-05
0.0368669 	35.0842 	-0.125754 	-0.000110379
0.0371211 	35.1459 	-0.126988 	-0.00016343
0.0373754 	35.2077 	-0.128223 	-0.000146269
0.0376296 	35.2694 	-0.129457 	-9.41203e-05
0.0378839 	35.3312 	-0.130692 	-4.1972e-05
0.0381381 	35.3933 	-0.132294 	1.36943e-11
0.0383924 	35.4573 	-0.135409 	3.68096e-12
0.0386466 	35.5217 	-0.135431 	6.81822e-12
0.0389009 	35.5866 	-0.133979 	-5.76008e-06
0.0391552 	35.6537 	-0.135247 	-6.00293e-05
0.0394094 	35.7207 	-0.136514 	-0.000114299
0.0396637 	35.7878 	-0.137781 	-0.000168568
0.0399179 	35.8548 	-0.139048 	-0.000160943
0.0401722 	35.9219 	-0.140316 	-0.000107656
0.0404264 	35.9889 	-0.141583 	-5.43702e-05
0.0406807 	36.056 	-0.14285 	-1.08399e-06
0.0409349 	36.1253 	-0.146208 	4.90722e-12
0.0411892 	36.1951 	-0.146671 	6.21877e-12
0.0414434 	36.2655 	-0.145117 	-7.77275e-06
0.0416977 	36.338 	-0.146417 	-6.32456e-05
0.041952 	36.4106 	-0.147717 	-0.000118719
0.0422062 	36.4831 	-0.149016 	-0.000174191
0.0424605 	36.5557 	-0.150316 	-0.000176539
0.0427147 	36.6282 	-0.151616 	-0.000122131
0.042969 	36.7008 	-0.152916 	-6.77219e-05
0.0432232 	36.7734 	-0.154216 	-1.33132e-05
0.0434775 	36.8477 	-0.157312 	6.24756e-12
0.0437317 	36.923 	-0.158307 	5.22135e-12
0.043986 	36.9992 	-0.156703 	-1.03463e-05
0.0442402 	37.0775 	-0.158035 	-6.70066e-05
0.0444945 	37.1557 	-0.159368 	-0.000123667
0.0447487 	37.234 	-0.1607 	-0.000180327
0.045003 	37.3123 	-0.162032 	-0.000193076
0.0452573 	37.3906 	-0.163364 	-0.000137562
0.0455115 	37.4689 	-0.164697 	-8.20474e-05
0.0457658 	37.5471 	-0.166029 	-2.65331e-05
0.04602 	37.6267 	-0.168729 	7.32317e-12
0.0462743 	37.7078 	-0.170346 	3.91834e-12
0.0465285 	37.7899 	-0.168749 	-1.35046e-05
0.0467828 	37.8742 	-0.170113 	-7.12999e-05
0.047037 	37.9584 	-0.171477 	-0.000129095
0.0472913 	38.0426 	-0.172841 	-0.000186891
0.0475455 	38.1268 	-0.174204 	-0.000210443
0.0477998 	38.2111 	-0.175568 	-0.000153876
0.0480541 	38.2953 	-0.176932 	-9.73081e-05
0.0483083 	38.3795 	-0.178296 	-4.07406e-05
0.0485626 	38.4645 	-0.180459 	7.82647e-12
0.0488168 	38.5515 	-0.182788 	2.7627e-12
0.0490711 	38.6399 	-0.18126 	-1.72572e-05
0.0493253 	38.7303 	-0.182654 	-7.60885e-05
0.0495796 	38.8207 	-0.184047 	-0.00013492
0.0498338 	38.9111 	-0.185441 	-0.000193751
0.0500881 	39.0015 	-0.186834 	-0.000228455
0.0503423 	39.0919 	-0.188227 	-0.000170932
0.0505966 	39.1823 	-0.189621 	-0.000113408
0.0508509 	39.2727 	-0.191014 	-5.58849e-05
0.0511051 	39.3632 	-0.192496 	8.24313e-12
0.0513594 	39.4564 	-0.195624 	1.86044e-12
0.0516136 	39.5514 	-0.194232 	-2.15964e-05
0.0518679 	39.6482 	-0.195652 	-8.13134e-05
0.0521221 	39.745 	-0.197072 	-0.00014103
0.0523764 	39.8419 	-0.198492 	-0.000200747
0.0526306 	39.9387 	-0.199912 	-0.000246857
0.0528849 	40.0355 	-0.201332 	-0.000188524
0.0531391 	40.1323 	-0.202752 	-0.000130192
0.0533934 	40.2291 	-0.204172 	-7.18593e-05
0.0536476 	40.3259 	-0.205592 	-1.35268e-05
0.0539019 	40.4249 	-0.208834 	8.94999e-13
0.0541562 	40.5267 	-0.207651 	-2.64875e-05
0.0544104 	40.6302 	-0.209093 	-8.68786e-05
0.0546647 	40.7337 	-0.210535 	-0.00014727
0.0549189 	40.8371 	-0.211977 	-0.000207661
0.0551732 	40.9406 	-0.213419 	-0.00026529
0.0554274 	41.0441 	-0.214861 	-0.000206354
0.0556817 	41.1475 	-0.216304 	-0.000147418
0.0559359 	41.251 	-0.217746 	-8.84817e-05
0.0561902 	41.3545 	-0.219188 	-2.95457e-05
0.0564444 	41.4594 	-0.222387 	3.27151e-14
0.0566987 	41.5683 	-0.221488 	-3.18531e-05
0.056953 	41.6786 	-0.222946 	-9.26223e-05
0.0572072 	41.789 	-0.224404 	-0.000153391
0.0574615 	41.8993 	-0.225862 	-0.000214161
0.0577157 	42.0097 	-0.22732 	-0.00027493
0.05797 	42.12 	-0.228777 	-0.000223959
0.0582242 	42.2304 	-0.230235 	-0.000164706
0.0584785 	42.3408 	-0.231693 	-0.000105454
0.0587327 	42.4511 	-0.233151 	-4.62021e-05
0.058987 	42.5621 	-0.235453 	8.31739e-13
0.0592412 	42.6783 	-0.235699 	-3.76489e-05
0.0594955 	42.7958 	-0.237167 	-9.85416e-05
0.0597497 	42.9132 	-0.238636 	-0.000159434
0.060004 	43.0307 	-0.240104 	-0.000220327
0.0602583 	43.1482 	-0.241572 	-0.00028122
0.0605125 	43.2657 	-0.24304 	-0.000241271
0.0607668 	43.3832 	-0.244508 	-0.000181948
0.061021 	43.5006 	-0.245977 	-0.000122626
0.0612753 	43.6181 	-0.247445 	-6.33026e-05
0.0615295 	43.7356 	-0.248913 	-3.97967e-06
0.0617838 	43.8591 	-0.250252 	-4.38167e-05
0.062038 	43.9839 	-0.251726 	-0.000104602
0.0622923 	44.1087 	-0.253199 	-0.000165388
0.0625465 	44.2336 	-0.254673 	-0.000226173
0.0628008 	44.3584 	-0.256147 	-0.000286959
0.0630551 	44.4831 	-0.257527 	-0.000257135
0.0633093 	44.6078 	-0.258825 	-0.000196005
0.0635636 	44.7325 	-0.260124 	-0.000134875
0.0638178 	44.8573 	-0.261422 	-7.37452e-05
0.0640721 	44.982 	-0.262721 	-1.26152e-05
0.0643263 	45.1122 	-0.264084 	-3.95149e-05
0.0645806 	45.2445 	-0.265368 	-9.79052e-05
0.0648348 	45.3767 	-0.266652 	-0.000156295
0.0650891 	45.5089 	-0.267936 	-0.000214686
0.0653433 	45.6412 	-0.26922 	-0.000273076
0.0655976 	45.7734 	-0.270504 	-0.000253088
0.0658519 	45.9057 	-0.271788 	-0.000192397
0.0661061 	46.0379 	-0.273072 	-0.000131706
0.0663604 	46.1702 	-0.274356 	-7.10148e-05
0.0666146 	46.3024 	-0.27564 	-1.03238e-05
0.0668689 	46.4397 	-0.277158 	-2.68618e-05
0.0671231 	46.5796 	-0.278442 	-8.53895e-05
0.0673774 	46.7196 	-0.279726 	-0.000143917
0.0676316 	46.8596 	-0.28101 	-0.000202445
0.0678859 	46.9996 	-0.282294 	-0.000260972
0.0681401 	47.1396 	-0.283578 	-0.000251415
0.0683944 	47.2796 	-0.284862 	-0.000190527
0.0686486 	47.4196 	-0.286145 	-0.000129639
0.0689029 	47.5596 	-0.287429 	-6.87504e-05
0.0691572 	47.6996 	-0.288713 	-7.8623e-06
0.0694114 	47.844 	-0.290445 	-1.3939e-05
0.0696657 	47.9919 	-0.291737 	-7.29067e-05
0.0699199 	48.1399 	-0.29303 	-0.000131874
0.0701742 	48.2878 	-0.294322 	-0.000190842
0.0704284 	48.4357 	-0.295615 	-0.00024981
0.0706827 	48.5837 	-0.296908 	-0.000250712
0.0709369 	48.7316 	-0.2982 	-0.000189318
0.0711912 	48.8796 	-0.299493 	-0.000127924
0.0714454 	49.0275 	-0.300786 	-6.65308e-05
0.0716997 	49.1755 	-0.302078 	-5.13725e-06
0.071954 	49.3272 	-0.304083 	-5.34184e-07
0.0722082 	49.4832 	-0.305347 	-5.82336e-05
0.0724625 	49.6393 	-0.306612 	-0.000115933
0.0727167 	49.7953 	-0.307876 	-0.000173632
0.072971 	49.9514 	-0.30914 	-0.000231332
0.0732252 	50.1074 	-0.310405 	-0.000242495
0.0734795 	50.2635 	-0.311669 	-0.000182383
0.0737337 	50.4195 	-0.312934 	-0.000122271
0.073988 	50.5756 	-0.314198 	-6.21596e-05
0.0742422 	50.7316 	-0.315462 	-2.04769e-06
0.0744965 	50.8915 	-0.317507 	6.10069e-05
0.0747508 	51.055 	-0.318934 	-4.30556e-05
0.075005 	51.2192 	-0.320147 	-9.8404e-05
0.0752593 	51.3834 	-0.32136 	-0.000153752
0.0755135 	51.5476 	-0.322573 	-0.000209101
0.0757678 	51.7118 	-0.323786 	-0.00022965
0.076022 	51.876 	-0.325 	-0.000171959
0.0762763 	52.0402 	-0.326213 	-0.000114267
0.0765305 	52.2044 	-0.327426 	-5.65761e-05
0.0767848 	52.3687 	-0.328638 	5.85195e-06
0.077039 	52.5367 	-0.330338 	0.000134111
0.0772933 	52.7076 	-0.332333 	-2.7723e-05
0.0775475 	52.8799 	-0.333453 	-7.88053e-05
0.0778018 	53.0522 	-0.334574 	-0.000129888
0.0780561 	53.2245 	-0.335695 	-0.00018097
0.0783103 	53.3968 	-0.336816 	-0.000208999
0.0785646 	53.5692 	-0.337936 	-0.000155737
0.0788188 	53.7415 	-0.339057 	-0.000102474
0.0790731 	53.9138 	-0.340178 	-4.92119e-05
0.0793273 	54.0863 	-0.341209 	2.4564e-05
0.0795816 	54.2623 	-0.341987 	0.000217695
0.0798358 	54.4404 	-0.345067 	-1.33763e-05
0.0800901 	54.6207 	-0.346032 	-5.73521e-05
0.0803443 	54.8009 	-0.346996 	-0.000101328
0.0805986 	54.9812 	-0.347961 	-0.000145304
0.0808529 	55.1615 	-0.348926 	-0.000177223
0.0811071 	55.3417 	-0.349891 	-0.000131363
0.0813614 	55.522 	-0.350856 	-8.55036e-05
0.0816156 	55.7023 	-0.35182 	-3.96439e-05
0.0818699 	55.883 	-0.352462 	4.57856e-05
0.0821241 	56.0666 	-0.351778 	0.000306611
0.0823784 	56.2517 	-0.35648 	-2.41824e-06
0.0826326 	56.4397 	-0.357327 	-4.08806e-05
0.0828869 	56.6277 	-0.358174 	-7.9343e-05
0.0831411 	56.8157 	-0.359021 	-0.000117805
0.0833954 	57.0036 	-0.359868 	-0.000152526
0.0836496 	57.1916 	-0.360715 	-0.000112417
0.0839039 	57.3796 	-0.361562 	-7.23092e-05
0.0841582 	57.5676 	-0.362409 	-3.22009e-05
0.0844124 	57.7562 	-0.362538 	6.96142e-05
0.0846667 	57.9473 	-0.359978 	0.000403775
0.0849209 	58.1398 	-0.365771 	6.17372e-05
0.0851752 	58.3346 	-0.367441 	-2.82155e-05
0.0854294 	58.53 	-0.368202 	-6.26457e-05
0.0856837 	58.7253 	-0.368964 	-9.70759e-05
0.0859379 	58.9207 	-0.369725 	-0.000131506
0.0861922 	59.1161 	-0.370486 	-9.83453e-05
0.0864464 	59.3114 	-0.371248 	-6.24512e-05
0.0867007 	59.5068 	-0.372009 	-2.65571e-05
0.086955 	59.703 	-0.371536 	9.65127e-05
0.0872092 	59.9014 	-0.367552 	0.000467536
0.0874635 	60.1009 	-0.373455 	0.000152834
0.0877177 	60.302 	-0.376594 	-1.60286e-05
0.087972 	60.5043 	-0.37721 	-4.39109e-05
0.0882262 	60.7066 	-0.377827 	-7.17932e-05
0.0884805 	60.9088 	-0.378443 	-9.96755e-05
0.0887347 	61.1111 	-0.37906 	-7.77584e-05
0.088989 	61.3134 	-0.379676 	-4.87051e-05
0.0892432 	61.5157 	-0.380293 	-1.96518e-05
0.0894975 	61.7189 	-0.379057 	0.000124239
0.0897518 	61.9241 	-0.373951 	0.000508173
0.090006 	62.1301 	-0.379177 	0.000249396
0.0902603 	62.337 	-0.384015 	-5.25291e-06
0.0905145 	62.5456 	-0.38436 	-2.11752e-05
0.0907688 	62.7541 	-0.384706 	-3.70975e-05
0.091023 	62.9627 	-0.385051 	-5.30199e-05
0.0912773 	63.1713 	-0.385397 	-4.33268e-05
0.0915315 	63.3799 	-0.385743 	-2.67483e-05
0.0917858 	63.5885 	-0.386088 	-1.01697e-05
0.09204 	63.7981 	-0.383876 	0.000149936
0.0922943 	64.0093 	-0.377606 	0.000537798
0.0925485 	64.2211 	-0.381492 	0.000344004
0.0928028 	64.4332 	-0.387958 	-6.89175e-08
0.0930571 	64.6473 	-0.387957 	-8.73865e-07
0.0933113 	64.8614 	-0.387956 	-1.67881e-06
0.0935656 	65.0755 	-0.387955 	-2.48376e-06
0.0938198 	65.2896 	-0.387954 	-2.13669e-06
0.0940741 	65.5036 	-0.387953 	-1.29943e-06
0.0943283 	65.7177 	-0.387952 	-4.62161e-07
0.0945826 	65.9328 	-0.384714 	0.000172445
0.0948368 	66.1492 	-0.377486 	0.00055742
0.0950911 	66.366 	-0.379736 	0.000432311
0.0953453 	66.5829 	-0.386606 	5.85338e-05
0.0955996 	66.8011 	-0.387419 	1.07315e-05
0.0958539 	67.0196 	-0.387107 	2.34555e-05
0.0961081 	67.2381 	-0.386795 	3.61795e-05
0.0963624 	67.4566 	-0.386483 	3.29582e-05
0.0966166 	67.6751 	-0.386171 	1.97408e-05
0.0968709 	67.8937 	-0.385859 	6.52333e-06
0.0971251 	68.1131 	-0.381671 	0.000192814
0.0973794 	68.3334 	-0.373707 	0.00057352
0.0976336 	68.5538 	-0.374293 	0.000516451
0.0978879 	68.7744 	-0.380992 	0.000146408
0.0981421 	68.9955 	-0.383258 	1.62383e-05
0.0983964 	69.217 	-0.382622 	4.31073e-05
0.0986507 	69.4384 	-0.381986 	6.99764e-05
0.0989049 	69.6599 	-0.38135 	6.79702e-05
0.0991592 	69.8814 	-0.380714 	4.01042e-05
0.0994134 	70.1028 	-0.380078 	1.22383e-05
0.0996677 	70.3248 	-0.374903 	0.000209304
0.0999219 	70.5473 	-0.366174 	0.000582516
0.100176 	70.7699 	-0.364952 	0.000592107
0.10043 	70.9925 	-0.371428 	0.000228859
0.100685 	71.2152 	-0.375138 	1.58027e-05
0.100939 	71.4377 	-0.374139 	5.85163e-05
0.101193 	71.6603 	-0.373141 	0.00010123
0.101447 	71.8829 	-0.372142 	0.000105689
0.101702 	72.1054 	-0.371143 	6.14762e-05
0.101956 	72.328 	-0.370145 	1.7263e-05
0.10221 	72.5506 	-0.363989 	0.000218358
0.102464 	72.7732 	-0.354529 	0.000576585
0.102719 	72.9959 	-0.351447 	0.000648924
0.102973 	73.2186 	-0.357769 	0.000299707
0.103227 	73.4411 	-0.36301 	7.97994e-06
0.103481 	73.6627 	-0.361704 	6.42654e-05
0.103736 	73.8842 	-0.360397 	0.000120551
0.10399 	74.1057 	-0.359091 	0.000136541
0.104244 	74.3273 	-0.357784 	7.84103e-05
0.104498 	74.5488 	-0.356478 	2.02793e-05
0.104753 	74.7697 	-0.34938 	0.000221844
0.105007 	74.9903 	-0.339179 	0.000562542
0.105261 	75.2108 	-0.33416 	0.000691639
0.105516 	75.4312 	-0.340449 	0.000358903
0.10577 	75.6517 	-0.346739 	2.61658e-05
0.106024 	75.87 	-0.345698 	6.6529e-05
0.106278 	76.0882 	-0.344031 	0.000138736
0.106533 	76.3063 	-0.342365 	0.000172271
0.106787 	76.5245 	-0.340698 	9.78874e-05
0.107041 	76.7426 	-0.339032 	2.35034e-05
0.107295 	76.9593 	-0.330894 	0.000216387
0.10755 	77.1753 	-0.319766 	0.00053273
0.107804 	77.3912 	-0.312511 	0.000708852
0.108058 	77.607 	-0.318668 	0.000399262
0.108312 	77.8227 	-0.324824 	8.96715e-05
0.108567 	78.036 	-0.325199 	6.12625e-05
0.108821 	78.2483 	-0.323216 	0.000147505
0.109075 	78.4605 	-0.321232 	0.000203167
0.109329 	78.6728 	-0.319249 	0.000114579
0.109584 	78.885 	-0.317266 	2.59912e-05
0.109838 	79.0949 	-0.308302 	0.000203032
0.110092 	79.3037 	-0.29644 	0.000490367
0.110346 	79.5125 	-0.286999 	0.000701697
0.110601 	79.7209 	-0.293264 	0.000419849
0.110855 	79.9294 	-0.299529 	0.000138001
0.111109 	80.1354 	-0.30146 	4.96032e-05
0.111363 	80.3391 	-0.299233 	0.000146793
0.111618 	80.5427 	-0.297005 	0.00022717
0.111872 	80.7463 	-0.294778 	0.000127651
0.112126 	80.9499 	-0.29255 	2.81331e-05
0.11238 	81.1502 	-0.28276 	0.000187023
0.112635 	81.3491 	-0.269989 	0.000447753
0.112889 	81.548 	-0.258035 	0.000686375
0.113143 	81.7464 	-0.264373 	0.00042998
0.113397 	81.9447 	-0.270712 	0.000173585
0.113652 	82.1411 	-0.274177 	3.61108e-05
0.113906 	82.3332 	-0.271619 	0.000147915
0.11416 	82.5252 	-0.269062 	0.00025972
0.114414 	82.7173 	-0.266504 	0.000146647
0.114669 	82.9094 	-0.263946 	3.25573e-05
0.114923 	83.097 	-0.253334 	0.00016648
0.115177 	83.2829 	-0.239506 	0.000399438
0.115431 	83.4688 	-0.225678 	0.000632395
0.115686 	83.6541 	-0.231223 	0.000425041
0.11594 	83.8393 	-0.237751 	0.000195333
0.116194 	84.0233 	-0.242876 	1.86674e-05
0.116448 	84.2007 	-0.240026 	0.00014341
0.116703 	84.3781 	-0.237175 	0.000268153
0.116957 	84.5555 	-0.234325 	0.000165227
0.117211 	84.7329 	-0.231475 	3.84021e-05
0.117465 	84.905 	-0.220163 	0.000145481
0.11772 	85.0747 	-0.205177 	0.000354144
0.117974 	85.2444 	-0.190191 	0.000562807
0.118228 	85.4134 	-0.193885 	0.000414412
0.118482 	85.5822 	-0.200612 	0.000208065
0.118737 	85.751 	-0.207338 	1.71817e-06
0.118991 	85.9106 	-0.20436 	0.000132828
0.119245 	86.0702 	-0.2013 	0.000266771
0.119499 	86.2298 	-0.19824 	0.000181256
0.119754 	86.3893 	-0.195181 	4.56049e-05
0.120008 	86.5428 	-0.183594 	0.000125222
0.120262 	86.6933 	-0.167689 	0.000313863
0.120517 	86.8437 	-0.151784 	0.000502504
0.120771 	86.9933 	-0.153534 	0.000402264
0.121025 	87.1426 	-0.160593 	0.00021515
0.121279 	87.292 	-0.167652 	2.80365e-05
0.121534 	87.4323 	-0.166011 	0.000118102
0.121788 	87.5711 	-0.162837 	0.000257019
0.122042 	87.7098 	-0.159663 	0.000194283
0.122296 	87.8486 	-0.156489 	5.41635e-05
0.122551 	87.9809 	-0.145099 	0.00010362
0.122805 	88.1092 	-0.128531 	0.000272533
0.123059 	88.2375 	-0.111964 	0.000441447
0.123313 	88.3649 	-0.111696 	0.000382203
0.123568 	88.492 	-0.119203 	0.000214135
0.123822 	88.619 	-0.12671 	4.60665e-05
0.124076 	88.7376 	-0.126498 	9.92189e-05
0.12433 	88.8531 	-0.123373 	0.000235901
0.124585 	88.9685 	-0.120248 	0.000199695
0.124839 	89.084 	-0.117123 	6.2395e-05
0.125093 	89.1931 	-0.106492 	8.27182e-05
0.125347 	89.2969 	-0.0896104 	0.000234339
0.125602 	89.4008 	-0.0727285 	0.000385961
0.125856 	89.5039 	-0.0704904 	0.000360314
0.12611 	89.6065 	-0.0786329 	0.000209004
0.126364 	89.7091 	-0.0867755 	5.76937e-05
0.126619 	89.8042 	-0.0880703 	7.90574e-05
0.126873 	89.8946 	-0.085145 	0.000206836
0.127127 	89.9849 	-0.0822196 	0.000196764
0.127381 	90.0753 	-0.0792943 	6.88748e-05
0.127636 	90.16 	-0.0699005 	6.36557e-05
0.12789 	90.2382 	-0.0529573 	0.000201603
0.128144 	90.3163 	-0.0360142 	0.00033955
0.128398 	90.3938 	-0.0318037 	0.000341413
0.128653 	90.4708 	-0.0406766 	0.000203445
0.128907 	90.5477 	-0.0495494 	6.54775e-05
0.129161 	90.6182 	-0.0523852 	5.99834e-05
0.129415 	90.6828 	-0.0497681 	0.000174147
0.12967 	90.7474 	-0.047151 	0.000186259
0.129924 	90.812 	-0.0445339 	7.22393e-05
0.130178 	90.8721 	-0.0367407 	4.63597e-05
0.130432 	90.9243 	-0.0199978 	0.000172876
0.130687 	90.9766 	-0.00325493 	0.000299392
0.130941 	91.0284 	0.00287888 	0.00032431
0.131195 	91.0796 	-0.00682052 	0.000197601
0.131449 	91.1307 	-0.0165199 	7.08924e-05
0.131704 	91.1767 	-0.0209673 	4.26434e-05
0.131958 	91.2159 	-0.0187441 	0.000139448
0.132212 	91.2552 	-0.016521 	0.000167562
0.132466 	91.2945 	-0.0142978 	7.10224e-05
0.132721 	91.3305 	-0.00832436 	3.13829e-05
0.132975 	91.3578 	0.00808713 	0.000150112
0.133229 	91.3851 	0.0244986 	0.000268841
0.133483 	91.4121 	0.0326042 	0.000314049
0.133738 	91.4385 	0.0221541 	0.00019501
0.133992 	91.4649 	0.0117041 	7.59707e-05
0.134246 	91.4872 	0.0057028 	2.90019e-05
0.134501 	91.5025 	0.00754897 	0.000109161
0.134755 	91.5177 	0.00939515 	0.000147193
0.135009 	91.533 	0.0112413 	6.73633e-05
0.135263 	91.5465 	0.0152947 	1.73609e-05
0.135518 	91.5505 	0.0312748 	0.000128529
0.135772 	91.5546 	0.0472548 	0.000239698
0.136026 	91.5585 	0.0573329 	0.000302485
0.13628 	91.5618 	0.0461411 	0.00019091
0.136535 	91.5652 	0.0349492 	7.93347e-05
0.136789 	91.5656 	0.0274321 	1.90531e-05
0.137043 	91.5588 	0.0289575 	8.49899e-05
0.137297 	91.5519 	0.0304829 	0.000128389
0.137552 	91.5451 	0.0320083 	6.28113e-05
0.137806 	91.5379 	0.0341312 	4.33824e-06
0.13806 	91.5208 	0.049823 	0.000107189
0.138314 	91.5037 	0.0655147 	0.000210039
0.138569 	91.4866 	0.0777682 	0.000287075
0.138823 	91.469 	0.0659989 	0.000183743
0.139077 	91.4514 	0.0542296 	8.04112e-05
0.139331 	91.4318 	0.0453545 	1.21784e-05
0.139586 	91.405 	0.0466325 	6.70808e-05
0.13984 	91.3783 	0.0479105 	0.000113286
0.140094 	91.3515 	0.0491885 	5.8755e-05
0.140348 	91.3247 	0.0504665 	4.22386e-06
0.140603 	91.2895 	0.0648922 	8.90166e-05
0.140857 	91.2535 	0.0804219 	0.000185507
0.141111 	91.2175 	0.0950319 	0.000275569
0.141365 	91.1812 	0.0828722 	0.000178532
0.14162 	91.1448 	0.0707124 	8.14946e-05
0.141874 	91.1071 	0.0606825 	7.7723e-06
0.142128 	91.0626 	0.0618196 	5.62956e-05
0.142382 	91.018 	0.0629567 	0.000104819
0.142637 	90.9735 	0.0640939 	5.78817e-05
0.142891 	90.9289 	0.065231 	9.74765e-06
0.143145 	90.8778 	0.0778103 	7.24819e-05
0.143399 	90.8251 	0.0932951 	0.000163369
0.143654 	90.7723 	0.10878 	0.000254256
0.143908 	90.7193 	0.0980188 	0.000173483
0.144162 	90.6662 	0.0856192 	8.19943e-05
0.144416 	90.6124 	0.0746169 	4.68026e-06
0.144671 	90.5521 	0.0756805 	4.97763e-05
0.144925 	90.4917 	0.0767441 	9.48724e-05
0.145179 	90.4313 	0.0778077 	5.95456e-05
0.145433 	90.371 	0.0788713 	1.48656e-05
0.145688 	90.3058 	0.0895577 	5.69713e-05
0.145942 	90.2381 	0.105042 	0.000142348
0.146196 	90.1705 	0.120526 	0.000227725
0.14645 	90.1026 	0.112179 	0.000167536
0.146705 	90.0348 	0.0996019 	8.15164e-05
0.146959 	89.9666 	0.0877367 	2.23438e-06
0.147213 	89.8922 	0.0887497 	4.49095e-05
0.147467 	89.8178 	0.0897627 	8.75846e-05
0.147722 	89.7434 	0.0907757 	6.19872e-05
0.147976 	89.669 	0.0917887 	1.97546e-05
0.14823 	89.5912 	0.100509 	4.25894e-05
0.148484 	89.5103 	0.116004 	0.000122607
0.148739 	89.4294 	0.131498 	0.000202625
0.148993 	89.3484 	0.12562 	0.000160929
0.149247 	89.2674 	0.112895 	8.02393e-05
0.149502 	89.1863 	0.100246 	2.2554e-07
0.149756 	89.0994 	0.101211 	4.06258e-05
0.15001 	89.0126 	0.102177 	8.1026e-05
0.150264 	88.9257 	0.103143 	6.41927e-05
0.150519 	88.8389 	0.104108 	2.42547e-05
0.150773 	88.7498 	0.110772 	2.91853e-05
0.151027 	88.6572 	0.126247 	0.000103506
0.151281 	88.5646 	0.141722 	0.000177826
0.151536 	88.4719 	0.138324 	0.000152775
0.15179 	88.3791 	0.125438 	7.77709e-05
0.152044 	88.2864 	0.112552 	2.76682e-06
0.152298 	88.1887 	0.112942 	3.5914e-05
0.152553 	88.0909 	0.113841 	7.32035e-05
0.152807 	87.993 	0.11474 	6.44818e-05
0.153061 	87.8951 	0.115639 	2.76563e-05
0.153315 	87.796 	0.120152 	1.70286e-05
0.15357 	87.6931 	0.135564 	8.54179e-05
0.153824 	87.5901 	0.150977 	0.000153807
0.154078 	87.4871 	0.150049 	0.000143348
0.154332 	87.3841 	0.136976 	7.42782e-05
0.154587 	87.2811 	0.123902 	5.20869e-06
0.154841 	87.174 	0.123664 	3.06451e-05
0.155095 	87.0666 	0.124473 	6.37895e-05
0.155349 	86.9592 	0.125282 	6.20831e-05
0.155604 	86.8518 	0.126091 	2.93816e-05
0.155858 	86.7439 	0.128372 	6.35357e-06
0.156112 	86.632 	0.143683 	6.89333e-05
0.156366 	86.5202 	0.158995 	0.000131513
0.156621 	86.4083 	0.160531 	0.000133471
0.156875 	86.2965 	0.147251 	7.02258e-05
0.157129 	86.1847 	0.133972 	6.98052e-06
0.157383 	86.0695 	0.133131 	2.51646e-05
0.157638 	85.954 	0.133833 	5.34511e-05
0.157892 	85.8384 	0.134535 	5.71447e-05
0.158146 	85.7229 	0.135238 	2.926e-05
0.1584 	85.6074 	0.13594 	1.37524e-06
0.158655 	85.4883 	0.150412 	5.43756e-05
0.158909 	85.369 	0.165598 	0.000111572
0.159163 	85.2498 	0.169601 	0.000123903
0.159417 	85.1306 	0.156113 	6.60626e-05
0.159672 	85.0114 	0.142625 	8.22246e-06
0.159926 	84.8897 	0.141214 	1.98747e-05
0.16018 	84.7675 	0.141803 	4.30429e-05
0.160434 	84.6453 	0.142393 	5.02788e-05
0.160689 	84.5232 	0.142983 	2.74573e-05
0.160943 	84.401 	0.143572 	4.63578e-06
0.161197 	84.2764 	0.155684 	4.17544e-05
0.161451 	84.1513 	0.170732 	9.41522e-05
0.161706 	84.0261 	0.177211 	0.000115109
0.16196 	83.9011 	0.163528 	6.2092e-05
0.162214 	83.7761 	0.149845 	9.07488e-06
0.162468 	83.6492 	0.147899 	1.50103e-05
0.162723 	83.5219 	0.148377 	3.31204e-05
0.162977 	83.3946 	0.148855 	4.20629e-05
0.163231 	83.2673 	0.149333 	2.42359e-05
0.163485 	83.14 	0.149811 	6.40896e-06
0.16374 	83.0112 	0.159528 	3.08723e-05
0.163994 	82.8816 	0.174431 	7.90728e-05
0.164248 	82.7521 	0.183393 	0.000107239
0.164503 	82.6227 	0.169536 	5.84455e-05
0.164757 	82.4933 	0.155679 	9.65153e-06
0.165011 	82.3627 	0.153235 	1.06351e-05
0.165265 	82.2317 	0.153606 	2.38925e-05
0.16552 	82.1007 	0.153977 	3.28411e-05
0.165774 	81.9697 	0.154348 	1.97988e-05
0.166028 	81.8388 	0.154718 	6.7565e-06
0.166282 	81.707 	0.162018 	2.14608e-05
0.166537 	81.5744 	0.176766 	6.59887e-05
0.166791 	81.4418 	0.188211 	0.000100221
0.167045 	81.3095 	0.174208 	5.51265e-05
0.167299 	81.1772 	0.160204 	1.00315e-05
0.167554 	81.0441 	0.157299 	6.73634e-06
0.167808 	80.9108 	0.157567 	1.53998e-05
0.168062 	80.7775 	0.157836 	2.28157e-05
0.168316 	80.6442 	0.158105 	1.42971e-05
0.168571 	80.5109 	0.158374 	5.77848e-06
0.168825 	80.3773 	0.163247 	1.3275e-05
0.169079 	80.243 	0.177828 	5.45434e-05
0.169333 	80.1088 	0.191743 	9.38821e-05
0.169588 	79.9748 	0.177625 	5.20733e-05
0.169842 	79.8408 	0.163508 	1.02645e-05
0.170096 	79.7065 	0.160173 	3.31575e-06
0.17035 	79.5722 	0.160347 	7.71032e-06
0.170605 	79.4378 	0.160521 	1.21049e-05
0.170859 	79.3034 	0.160695 	7.94747e-06
0.171113 	79.1691 	0.160869 	3.62819e-06
0.171367 	79.0346 	0.163319 	6.13408e-06
0.171622 	78.8998 	0.177723 	4.44668e-05
0.171876 	78.7651 	0.192126 	8.27996e-05
0.17213 	78.6306 	0.179889 	4.92316e-05
0.172384 	78.4961 	0.165696 	1.03857e-05
0.172639 	78.3618 	0.161964 	3.20424e-07
0.172893 	78.2274 	0.16205 	7.57675e-07
0.173147 	78.0931 	0.162135 	1.19493e-06
0.173401 	77.9588 	0.162221 	8.60427e-07
0.173656 	77.8245 	0.162306 	4.30812e-07
0.17391 	77.6901 	0.162392 	1.19631e-09
0.174164 	77.5559 	0.176558 	3.53993e-05
0.174418 	77.4216 	0.19076 	7.08913e-05
0.174673 	77.2877 	0.181082 	4.63488e-05
0.174927 	77.1538 	0.166856 	1.03737e-05
0.175181 	77.0203 	0.162758 	-2.21199e-06
0.175435 	76.8869 	0.162764 	-5.32037e-06
0.17569 	76.7536 	0.16277 	-8.42875e-06
0.175944 	76.6203 	0.162776 	-6.61303e-06
0.176198 	76.4869 	0.162782 	-3.55969e-06
0.176452 	76.3536 	0.162788 	-5.0636e-07
0.176707 	76.2207 	0.174452 	2.70803e-05
0.176961 	76.0878 	0.188435 	5.95453e-05
0.177215 	75.9553 	0.181326 	4.30774e-05
0.177469 	75.8228 	0.167128 	1.01654e-05
0.177724 	75.691 	0.162697 	-4.37222e-06
0.177978 	75.5595 	0.16263 	-1.06984e-05
0.178232 	75.4279 	0.162563 	-1.70247e-05
0.178486 	75.2964 	0.162497 	-1.44727e-05