0 	31.9371 	-0.0273816 	7.53703e-13
0.000254254 	31.9371 	-0.0273875 	1.523e-10
0.000508509 	31.9371 	-0.0273933 	3.03847e-10
0.000762763 	31.9404 	-0.0275599 	-7.16357e-06
0.00101702 	31.9461 	-0.027848 	-1.97462e-05
0.00127127 	31.9519 	-0.0281362 	-3.23288e-05
0.00152553 	31.9577 	-0.0284244 	-2.09133e-05
0.00177978 	31.9634 	-0.0287126 	-8.34083e-06
0.00203403 	31.9711 	-0.0290311 	3.17135e-10
0.00228829 	31.9827 	-0.0294093 	1.65511e-10
0.00254254 	31.9942 	-0.0297876 	1.38863e-11
0.0027968 	32.0058 	-0.0295565 	1.3786e-10
0.00305105 	32.0174 	-0.029264 	2.89618e-10
0.00330531 	32.0302 	-0.0292122 	-4.31084e-06
0.00355956 	32.0444 	-0.0294164 	-1.32086e-05
0.00381381 	32.0586 	-0.0296206 	-2.21063e-05
0.00406807 	32.0728 	-0.0298247 	-1.56753e-05
0.00432232 	32.0869 	-0.0300289 	-6.79367e-06
0.00457658 	32.1017 	-0.0303176 	3.31112e-10
0.00483083 	32.1185 	-0.0308814 	1.79445e-10
0.00508509 	32.1353 	-0.0314451 	2.77787e-11
0.00533934 	32.1523 	-0.0313882 	1.24625e-10
0.00559359 	32.1692 	-0.0311922 	2.77193e-10
0.00584785 	32.1863 	-0.0312502 	-7.60625e-06
0.0061021 	32.2035 	-0.0316793 	-2.63214e-05
0.00635636 	32.2208 	-0.0321084 	-4.50366e-05
0.00661061 	32.2381 	-0.0325375 	-3.49634e-05
0.00686486 	32.2553 	-0.0329666 	-1.63048e-05
0.00711912 	32.2726 	-0.0334382 	3.46699e-10
0.00737337 	32.2902 	-0.0342044 	1.94284e-10
0.00762763 	32.3078 	-0.0349707 	4.18694e-11
0.00788188 	32.3256 	-0.0350856 	1.10896e-10
0.00813614 	32.3435 	-0.0349538 	2.63795e-10
0.00839039 	32.3615 	-0.0350755 	-9.12541e-06
0.00864464 	32.3798 	-0.0356979 	-3.62811e-05
0.0088989 	32.3981 	-0.0363203 	-6.34368e-05
0.00915315 	32.4164 	-0.0369427 	-5.38258e-05
0.00940741 	32.4347 	-0.037565 	-2.67848e-05
0.00966166 	32.453 	-0.0381906 	3.61282e-10
0.00991592 	32.4718 	-0.0391492 	2.08599e-10
0.0101702 	32.4905 	-0.0401077 	5.5916e-11
0.0104244 	32.5095 	-0.0403832 	9.76254e-11
0.0106787 	32.5286 	-0.0402641 	2.51663e-10
0.0109329 	32.548 	-0.0403874 	-9.15895e-06
0.0111872 	32.5682 	-0.0411552 	-4.26629e-05
0.0114414 	32.5883 	-0.0419231 	-7.61668e-05
0.0116957 	32.6085 	-0.0426909 	-7.04767e-05
0.0119499 	32.6286 	-0.0434588 	-3.71546e-05
0.0122042 	32.6488 	-0.0442266 	-3.83257e-06
0.0124585 	32.6699 	-0.0453225 	2.24132e-10
0.0127127 	32.6911 	-0.0464609 	7.03741e-11
0.012967 	32.7125 	-0.0469007 	8.41626e-11
0.0132212 	32.7341 	-0.0467509 	2.39356e-10
0.0134755 	32.756 	-0.0468245 	-8.31975e-06
0.0137297 	32.7791 	-0.0476976 	-4.64071e-05
0.013984 	32.8022 	-0.0485707 	-8.44945e-05
0.0142382 	32.8253 	-0.0494438 	-8.5029e-05
0.0144925 	32.8484 	-0.0503169 	-4.71939e-05
0.0147467 	32.8715 	-0.05119 	-9.3589e-06
0.015001 	32.8957 	-0.05239 	2.3988e-10
0.0152553 	32.9202 	-0.0536976 	8.50294e-11
0.0155095 	32.945 	-0.05432 	7.02615e-11
0.0157638 	32.97 	-0.0541079 	2.26089e-10
0.016018 	32.9953 	-0.0540947 	-7.08705e-06
0.0162723 	33.022 	-0.0550437 	-4.84635e-05
0.0165265 	33.0487 	-0.0559926 	-8.984e-05
0.0167808 	33.0754 	-0.0569415 	-9.80195e-05
0.017035 	33.1021 	-0.0578904 	-5.69664e-05
0.0172893 	33.1288 	-0.0588394 	-1.59133e-05
0.0175435 	33.1566 	-0.0601065 	2.5496e-10
0.0177978 	33.185 	-0.061575 	9.95396e-11
0.0180521 	33.2136 	-0.0624091 	5.63048e-11
0.0183063 	33.2424 	-0.062113 	2.12905e-10
0.0185606 	33.2716 	-0.0619887 	-5.77912e-06
0.0188148 	33.3023 	-0.0629939 	-4.9579e-05
0.0190691 	33.333 	-0.0639991 	-9.33789e-05
0.0193233 	33.3637 	-0.0650043 	-0.000110072
0.0195776 	33.3944 	-0.0660095 	-6.66661e-05
0.0198318 	33.4251 	-0.0670146 	-2.32604e-05
0.0200861 	33.4567 	-0.0683074 	2.70371e-10
0.0203403 	33.4892 	-0.0699321 	1.14243e-10
0.0205946 	33.5218 	-0.0710152 	4.22538e-11
0.0208488 	33.5548 	-0.0706207 	1.99754e-10
0.0211031 	33.5881 	-0.0703714 	-4.59192e-06
0.0213574 	33.623 	-0.0714211 	-5.0294e-05
0.0216116 	33.6579 	-0.0724709 	-9.5996e-05
0.0218659 	33.6929 	-0.0735207 	-0.000121787
0.0221201 	33.7278 	-0.0745704 	-7.65504e-05
0.0223744 	33.7628 	-0.0756202 	-3.13136e-05
0.0226286 	33.7983 	-0.0768946 	2.8613e-10
0.0228829 	33.8351 	-0.0786739 	1.29166e-10
0.0231371 	33.872 	-0.0800492 	2.80754e-11
0.0233914 	33.9094 	-0.0795464 	1.86606e-10
0.0236456 	33.9469 	-0.079166 	-3.64217e-06
0.0238999 	33.9863 	-0.0802546 	-5.09833e-05
0.0241542 	34.0256 	-0.0813432 	-9.83243e-05
0.0244084 	34.065 	-0.0824318 	-0.000133705
0.0246627 	34.1044 	-0.0835204 	-8.69007e-05
0.0249169 	34.1437 	-0.084609 	-4.00968e-05
0.0251712 	34.1834 	-0.0858189 	3.02273e-10
0.0254254 	34.2247 	-0.0877547 	1.44344e-10
0.0256797 	34.2661 	-0.0894704 	1.3736e-11
0.0259339 	34.3079 	-0.088848 	1.73428e-10
0.0261882 	34.35 	-0.088333 	-3.00477e-06
0.0264424 	34.3939 	-0.08946 	-5.19524e-05
0.0266967 	34.4379 	-0.0905869 	-0.0001009
0.026951 	34.4818 	-0.0917139 	-0.000146429
0.0272052 	34.5258 	-0.0928408 	-9.80935e-05
0.0274595 	34.5698 	-0.0939678 	-4.97581e-05
0.0277137 	34.6137 	-0.0950947 	-1.42272e-06
0.027968 	34.6597 	-0.0971682 	1.59812e-10
0.0282222 	34.7057 	-0.0992704 	7.88549e-13
0.0284765 	34.7523 	-0.0985112 	1.60184e-10
0.0287307 	34.7989 	-0.0978425 	-2.72908e-06
0.028985 	34.8477 	-0.09901 	-5.33577e-05
0.0292392 	34.8964 	-0.100178 	-0.000103986
0.0294935 	34.9452 	-0.101345 	-0.000154615
0.0297477 	34.9939 	-0.102513 	-0.000110387
0.030002 	35.0427 	-0.10368 	-6.04497e-05
0.0302563 	35.0914 	-0.104848 	-1.05126e-05
0.0305105 	35.1418 	-0.106911 	1.756e-10
0.0307648 	35.1927 	-0.109213 	1.53543e-11
0.031019 	35.2441 	-0.108538 	1.4745e-10
0.0312733 	35.2956 	-0.107667 	-2.85222e-06
0.0315275 	35.3493 	-0.108876 	-5.51302e-05
0.0317818 	35.403 	-0.110084 	-0.000107408
0.032036 	35.4567 	-0.111292 	-0.000159686
0.0322903 	35.5104 	-0.112501 	-0.000123613
0.0325445 	35.5641 	-0.113709 	-7.21088e-05
0.0327988 	35.6178 	-0.114918 	-2.06042e-05
0.0330531 	35.6729 	-0.116941 	1.92539e-10
0.0333073 	35.7288 	-0.119507 	3.02713e-11
0.0335616 	35.7852 	-0.118977 	1.33363e-10
0.0338158 	35.8418 	-0.117894 	-3.41201e-06
0.0340701 	35.9007 	-0.119141 	-5.72046e-05
0.0343243 	35.9595 	-0.120388 	-0.000110997
0.0345786 	36.0183 	-0.121635 	-0.00016479
0.0348328 	36.0772 	-0.122882 	-0.000137535
0.0350871 	36.136 	-0.124129 	-8.4599e-05
0.0353413 	36.1949 	-0.125376 	-3.16627e-05
0.0355956 	36.2547 	-0.127271 	2.08271e-10
0.0358498 	36.3158 	-0.13013 	4.51967e-11
0.0361041 	36.3774 	-0.129835 	1.20205e-10
0.0363584 	36.4393 	-0.128555 	-4.44687e-06
0.0366126 	36.5035 	-0.129838 	-5.9623e-05
0.0368669 	36.5677 	-0.131121 	-0.000114799
0.0371211 	36.6319 	-0.132404 	-0.000169975
0.0373754 	36.6961 	-0.133688 	-0.000152126
0.0376296 	36.7603 	-0.134971 	-9.78894e-05
0.0378839 	36.8245 	-0.136254 	-4.36527e-05
0.0381381 	36.8891 	-0.137903 	2.26128e-10
0.0383924 	36.9557 	-0.141065 	6.07825e-11
0.0386466 	37.0226 	-0.141119 	1.06655e-10
0.0389009 	37.0901 	-0.139691 	-5.99279e-06
0.0391552 	37.1599 	-0.141008 	-6.24568e-05
0.0394094 	37.2296 	-0.142325 	-0.000118921
0.0396637 	37.2993 	-0.143642 	-0.000175385
0.0399179 	37.3691 	-0.144959 	-0.000167451
0.0401722 	37.4388 	-0.146277 	-0.00011201
0.0404264 	37.5085 	-0.147594 	-5.65688e-05
0.0406807 	37.5783 	-0.148911 	-1.12761e-06
0.0409349 	37.6504 	-0.152315 	7.67622e-11
0.0411892 	37.723 	-0.152811 	9.28928e-11
0.0414434 	37.7962 	-0.151285 	-8.08666e-06
0.0416977 	37.8717 	-0.152635 	-6.58015e-05
0.041952 	37.9473 	-0.153986 	-0.000123516
0.0422062 	38.0228 	-0.155337 	-0.000181231
0.0424605 	38.0983 	-0.156688 	-0.000183674
0.0427147 	38.1738 	-0.158038 	-0.000127066
0.042969 	38.2493 	-0.159389 	-7.04586e-05
0.0432232 	38.3248 	-0.16074 	-1.3851e-05
0.0434775 	38.4022 	-0.163883 	9.33229e-11
0.0437317 	38.4806 	-0.164914 	7.84349e-11
0.043986 	38.5599 	-0.16334 	-1.07647e-05
0.0442402 	38.6414 	-0.164724 	-6.97177e-05
0.0444945 	38.7229 	-0.166109 	-0.000128671
0.0447487 	38.8044 	-0.167493 	-0.000187624
0.045003 	38.8859 	-0.168878 	-0.000200888
0.0452573 	38.9673 	-0.170262 	-0.000143128
0.0455115 	39.0488 	-0.171646 	-8.53671e-05
0.0457658 	39.1303 	-0.173031 	-2.76066e-05
0.04602 	39.2132 	-0.175778 	1.10008e-10
0.0462743 	39.2976 	-0.177433 	6.34676e-11
0.0465285 	39.3832 	-0.17587 	-1.40524e-05
0.0467828 	39.4709 	-0.177287 	-7.41931e-05
0.047037 	39.5587 	-0.178704 	-0.000134334
0.0472913 	39.6464 	-0.180121 	-0.000194474
0.0475455 	39.7341 	-0.181538 	-0.000218983
0.0477998 	39.8218 	-0.182956 	-0.00016012
0.0480541 	39.9096 	-0.184373 	-0.000101257
0.0483083 	39.9973 	-0.18579 	-4.23937e-05
0.0485626 	40.0858 	-0.188004 	1.26769e-10
0.0488168 	40.1765 	-0.190371 	4.81962e-11
0.0490711 	40.2686 	-0.18888 	-1.79597e-05
0.0493253 	40.3628 	-0.190328 	-7.91864e-05
0.0495796 	40.457 	-0.191776 	-0.000140413
0.0498338 	40.5512 	-0.193224 	-0.00020164
0.0500881 	40.6454 	-0.194672 	-0.000237757
0.0503423 	40.7396 	-0.19612 	-0.000177891
0.0505966 	40.8339 	-0.197567 	-0.000118026
0.0508509 	40.9281 	-0.199015 	-5.81602e-05
0.0511051 	41.0223 	-0.200551 	1.43802e-10
0.0513594 	41.1195 	-0.203719 	3.27384e-11
0.0516136 	41.2185 	-0.202367 	-2.24777e-05
0.0518679 	41.3195 	-0.203842 	-8.46319e-05
0.0521221 	41.4204 	-0.205318 	-0.000146786
0.0523764 	41.5213 	-0.206793 	-0.00020894
0.0526306 	41.6223 	-0.208268 	-0.000256932
0.0528849 	41.7232 	-0.209744 	-0.000196218
0.0531391 	41.8242 	-0.211219 	-0.000135505
0.0533934 	41.9251 	-0.212694 	-7.47919e-05
0.0536476 	42.026 	-0.21417 	-1.40787e-05
0.0539019 	42.1293 	-0.217456 	1.68396e-11
0.0541562 	42.2355 	-0.216315 	-2.75687e-05
0.0544104 	42.3434 	-0.217813 	-9.04254e-05
0.0546647 	42.4513 	-0.219311 	-0.000153282
0.0549189 	42.5592 	-0.220809 	-0.000216139
0.0551732 	42.6671 	-0.222307 	-0.00027612
0.0554274 	42.7751 	-0.223805 	-0.000214778
0.0556817 	42.883 	-0.225303 	-0.000153436
0.0559359 	42.9909 	-0.226801 	-9.2094e-05
0.0561902 	43.0988 	-0.228299 	-3.07519e-05
0.0564444 	43.2083 	-0.231548 	6.1864e-13
0.0566987 	43.3219 	-0.230693 	-3.31556e-05
0.056953 	43.4371 	-0.232207 	-9.64098e-05
0.0572072 	43.5522 	-0.233721 	-0.000159664
0.0574615 	43.6674 	-0.235235 	-0.000222918
0.0577157 	43.7826 	-0.236749 	-0.000286172
0.05797 	43.8977 	-0.238263 	-0.000233117
0.0582242 	44.0129 	-0.239778 	-0.000171442
0.0584785 	44.1281 	-0.241292 	-0.000109766
0.0587327 	44.2432 	-0.242806 	-4.80913e-05
0.058987 	44.3591 	-0.245162 	1.56955e-11
0.0592412 	44.4804 	-0.245456 	-3.91962e-05
0.0594955 	44.603 	-0.246981 	-0.000102592
0.0597497 	44.7257 	-0.248506 	-0.000165987
0.060004 	44.8483 	-0.250031 	-0.000229383
0.0602583 	44.971 	-0.251556 	-0.000292778
0.0605125 	45.0937 	-0.253081 	-0.000251188
0.0607668 	45.2163 	-0.254606 	-0.000189427
0.061021 	45.339 	-0.256131 	-0.000127666
0.0612753 	45.4616 	-0.257655 	-6.59044e-05
0.0615295 	45.5843 	-0.25918 	-4.14322e-06
0.0617838 	45.7133 	-0.260572 	-4.5625e-05
0.062038 	45.8437 	-0.262103 	-0.000108919
0.0622923 	45.9741 	-0.263633 	-0.000172213
0.0625465 	46.1045 	-0.265164 	-0.000235508
0.0628008 	46.2349 	-0.266694 	-0.000298802
0.0630551 	46.3652 	-0.268129 	-0.000267747
0.0633093 	46.4955 	-0.269478 	-0.000204094
0.0635636 	46.6258 	-0.270828 	-0.000140442
0.0638178 	46.7561 	-0.272178 	-7.67887e-05
0.0640721 	46.8864 	-0.273528 	-1.31358e-05
0.0643263 	47.0225 	-0.274944 	-4.11533e-05
0.0645806 	47.1607 	-0.276278 	-0.000101965
0.0648348 	47.299 	-0.277613 	-0.000162776
0.0650891 	47.4372 	-0.278948 	-0.000223587
0.0653433 	47.5754 	-0.280283 	-0.000284399
0.0655976 	47.7137 	-0.281618 	-0.000263581
0.0658519 	47.8519 	-0.282952 	-0.000200374
0.0661061 	47.9901 	-0.284287 	-0.000137167
0.0663604 	48.1284 	-0.285622 	-7.39592e-05
0.0666146 	48.2666 	-0.286957 	-1.07519e-05
0.0668689 	48.4101 	-0.288532 	-2.7959e-05
0.0671231 	48.5565 	-0.289866 	-8.88772e-05
0.0673774 	48.7029 	-0.291199 	-0.000149795
0.0676316 	48.8493 	-0.292533 	-0.000210714
0.0678859 	48.9957 	-0.293867 	-0.000271632
0.0681401 	49.1421 	-0.2952 	-0.000261684
0.0683944 	49.2886 	-0.296534 	-0.000198309
0.0686486 	49.435 	-0.297868 	-0.000134934
0.0689029 	49.5814 	-0.299201 	-7.15585e-05
0.0691572 	49.7278 	-0.300535 	-8.18341e-06
0.0694114 	49.8789 	-0.30232 	-1.44989e-05
0.0696657 	50.0337 	-0.303661 	-7.58356e-05
0.0699199 	50.1886 	-0.305003 	-0.000137172
0.0701742 	50.3434 	-0.306344 	-0.000198509
0.0704284 	50.4983 	-0.307685 	-0.000259846
0.0706827 	50.6531 	-0.309026 	-0.000260784
0.0709369 	50.808 	-0.310367 	-0.000196924
0.0711912 	50.9628 	-0.311709 	-0.000133064
0.0714454 	51.1177 	-0.31305 	-6.92036e-05
0.0716997 	51.2725 	-0.314391 	-5.3436e-06
0.071954 	51.4314 	-0.316445 	-5.34212e-07
0.0722082 	51.5949 	-0.317703 	-5.82405e-05
0.0724625 	51.7584 	-0.318961 	-0.000115947
0.0727167 	51.9219 	-0.320219 	-0.000173653
0.072971 	52.0854 	-0.321477 	-0.000231359
0.0732252 	52.2489 	-0.322735 	-0.000242524
0.0734795 	52.4124 	-0.323993 	-0.000182405
0.0737337 	52.5759 	-0.325252 	-0.000122286
0.073988 	52.7394 	-0.32651 	-6.21669e-05
0.0742422 	52.903 	-0.327768 	-2.04789e-06
0.0744965 	53.0706 	-0.329848 	6.34119e-05
0.0747508 	53.2421 	-0.331188 	-4.19738e-05
0.075005 	53.4143 	-0.332363 	-9.59316e-05
0.0752593 	53.5866 	-0.333538 	-0.000149889
0.0755135 	53.7588 	-0.334712 	-0.000203847
0.0757678 	53.9311 	-0.335887 	-0.00022388
0.076022 	54.1033 	-0.337061 	-0.000167638
0.0762763 	54.2756 	-0.338236 	-0.000111396
0.0765305 	54.4478 	-0.33941 	-5.51546e-05
0.0767848 	54.6201 	-0.34059 	5.96502e-06
0.077039 	54.7964 	-0.342429 	0.000136701
0.0772933 	54.9758 	-0.344375 	-2.8966e-05
0.0775475 	55.1567 	-0.345544 	-8.23389e-05
0.0778018 	55.3377 	-0.346713 	-0.000135712
0.0780561 	55.5186 	-0.347882 	-0.000189085
0.0783103 	55.6995 	-0.349052 	-0.000218371
0.0785646 	55.8805 	-0.350221 	-0.00016272
0.0788188 	56.0614 	-0.35139 	-0.000107069
0.0790731 	56.2424 	-0.352559 	-5.14185e-05
0.0793273 	56.4236 	-0.353663 	2.48788e-05
0.0795816 	56.6084 	-0.354715 	0.000220484
0.0798358 	56.7955 	-0.357789 	-1.53127e-05
0.0800901 	56.985 	-0.358897 	-6.56548e-05
0.0803443 	57.1745 	-0.360005 	-0.000115997
0.0805986 	57.364 	-0.361114 	-0.000166339
0.0808529 	57.5535 	-0.362222 	-0.000202879
0.0811071 	57.743 	-0.363331 	-0.00015038
0.0813614 	57.9325 	-0.364439 	-9.78817e-05
0.0816156 	58.122 	-0.365547 	-4.5383e-05
0.0818699 	58.3119 	-0.366366 	4.71611e-05
0.0821241 	58.5051 	-0.366028 	0.000315822
0.0823784 	58.6998 	-0.370736 	-2.82284e-06
0.0826326 	58.8977 	-0.371727 	-4.77216e-05
0.0828869 	59.0955 	-0.372718 	-9.26204e-05
0.0831411 	59.2933 	-0.37371 	-0.000137519
0.0833954 	59.4912 	-0.374701 	-0.00017805
0.0836496 	59.689 	-0.375692 	-0.00013123
0.0839039 	59.8868 	-0.376684 	-8.44096e-05
0.0841582 	60.0847 	-0.377675 	-3.75894e-05
0.0844124 	60.2832 	-0.377988 	7.25983e-05
0.0846667 	60.4845 	-0.375766 	0.000421083
0.0849209 	60.6871 	-0.381631 	6.43837e-05
0.0851752 	60.8924 	-0.383358 	-3.02814e-05
0.0854294 	61.0983 	-0.384174 	-6.72327e-05
0.0856837 	61.3042 	-0.384989 	-0.000104184
0.0859379 	61.5101 	-0.385805 	-0.000141135
0.0861922 	61.7159 	-0.38662 	-0.000105546
0.0864464 	61.9218 	-0.387436 	-6.70239e-05
0.0867007 	62.1277 	-0.388252 	-2.85016e-05
0.086955 	62.3345 	-0.387852 	0.000100095
0.0872092 	62.5437 	-0.383997 	0.00048489
0.0874635 	62.7541 	-0.389767 	0.000158507
0.0877177 	62.9663 	-0.392802 	-1.44179e-05
0.087972 	63.1799 	-0.393348 	-3.94986e-05
0.0882262 	63.3934 	-0.393894 	-6.45793e-05
0.0884805 	63.607 	-0.394441 	-8.96599e-05
0.0887347 	63.8205 	-0.394987 	-6.99451e-05
0.088989 	64.0341 	-0.395533 	-4.3811e-05
0.0892432 	64.2476 	-0.396079 	-1.7677e-05
0.0894975 	64.4622 	-0.394817 	0.000126859
0.0897518 	64.679 	-0.389773 	0.00051889
0.090006 	64.8967 	-0.394648 	0.000254655
0.0902603 	65.1155 	-0.399185 	-4.70368e-06
0.0905145 	65.3361 	-0.399485 	-1.89616e-05
0.0907688 	65.5568 	-0.399785 	-3.32196e-05
0.091023 	65.7775 	-0.400084 	-4.74775e-05
0.0912773 	65.9982 	-0.400384 	-3.87977e-05
0.0915315 	66.2189 	-0.400684 	-2.39521e-05
0.0917858 	66.4396 	-0.400984 	-9.10654e-06
0.09204 	66.6615 	-0.39887 	0.000152473
0.0922943 	66.8852 	-0.392928 	0.000546899
0.0925485 	67.1095 	-0.396685 	0.000349826
0.0928028 	67.3342 	-0.402908 	-3.60849e-07
0.0930571 	67.5613 	-0.40298 	-4.57424e-06
0.0933113 	67.7883 	-0.403051 	-8.78764e-06
0.0935656 	68.0153 	-0.403123 	-1.3001e-05
0.0938198 	68.2423 	-0.403195 	-1.11843e-05
0.0940741 	68.4694 	-0.403267 	-6.80178e-06
0.0943283 	68.6964 	-0.403338 	-2.41923e-06
0.0945826 	68.9246 	-0.400321 	0.000177511
0.0948368 	69.1543 	-0.393495 	0.000573798
0.0950911 	69.3844 	-0.395801 	0.000445013
0.0953453 	69.6147 	-0.40256 	6.02538e-05
0.0955996 	69.8467 	-0.403401 	8.56494e-06
0.0958539 	70.079 	-0.403143 	1.87199e-05
0.0961081 	70.3113 	-0.402886 	2.88749e-05
0.0963624 	70.5435 	-0.402628 	2.6304e-05
0.0966166 	70.7758 	-0.40237 	1.57552e-05
0.0968709 	71.0081 	-0.402113 	5.20643e-06
0.0971251 	71.2415 	-0.398075 	0.000199501
0.0973794 	71.4759 	-0.390355 	0.000593409
0.0976336 	71.7106 	-0.39096 	0.000534362
0.0978879 	71.9455 	-0.397518 	0.000151486
0.0981421 	72.1811 	-0.399727 	1.61648e-05
0.0983964 	72.4172 	-0.399089 	4.2912e-05
0.0986507 	72.6533 	-0.39845 	6.96591e-05
0.0989049 	72.8894 	-0.397812 	6.76621e-05
0.0991592 	73.1255 	-0.397174 	3.99225e-05
0.0994134 	73.3617 	-0.396535 	1.2183e-05
0.0996677 	73.5986 	-0.391447 	0.000216272
0.0999219 	73.8361 	-0.382874 	0.000601907
0.100176 	74.0738 	-0.381658 	0.000611817
0.10043 	74.3116 	-0.387987 	0.000236477
0.100685 	74.5495 	-0.391596 	1.60904e-05
0.100939 	74.7877 	-0.390575 	5.95811e-05
0.101193 	75.0258 	-0.389554 	0.000103072
0.101447 	75.2639 	-0.388533 	0.000107612
0.101702 	75.5021 	-0.387511 	6.25949e-05
0.101956 	75.7402 	-0.38649 	1.75773e-05
0.10221 	75.9786 	-0.380381 	0.000225639
0.102464 	76.2173 	-0.371011 	0.00059581
0.102719 	76.4559 	-0.36792 	0.000670561
0.102973 	76.6947 	-0.374084 	0.0003097
0.103227 	76.9333 	-0.379189 	7.98694e-06
0.103481 	77.1713 	-0.377877 	6.43203e-05
0.103736 	77.4093 	-0.376565 	0.000120654
0.10399 	77.6473 	-0.375253 	0.000136658
0.104244 	77.8853 	-0.373941 	7.84772e-05
0.104498 	78.1233 	-0.372629 	2.02968e-05
0.104753 	78.3609 	-0.365588 	0.000231172
0.105007 	78.5983 	-0.355477 	0.000586195
0.105261 	78.8357 	-0.350487 	0.000720721
0.105516 	79.0731 	-0.356674 	0.000373993
0.10577 	79.3105 	-0.362861 	2.72662e-05
0.106024 	79.546 	-0.361804 	6.67175e-05
0.106278 	79.7815 	-0.360129 	0.000139129
0.106533 	80.0169 	-0.358453 	0.000172759
0.106787 	80.2524 	-0.356778 	9.81648e-05
0.107041 	80.4878 	-0.355103 	2.35701e-05
0.107295 	80.7221 	-0.346962 	0.000228514
0.10755 	80.9557 	-0.335833 	0.000562586
0.107804 	81.1894 	-0.328548 	0.000748578
0.108058 	81.4229 	-0.334576 	0.000421637
0.108312 	81.6564 	-0.340603 	9.46971e-05
0.108567 	81.8876 	-0.340865 	6.44117e-05
0.108821 	82.1179 	-0.338776 	0.000155087
0.109075 	82.3482 	-0.336686 	0.00021361
0.109329 	82.5785 	-0.334597 	0.000120469
0.109584 	82.8088 	-0.332508 	2.73274e-05
0.109838 	83.0369 	-0.323427 	0.000213075
0.110092 	83.2642 	-0.311444 	0.000514622
0.110346 	83.4914 	-0.301871 	0.000736406
0.110601 	83.7183 	-0.307938 	0.000440617
0.110855 	83.9452 	-0.314005 	0.000144827
0.111109 	84.1698 	-0.315779 	5.21226e-05
0.111363 	84.3921 	-0.313434 	0.000154249
0.111618 	84.6145 	-0.31109 	0.000238707
0.111872 	84.8368 	-0.308745 	0.000134135
0.112126 	85.0592 	-0.306401 	2.95621e-05
0.11238 	85.2783 	-0.296517 	0.000194681
0.112635 	85.4962 	-0.283661 	0.000466085
0.112889 	85.7141 	-0.27162 	0.000714477
0.113143 	85.9315 	-0.277832 	0.000447584
0.113397 	86.1489 	-0.284043 	0.000180692
0.113652 	86.3643 	-0.287385 	3.77133e-05
0.113906 	86.5756 	-0.284711 	0.000154478
0.11416 	86.7868 	-0.282038 	0.000271243
0.114414 	86.9981 	-0.279364 	0.000153154
0.114669 	87.2094 	-0.27669 	3.40021e-05
0.114923 	87.4164 	-0.265922 	0.000172158
0.115177 	87.6217 	-0.251921 	0.000413062
0.115431 	87.827 	-0.237921 	0.000653965
0.115686 	88.0316 	-0.243304 	0.000439539
0.11594 	88.2362 	-0.249672 	0.000201996
0.116194 	88.4397 	-0.254634 	1.97712e-05
0.116448 	88.6365 	-0.251613 	0.000151888
0.116703 	88.8334 	-0.248592 	0.000284005
0.116957 	89.0303 	-0.245571 	0.000174995
0.117211 	89.2271 	-0.24255 	4.06725e-05
0.117465 	89.4187 	-0.231015 	0.000147188
0.11772 	89.608 	-0.215783 	0.0003583
0.117974 	89.7972 	-0.200551 	0.000569411
0.118228 	89.9857 	-0.204094 	0.000419275
0.118482 	90.1741 	-0.210684 	0.000210507
0.118737 	90.3624 	-0.217274 	1.7386e-06
0.118991 	90.5415 	-0.214122 	0.000140305
0.119245 	90.7205 	-0.210889 	0.000281787
0.119499 	90.8995 	-0.207656 	0.000191458
0.119754 	91.0785 	-0.204423 	4.81722e-05
0.120008 	91.2514 	-0.192558 	0.000124719
0.120262 	91.4211 	-0.176322 	0.000312603
0.120517 	91.5909 	-0.160086 	0.000500487
0.120771 	91.7598 	-0.161673 	0.000400649
0.121025 	91.9284 	-0.168619 	0.000214286
0.121279 	92.0971 	-0.175566 	2.79242e-05
0.121534 	92.2565 	-0.173752 	0.000124905
0.121788 	92.4142 	-0.170395 	0.000271824
0.122042 	92.572 	-0.167037 	0.000205474
0.122296 	92.7297 	-0.163679 	5.72837e-05
0.122551 	92.8809 	-0.151965 	0.0001019
0.122805 	93.0278 	-0.134985 	0.000268009
0.123059 	93.1747 	-0.118005 	0.000434119
0.123313 	93.3208 	-0.117542 	0.000375858
0.123568 	93.4665 	-0.124958 	0.00021058
0.123822 	93.6122 	-0.132374 	4.5302e-05
0.124076 	93.749 	-0.131997 	0.000105368
0.12433 	93.8825 	-0.128678 	0.000250521
0.124585 	94.016 	-0.125359 	0.000212071
0.124839 	94.1495 	-0.122039 	6.6262e-05
0.125093 	94.2764 	-0.111062 	8.02597e-05
0.125347 	94.3977 	-0.0937054 	0.000227374
0.125602 	94.5191 	-0.0763488 	0.000374488
0.125856 	94.6396 	-0.0738814 	0.000349604
0.12611 	94.7597 	-0.0819686 	0.000202791
0.126364 	94.8797 	-0.0900558 	5.59791e-05
0.126619 	94.9917 	-0.0912223 	8.37367e-05
0.126873 	95.0986 	-0.0881238 	0.000219078
0.127127 	95.2056 	-0.0850253 	0.00020841
0.127381 	95.3125 	-0.0819268 	7.29515e-05
0.127636 	95.4134 	-0.0722111 	6.18167e-05
0.12789 	95.5073 	-0.0547725 	0.000195778
0.128144 	95.6011 	-0.0373339 	0.000329739
0.128398 	95.6944 	-0.0328815 	0.000331548
0.128653 	95.787 	-0.0417728 	0.000197567
0.128907 	95.8796 	-0.050664 	6.35859e-05
0.129161 	95.9651 	-0.0534286 	6.34736e-05
0.129415 	96.0442 	-0.0506594 	0.00018428
0.12967 	96.1234 	-0.0478901 	0.000197096
0.129924 	96.2026 	-0.0451208 	7.64426e-05
0.130178 	96.2768 	-0.0370344 	4.56279e-05
0.130432 	96.3424 	-0.0197544 	0.000170147
0.130687 	96.4081 	-0.0024745 	0.000294665
0.130941 	96.4733 	0.00395852 	0.00031919
0.131195 	96.5378 	-0.00579658 	0.000194482
0.131449 	96.6024 	-0.0155517 	6.97733e-05
0.131704 	96.6611 	-0.0199641 	4.55311e-05
0.131958 	96.7123 	-0.0175907 	0.00014889
0.132212 	96.7636 	-0.0152173 	0.000178908
0.132466 	96.8149 	-0.0128439 	7.58317e-05
0.132721 	96.8626 	-0.00661711 	3.10642e-05
0.132975 	96.9006 	0.0103349 	0.000148586
0.133229 	96.9385 	0.0272869 	0.000266109
0.133483 	96.9762 	0.0357336 	0.000310857
0.133738 	97.0132 	0.0251791 	0.000193028
0.133992 	97.0502 	0.0146246 	7.51988e-05
0.134246 	97.0826 	0.00860633 	3.11638e-05
0.134501 	97.107 	0.0105895 	0.000117298
0.134755 	97.1313 	0.0125727 	0.000158165
0.135009 	97.1557 	0.0145559 	7.23845e-05
0.135263 	97.178 	0.0188058 	1.7092e-05
0.135518 	97.1896 	0.0353036 	0.000126536
0.135772 	97.2013 	0.0518015 	0.000235981
0.136026 	97.2127 	0.0622514 	0.000297794
0.13628 	97.2236 	0.0509052 	0.00018795
0.136535 	97.2345 	0.039559 	7.81047e-05
0.136789 	97.242 	0.0319634 	2.04125e-05
0.137043 	97.2411 	0.0335968 	9.10527e-05
0.137297 	97.2402 	0.0352303 	0.000137547
0.137552 	97.2393 	0.0368638 	6.72921e-05
0.137806 	97.2379 	0.0391101 	4.23259e-06
0.13806 	97.2251 	0.0552729 	0.000104572
0.138314 	97.2124 	0.0714358 	0.000204911
0.138569 	97.1995 	0.0840751 	0.000280065
0.138823 	97.1862 	0.0720952 	0.000179257
0.139077 	97.1729 	0.0601152 	7.8448e-05
0.139331 	97.1572 	0.0510918 	1.28597e-05
0.139586 	97.1331 	0.0524407 	7.08324e-05
0.13984 	97.109 	0.0537896 	0.000119622
0.140094 	97.0848 	0.0551385 	6.2041e-05
0.140348 	97.0607 	0.0564874 	4.46035e-06
0.140603 	97.0266 	0.0713138 	8.66482e-05
0.140857 	96.9916 	0.0872718 	0.000180571
0.141111 	96.9566 	0.102288 	0.000268237
0.141365 	96.9213 	0.0898762 	0.000173782
0.14162 	96.8859 	0.0774649 	7.93263e-05
0.141874 	96.8489 	0.0672319 	8.12393e-06
0.142128 	96.8037 	0.0684201 	5.88408e-05
0.142382 	96.7586 	0.0696082 	0.000109558
0.142637 	96.7134 	0.0707964 	6.04986e-05
0.142891 	96.6682 	0.0719846 	1.01886e-05
0.143145 	96.6152 	0.0849019 	7.05245e-05
0.143399 	96.5602 	0.100798 	0.000158957
0.143654 	96.5052 	0.116693 	0.000247389
0.143908 	96.4499 	0.105706 	0.000168798
0.144162 	96.3947 	0.0930409 	7.978e-05
0.144416 	96.3384 	0.0818047 	4.86836e-06
0.144671 	96.2743 	0.0829108 	5.17742e-05
0.144925 	96.2102 	0.0840168 	9.86801e-05
0.145179 	96.1461 	0.0851228 	6.19356e-05
0.145433 	96.082 	0.0862288 	1.54624e-05
0.145688 	96.0121 	0.0971951 	5.54223e-05
0.145942 	95.9392 	0.113078 	0.000138477
0.146196 	95.8663 	0.12896 	0.000221532
0.14645 	95.7932 	0.120436 	0.000162981
0.146705 	95.7201 	0.10758 	7.92999e-05
0.146959 	95.6466 	0.0954521 	2.31622e-06
0.147213 	95.5656 	0.0965018 	4.65492e-05
0.147467 	95.4846 	0.0975516 	9.07821e-05
0.147722 	95.4036 	0.0986014 	6.42504e-05
0.147976 	95.3226 	0.0996512 	2.0476e-05
0.14823 	95.2375 	0.108602 	4.1547e-05
0.148484 	95.1486 	0.124495 	0.000119606
0.148739 	95.0598 	0.140389 	0.000197665
0.148993 	94.9709 	0.134397 	0.000156989
0.149247 	94.8819 	0.121393 	7.82752e-05
0.149502 	94.7928 	0.108468 	2.35042e-07
0.149756 	94.6969 	0.109473 	4.22899e-05
0.15001 	94.6009 	0.110478 	8.43448e-05
0.150264 	94.5049 	0.111482 	6.68221e-05
0.150519 	94.4089 	0.112487 	2.52483e-05
0.150773 	94.3102 	0.119332 	2.85167e-05
0.151027 	94.2073 	0.13521 	0.000101134
0.151281 	94.1044 	0.151088 	0.000173751
0.151536 	94.0014 	0.147641 	0.000149274
0.15179 	93.8983 	0.134479 	7.59889e-05
0.152044 	93.7953 	0.121318 	2.70368e-06
0.152298 	93.6864 	0.121738 	3.7599e-05
0.152553 	93.5772 	0.122678 	7.66377e-05
0.152807 	93.468 	0.123619 	6.7507e-05
0.153061 	93.3589 	0.124559 	2.89539e-05
0.153315 	93.2482 	0.129203 	1.66148e-05
0.15357 	93.133 	0.145017 	8.3341e-05
0.153824 	93.0177 	0.160831 	0.000150067
0.154078 	92.9025 	0.159915 	0.000139862
0.154332 	92.7872 	0.146562 	7.24722e-05
0.154587 	92.6719 	0.133209 	5.08229e-06
0.154841 	92.5518 	0.132987 	3.21807e-05
0.155095 	92.4312 	0.133835 	6.69857e-05
0.155349 	92.3107 	0.134683 	6.51938e-05
0.155604 	92.1902 	0.135532 	3.08539e-05
0.155858 	92.0691 	0.137888 	6.17459e-06
0.156112 	91.9434 	0.153596 	6.6989e-05
0.156366 	91.8176 	0.169303 	0.000127803
0.156621 	91.6919 	0.170904 	0.000129706
0.156875 	91.5662 	0.157333 	6.8245e-05
0.157129 	91.4405 	0.143761 	6.78386e-06
0.157383 	91.3109 	0.142917 	2.63685e-05
0.157638 	91.1809 	0.143652 	5.6008e-05
0.157892 	91.0508 	0.144387 	5.98783e-05
0.158146 	90.9208 	0.145122 	3.06598e-05
0.1584 	90.7908 	0.145857 	1.44126e-06
0.158655 	90.6566 	0.160697 	5.25598e-05
0.158909 	90.5222 	0.176269 	0.000107846
0.159163 	90.3879 	0.180385 	0.000119765
0.159417 	90.2536 	0.166585 	6.38565e-05
0.159672 	90.1194 	0.152784 	7.9481e-06
0.159926 	89.9822 	0.151346 	2.06279e-05
0.16018 	89.8445 	0.151958 	4.46738e-05
0.160434 	89.7068 	0.152569 	5.21839e-05
0.160689 	89.5692 	0.153181 	2.84978e-05
0.160943 	89.4315 	0.153792 	4.81164e-06
0.161197 	89.2911 	0.166207 	4.0156e-05
0.161451 	89.15 	0.18163 	9.05476e-05
0.161706 	89.0089 	0.188271 	0.000110702
0.16196 	88.868 	0.174249 	5.97148e-05
0.162214 	88.7271 	0.160227 	8.72766e-06
0.162468 	88.5841 	0.158232 	1.53121e-05
0.162723 	88.4407 	0.15872 	3.37859e-05
0.162977 	88.2972 	0.159208 	4.2908e-05
0.163231 	88.1538 	0.159697 	2.4723e-05
0.163485 	88.0104 	0.160185 	6.53792e-06
0.16374 	87.8653 	0.170141 	2.95981e-05
0.163994 	87.7194 	0.18541 	7.58089e-05
0.164248 	87.5734 	0.194588 	0.000102813
0.164503 	87.4277 	0.180366 	5.60331e-05
0.164757 	87.282 	0.166145 	9.25335e-06
0.165011 	87.135 	0.163629 	1.05739e-05
0.165265 	86.9876 	0.164001 	2.37546e-05
0.16552 	86.8403 	0.164372 	3.26516e-05
0.165774 	86.6929 	0.164743 	1.96846e-05
0.166028 	86.5455 	0.165114 	6.71769e-06
0.166282 	86.3973 	0.17259 	2.05762e-05
0.166537 	86.2483 	0.187703 	6.32681e-05
0.166791 	86.0993 	0.199426 	9.60895e-05
0.167045 	85.9505 	0.185033 	5.28538e-05
0.167299 	85.8018 	0.17064 	9.61812e-06
0.167554 	85.6523 	0.167641 	6.40008e-06
0.167808 	85.5027 	0.167902 	1.46308e-05
0.168062 	85.3531 	0.168164 	2.16762e-05
0.168316 	85.2035 	0.168425 	1.35832e-05
0.168571 	85.0538 	0.168686 	5.49007e-06
0.168825 	84.9039 	0.173672 	1.2773e-05
0.169079 	84.7534 	0.188621 	5.24802e-05
0.169333 	84.6028 	0.202885 	9.03307e-05
0.169588 	84.4527 	0.188352 	5.01036e-05
0.169842 	84.3025 	0.173818 	9.87642e-06
0.170096 	84.1522 	0.17037 	2.76641e-06
0.17035 	84.0018 	0.17053 	6.43261e-06
0.170605 	83.8514 	0.17069 	1.00988e-05
0.170859 	83.701 	0.170849 	6.63045e-06
0.171113 	83.5507 	0.171009 	3.02706e-06
0.171367 	83.4002 	0.173508 	5.94279e-06
0.171622 	83.2496 	0.188287 	4.30788e-05
0.171876 	83.099 	0.203066 	8.02148e-05
0.17213 	82.9488 	0.190441 	4.76948e-05
0.172384 	82.7986 	0.175805 	1.00617e-05
0.172639 	82.6487 	0.17194 	-3.98155e-07
0.172893 	82.4988 	0.172005 	-9.4199e-07
0.173147 	82.349 	0.172071 	-1.48582e-06
0.173401 	82.1992 	0.172137 	-1.06979e-06
0.173656 	82.0494 	0.172202 	-5.35455e-07
0.17391 	81.8996 	0.172268 	-1.11802e-09
0.174164 	81.7501 	0.186823 	3.47803e-05
0.174418 	81.6006 	0.201415 	6.96515e-05
0.174673 	81.4516 	0.191398 	4.55383e-05
0.174927 	81.3025 	0.176696 	1.01924e-05
0.175181 	81.1541 	0.172442 	-3.07158e-06
0.175435 	81.006 	0.172424 	-7.38813e-06
0.17569 	80.8578 	0.172405 	-1.17047e-05
0.175944 	80.7097 	0.172386 	-9.18322e-06
0.176198 	80.5616 	0.172367 	-4.94311e-06
0.176452 	80.4134 	0.172348 	-7.03002e-07
0.176707 	80.266 	0.184354 	2.73138e-05
0.176961 	80.1187 	0.198751 	6.00583e-05
0.177215 	79.9717 	0.191356 	4.34486e-05
0.177469 	79.8249 	0.176638 	1.02531e-05
0.177724 	79.6789 	0.172027 	-5.29334e-06
0.177978 	79.5333 	0.171933 	-1.29526e-05
0.178232 	79.3878 	0.171839 	-2.06119e-05
0.178486 	79.2422 	0.171744 	-1.75221e-05