/*--------------------------------*- C++ -*----------------------------------*\
| =========                 |                                                 |
| \\      /  F ield         | OpenFOAM: The Open Source CFD Toolbox           |
|  \\    /   O peration     | Version:  v3.0+                                 |
|   \\  /    A nd           | Web:      www.OpenFOAM.com                      |
|    \\/     M anipulation  |                                                 |
\*---------------------------------------------------------------------------*/
FoamFile
{
    version     2.0;
    format      ascii;
    class       volVectorField;
    location    "6000";
    object      D;
}
// * * * * * * * * * * * * * * * * * * * * * * * * * * * * * * * * * * * * * //

dimensions      [0 1 0 0 0 0 0];

internalField   nonuniform List<vector> 
27023
(
(6.98753e-07 2.0304e-07 0)
(-6.9924e-07 2.0307e-07 0)
(-5.60858e-07 1.50423e-07 0)
(5.60461e-07 1.50364e-07 0)
(6.89014e-07 1.96044e-07 0)
(-6.89497e-07 1.9608e-07 0)
(-2.51446e-06 1.90252e-06 0)
(2.51333e-06 1.90252e-06 0)
(-3.25697e-07 8.94583e-08 0)
(3.25424e-07 8.92933e-08 0)
(-1.80299e-06 1.08664e-06 0)
(1.80198e-06 1.08671e-06 0)
(-7.62509e-08 6.49294e-08 0)
(7.61797e-08 6.46817e-08 0)
(1.33173e-06 4.47864e-06 0)
(-5.65991e-08 5.00044e-07 0)
(-6.98379e-08 4.72064e-07 0)
(2.60557e-06 3.99277e-06 0)
(-2.60691e-06 3.99281e-06 0)
(-1.83881e-06 3.49045e-06 0)
(1.83749e-06 3.49042e-06 0)
(-2.53699e-06 1.92971e-06 0)
(2.53586e-06 1.92972e-06 0)
(-1.60872e-06 1.60972e-06 0)
(1.60756e-06 1.60974e-06 0)
(-3.50764e-07 3.04144e-06 0)
(1.09651e-06 1.09446e-06 0)
(-9.7705e-07 7.64071e-05 0)
(1.12138e-06 1.12016e-06 0)
(-3.73101e-06 2.02993e-05 0)
(-6.63181e-07 3.25151e-06 0)
(-1.87864e-06 3.52981e-06 0)
(1.87731e-06 3.52979e-06 0)
(2.54597e-06 6.60017e-06 0)
(1.34891e-06 4.54938e-06 0)
(-2.53575e-06 1.02446e-05 0)
(-1.53885e-06 2.69046e-06 0)
(1.53759e-06 2.69045e-06 0)
(-3.34905e-07 9.15066e-08 0)
(3.34658e-07 9.13684e-08 0)
(5.49951e-07 1.47073e-07 0)
(-5.5034e-07 1.47134e-07 0)
(2.314e-06 1.99785e-05 0)
(7.02825e-07 2.02435e-07 0)
(-7.03317e-07 2.02468e-07 0)
(-2.6429e-06 4.03984e-06 0)
(2.64155e-06 4.0398e-06 0)
(-1.66154e-06 2.22588e-06 0)
(1.66033e-06 2.22587e-06 0)
(-2.40441e-06 1.02678e-05 0)
(-1.62612e-06 2.2067e-06 0)
(1.62491e-06 2.20668e-06 0)
(2.6124e-06 6.68672e-06 0)
(-6.59789e-08 3.17737e-08 0)
(6.58807e-08 3.1587e-08 0)
(-2.82025e-06 6.5147e-06 0)
(-2.93063e-06 2.66505e-05 0)
(-1.20346e-05 0.000106486 0)
(1.35632e-06 1.04198e-05 0)
(-5.5589e-07 1.49216e-07 0)
(5.55499e-07 1.49165e-07 0)
(-3.44156e-06 2.0194e-05 0)
(-1.87236e-07 4.09686e-06 0)
(-1.39486e-06 7.28588e-05 0)
(2.5417e-06 2.02032e-05 0)
(-6.20664e-07 3.24325e-06 0)
(-1.75809e-06 4.01455e-06 0)
(-3.87055e-07 3.03244e-06 0)
(1.07588e-06 6.90358e-07 0)
(1.49468e-06 1.04153e-05 0)
(-1.50615e-06 2.69649e-06 0)
(1.50488e-06 2.69648e-06 0)
(-2.16673e-06 2.08768e-06 0)
(2.16555e-06 2.08767e-06 0)
(-3.68686e-06 3.83033e-06 0)
(3.68556e-06 3.83027e-06 0)
(-4.3054e-08 4.63072e-08 0)
(4.3014e-08 4.60952e-08 0)
(3.06096e-06 2.55767e-06 0)
(-3.06216e-06 2.5577e-06 0)
(9.59672e-07 1.99529e-06 0)
(-1.78927e-06 1.07913e-06 0)
(1.78826e-06 1.0792e-06 0)
(-2.14627e-06 2.0961e-06 0)
(2.14509e-06 2.09609e-06 0)
(4.03247e-06 4.07521e-06 0)
(-4.03379e-06 4.07528e-06 0)
(1.75845e-06 4.0089e-06 0)
(-1.30946e-07 7.73624e-05 0)
(1.65483e-05 0.000240685 0)
(-1.60556e-05 0.000240548 0)
(-7.6814e-07 2.20226e-07 0)
(7.676e-07 2.20191e-07 0)
(-6.36529e-07 5.28516e-07 0)
(1.24253e-07 4.95543e-08 0)
(1.55227e-06 1.44895e-06 0)
(-1.55342e-06 1.44893e-06 0)
(9.79524e-07 1.97425e-06 0)
(1.75982e-06 1.55338e-05 0)
(-3.24957e-08 1.24492e-05 0)
(3.48033e-06 2.20851e-05 0)
(1.6633e-05 0.000244155 0)
(-1.58294e-05 0.000244248 0)
(-2.25353e-06 1.76737e-06 0)
(2.2524e-06 1.76739e-06 0)
(-1.99001e-07 1.23673e-05 0)
(-2.52088e-06 2.04278e-06 0)
(2.51972e-06 2.04277e-06 0)
(-2.8362e-06 6.44074e-06 0)
(-1.28735e-05 0.000107871 0)
(-2.60891e-06 2.69741e-05 0)
(-2.51266e-06 2.05356e-06 0)
(2.5115e-06 2.05356e-06 0)
(-1.57619e-06 1.58125e-06 0)
(1.57503e-06 1.58126e-06 0)
(-3.70297e-06 3.88146e-06 0)
(3.70166e-06 3.8814e-06 0)
(-5.97246e-07 2.62886e-08 0)
(1.00542e-06 3.33651e-07 0)
(1.1073e-06 3.02273e-06 0)
(-1.08255e-06 5.29797e-06 0)
(-1.37836e-07 4.08605e-06 0)
(1.7311e-06 9.76182e-07 0)
(-1.73201e-06 9.76131e-07 0)
(-2.71071e-06 2.07767e-06 0)
(2.70956e-06 2.07766e-06 0)
(-7.70817e-07 2.17606e-07 0)
(7.70272e-07 2.17569e-07 0)
(-2.22847e-06 1.73708e-06 0)
(2.22734e-06 1.7371e-06 0)
(1.54357e-06 1.53916e-05 0)
(1.16703e-08 2.36937e-08 0)
(-1.15179e-08 2.31438e-08 0)
(6.52157e-07 3.35472e-06 0)
(-1.01656e-06 5.31151e-06 0)
(4.06078e-06 4.12629e-06 0)
(-4.0621e-06 4.12636e-06 0)
(-3.34681e-07 1.71045e-06 0)
(-2.54024e-06 3.60501e-06 0)
(2.53893e-06 3.60497e-06 0)
(2.28541e-06 1.63177e-06 0)
(-2.2865e-06 1.63174e-06 0)
(2.26852e-07 1.88392e-06 0)
(-2.43492e-06 1.82525e-06 0)
(2.43379e-06 1.82526e-06 0)
(6.54484e-07 3.4041e-06 0)
(2.45241e-06 2.82023e-05 0)
(-1.30966e-06 8.87069e-07 0)
(-1.80253e-06 4.04506e-06 0)
(-1.07701e-06 4.0812e-07 0)
(1.07633e-06 4.0813e-07 0)
(-1.26547e-06 5.15486e-07 0)
(1.26468e-06 5.15505e-07 0)
(2.71053e-06 1.60924e-05 0)
(1.15001e-06 3.01555e-06 0)
(1.22902e-05 0.000143356 0)
(-1.2203e-05 0.000143301 0)
(-1.3935e-06 4.59006e-06 0)
(-2.5433e-06 3.56582e-06 0)
(2.54199e-06 3.56579e-06 0)
(4.80511e-06 1.31601e-05 0)
(2.90359e-06 2.82677e-05 0)
(9.14803e-06 4.5492e-05 0)
(-3.3659e-07 1.14095e-05 0)
(1.45547e-06 6.86169e-07 0)
(-1.45633e-06 6.86135e-07 0)
(2.12558e-06 1.46424e-06 0)
(-2.12666e-06 1.4642e-06 0)
(7.12129e-07 2.0635e-06 0)
(-7.26873e-08 2.01971e-06 0)
(-1.42861e-06 7.1734e-05 0)
(3.03492e-06 2.52538e-06 0)
(-3.03612e-06 2.52541e-06 0)
(1.00799e-05 0.000143786 0)
(-1.00066e-05 0.0001437 0)
(7.26307e-06 7.80357e-05 0)
(-2.20542e-07 1.13246e-05 0)
(2.35621e-07 1.85571e-06 0)
(6.09992e-06 7.81675e-05 0)
(-3.63466e-07 1.69023e-06 0)
(1.80433e-06 4.03934e-06 0)
(2.26209e-06 1.61788e-06 0)
(-2.26318e-06 1.61785e-06 0)
(3.32057e-06 2.24107e-05 0)
(3.06102e-06 5.98773e-06 0)
(3.14715e-06 5.99319e-06 0)
(1.52159e-06 1.44641e-06 0)
(-1.52274e-06 1.44639e-06 0)
(8.87639e-06 4.60441e-05 0)
(2.61606e-06 3.79757e-05 0)
(2.10875e-06 1.44144e-06 0)
(-2.10982e-06 1.44139e-06 0)
(8.78405e-07 1.64609e-06 0)
(-3.1821e-07 7.11994e-06 0)
(-2.70784e-06 2.08801e-06 0)
(2.70669e-06 2.088e-06 0)
(7.21671e-06 2.22329e-05 0)
(2.00181e-06 1.29979e-06 0)
(-2.00285e-06 1.29973e-06 0)
(9.82804e-07 3.26362e-07 0)
(-1.45151e-06 4.62004e-06 0)
(1.05754e-06 7.05483e-07 0)
(-4.18876e-06 4.84219e-06 0)
(4.18739e-06 4.84212e-06 0)
(6.88566e-07 1.93841e-07 0)
(-6.89051e-07 1.9388e-07 0)
(9.26678e-07 2.87211e-06 0)
(5.21611e-06 1.27041e-05 0)
(-4.12006e-06 4.79631e-06 0)
(4.11869e-06 4.79624e-06 0)
(-4.33949e-10 1.00309e-08 0)
(4.30948e-10 9.98009e-09 0)
(-5.98572e-07 5.0785e-07 0)
(9.67136e-07 2.88997e-06 0)
(3.51127e-07 1.00098e-07 0)
(-3.51379e-07 1.00312e-07 0)
(1.00717e-06 1.59652e-06 0)
(-9.96965e-08 1.9994e-06 0)
(-9.36564e-07 4.64733e-05 0)
(3.30714e-06 3.1256e-06 0)
(-3.30839e-06 3.12565e-06 0)
(2.81766e-06 3.86242e-05 0)
(1.74765e-06 9.92139e-07 0)
(-1.74857e-06 9.92087e-07 0)
(2.68476e-06 1.63274e-05 0)
(-2.96591e-06 3.04954e-06 0)
(2.96466e-06 3.0495e-06 0)
(-2.10904e-06 1.88916e-06 0)
(2.10788e-06 1.88917e-06 0)
(-1.87297e-07 6.78154e-08 0)
(1.87145e-07 6.76203e-08 0)
(-2.70502e-06 0.000109269 0)
(-3.06843e-06 3.11039e-06 0)
(3.06718e-06 3.11035e-06 0)
(4.64826e-06 1.29717e-05 0)
(-3.36104e-06 3.72847e-06 0)
(3.35974e-06 3.72842e-06 0)
(-5.76293e-06 8.10454e-06 0)
(-1.91698e-06 5.86844e-06 0)
(2.57379e-06 1.92461e-06 0)
(-2.57493e-06 1.92461e-06 0)
(-1.10818e-06 8.41887e-07 0)
(-8.24278e-06 3.19867e-05 0)
(-4.09675e-06 9.27329e-06 0)
(2.25486e-06 4.99768e-06 0)
(-6.29716e-07 3.2133e-07 0)
(8.32904e-08 2.67546e-05 0)
(1.00569e-06 9.76728e-07 0)
(-5.11409e-06 1.90689e-05 0)
(2.29283e-06 5.06977e-06 0)
(2.82574e-06 2.37657e-06 0)
(-2.82693e-06 2.3766e-06 0)
(2.04513e-06 1.4726e-05 0)
(5.33496e-07 8.55918e-07 0)
(7.26443e-06 2.31544e-05 0)
(5.20432e-06 1.28797e-05 0)
(-4.85336e-06 8.22338e-06 0)
(5.39262e-06 1.56846e-05 0)
(-2.09579e-06 3.64466e-06 0)
(2.09446e-06 3.64463e-06 0)
(-5.29441e-07 -6.36278e-09 0)
(-1.33949e-07 1.41812e-06 0)
(-1.14726e-05 5.96134e-05 0)
(-3.40381e-06 3.71801e-06 0)
(3.40251e-06 3.71796e-06 0)
(-2.45807e-06 1.84956e-06 0)
(2.45695e-06 1.84957e-06 0)
(-3.77806e-07 4.73346e-06 0)
(4.22177e-07 8.48848e-07 0)
(-1.71334e-06 9.49682e-07 0)
(1.71242e-06 9.49735e-07 0)
(-6.10282e-06 4.22891e-05 0)
(9.82854e-07 3.89288e-06 0)
(2.81801e-06 9.16753e-06 0)
(-9.93821e-07 1.79939e-05 0)
(-2.73154e-07 7.21526e-06 0)
(1.47104e-06 7.00896e-07 0)
(-1.4719e-06 7.0086e-07 0)
(2.18427e-06 3.98771e-06 0)
(-2.18562e-06 3.98773e-06 0)
(-6.5608e-06 3.25775e-05 0)
(3.57679e-06 9.44535e-06 0)
(-1.23448e-05 0.000260045 0)
(1.22309e-05 0.000259777 0)
(4.98147e-09 4.07088e-08 0)
(-4.95747e-09 4.09175e-08 0)
(1.3046e-06 8.10933e-06 0)
(2.12704e-06 1.07768e-05 0)
(-3.49534e-07 2.95121e-07 0)
(-1.16007e-06 4.35491e-07 0)
(-3.44801e-06 0.000215205 0)
(1.41867e-06 8.24105e-06 0)
(2.78515e-06 2.7849e-06 0)
(-2.78638e-06 2.78493e-06 0)
(3.74836e-06 3.71022e-06 0)
(-3.74966e-06 3.71029e-06 0)
(4.59701e-06 1.87638e-05 0)
(-4.07473e-06 8.46806e-06 0)
(4.0091e-06 4.48892e-06 0)
(-4.01045e-06 4.48898e-06 0)
(-6.87969e-08 7.29765e-08 0)
(-2.30318e-07 5.48641e-07 0)
(2.19215e-06 1.59394e-06 0)
(-2.19325e-06 1.59391e-06 0)
(2.88305e-07 -8.71805e-09 0)
(-5.01549e-07 1.17036e-07 0)
(5.01176e-07 1.16924e-07 0)
(-1.02918e-06 1.58937e-06 0)
(-1.50188e-06 5.02973e-06 0)
(6.22851e-07 2.57802e-05 0)
(-7.28696e-07 6.53092e-05 0)
(-9.31027e-09 3.79016e-08 0)
(9.33985e-09 3.7696e-08 0)
(-2.30309e-07 5.33797e-08 0)
(2.30134e-07 5.32318e-08 0)
(-3.91205e-06 1.69806e-05 0)
(1.80199e-06 2.87922e-06 0)
(-1.80326e-06 2.87923e-06 0)
(-6.2089e-08 3.01285e-06 0)
(-1.67983e-06 6.23508e-06 0)
(-1.12457e-07 7.91381e-08 0)
(1.12336e-07 7.88304e-08 0)
(1.20949e-06 1.18702e-06 0)
(7.49099e-07 1.76639e-07 0)
(5.92185e-07 2.83552e-08 0)
(-2.00237e-06 8.15314e-06 0)
(6.65857e-06 1.48765e-05 0)
(-4.4773e-07 4.7528e-06 0)
(-1.27367e-06 8.66517e-07 0)
(1.43431e-06 8.21926e-07 0)
(5.84321e-07 1.28834e-06 0)
(-1.43516e-06 8.22347e-07 0)
(7.69418e-06 1.60473e-05 0)
(-1.2008e-07 4.9964e-08 0)
(-3.60619e-06 1.69324e-05 0)
(9.34409e-07 3.27174e-07 0)
(-9.35022e-07 3.27177e-07 0)
(6.63897e-07 3.09678e-06 0)
(-3.12198e-07 5.77673e-07 0)
(-2.31463e-06 1.96204e-06 0)
(2.31348e-06 1.96204e-06 0)
(1.06016e-05 4.03338e-05 0)
(-1.06469e-05 4.0343e-05 0)
(-7.15482e-10 9.80714e-09 0)
(7.11124e-10 9.75724e-09 0)
(1.01417e-06 6.87317e-07 0)
(-7.28867e-07 2.24575e-07 0)
(7.28369e-07 2.24559e-07 0)
(3.81301e-06 3.72494e-05 0)
(-5.57526e-07 4.32447e-06 0)
(7.4933e-06 3.57525e-05 0)
(-7.49517e-06 3.57526e-05 0)
(-3.11921e-06 3.13075e-06 0)
(3.11796e-06 3.13071e-06 0)
(-4.94304e-08 2.86284e-08 0)
(4.93686e-08 2.84543e-08 0)
(-1.85281e-07 1.03781e-07 0)
(2.98088e-06 2.53812e-06 0)
(-2.98208e-06 2.53815e-06 0)
(3.73256e-07 9.56093e-06 0)
(1.1313e-06 4.79338e-07 0)
(3.88936e-06 4.53273e-06 0)
(-3.89072e-06 4.53279e-06 0)
(2.16319e-06 1.44491e-06 0)
(-2.16424e-06 1.44487e-06 0)
(-4.74723e-06 0.000105792 0)
(3.5273e-06 1.66026e-05 0)
(1.92555e-07 6.52309e-07 0)
(8.68091e-07 2.7421e-07 0)
(-8.6868e-07 2.74229e-07 0)
(3.07482e-06 2.6465e-06 0)
(-3.07603e-06 2.64654e-06 0)
(5.26815e-07 2.95678e-07 0)
(2.98054e-06 5.48054e-06 0)
(5.78534e-07 1.80631e-08 0)
(3.85821e-06 8.26944e-06 0)
(2.97842e-06 5.55411e-06 0)
(1.22657e-06 1.77004e-06 0)
(8.88274e-06 6.20966e-05 0)
(-1.40576e-06 2.3978e-06 0)
(-1.60509e-06 6.18287e-06 0)
(1.40452e-06 2.39775e-06 0)
(-2.58115e-06 1.98472e-06 0)
(2.58e-06 1.98472e-06 0)
(1.00331e-06 1.03612e-06 0)
(-4.55662e-07 1.97499e-06 0)
(-3.02483e-06 3.71851e-05 0)
(5.65902e-06 1.58792e-05 0)
(1.36358e-06 8.98713e-07 0)
(7.44587e-08 -1.18461e-07 0)
(9.31409e-07 7.85268e-07 0)
(-6.61571e-06 0.000215465 0)
(-1.13256e-06 4.79474e-07 0)
(-5.32853e-06 0.000239182 0)
(-3.31902e-08 4.43556e-07 0)
(6.18491e-07 1.03707e-05 0)
(-1.93946e-06 5.63017e-06 0)
(-2.57762e-06 2.42438e-05 0)
(6.4741e-06 1.09131e-05 0)
(2.11495e-06 5.64191e-06 0)
(-2.09194e-06 1.89914e-06 0)
(2.09078e-06 1.89914e-06 0)
(-7.32292e-07 3.85825e-07 0)
(8.90037e-07 1.61767e-06 0)
(-2.13813e-06 6.52467e-05 0)
(8.98431e-07 2.84152e-07 0)
(-8.99042e-07 2.8417e-07 0)
(-1.96858e-08 2.43894e-06 0)
(-9.45219e-07 4.47985e-06 0)
(1.40117e-06 1.24707e-06 0)
(-9.57628e-08 3.02259e-06 0)
(-1.40021e-06 1.2469e-06 0)
(-1.71768e-09 2.95686e-08 0)
(1.71981e-09 2.94267e-08 0)
(3.99637e-06 5.73618e-05 0)
(-2.94676e-06 7.33934e-06 0)
(-1.01643e-06 2.9155e-07 0)
(-3.05264e-06 5.24097e-06 0)
(-2.12169e-06 8.0757e-06 0)
(2.34656e-06 6.08833e-06 0)
(-6.52093e-07 1.70819e-06 0)
(3.46976e-06 8.14259e-06 0)
(-4.55705e-07 -3.85845e-08 0)
(-2.29204e-07 1.85195e-06 0)
(-1.05368e-06 4.71789e-05 0)
(5.57495e-06 9.49931e-06 0)
(3.84334e-06 4.46027e-06 0)
(-3.84469e-06 4.46033e-06 0)
(7.33955e-06 1.72497e-05 0)
(-7.57843e-07 1.81608e-05 0)
(-1.24608e-05 6.00129e-05 0)
(1.02042e-06 1.56896e-06 0)
(-3.53324e-06 4.03841e-06 0)
(3.53192e-06 4.03836e-06 0)
(2.02147e-06 2.19794e-06 0)
(-2.02267e-06 2.19795e-06 0)
(-3.56753e-06 7.26279e-06 0)
(-1.24762e-07 -1.10644e-07 0)
(-3.99273e-07 9.82175e-08 0)
(3.98992e-07 9.81336e-08 0)
(1.15112e-05 3.62361e-05 0)
(-1.15136e-05 3.62363e-05 0)
(-2.13242e-06 3.17418e-06 0)
(2.13113e-06 3.17415e-06 0)
(-6.49566e-10 1.67772e-08 0)
(6.52314e-10 1.68608e-08 0)
(6.44081e-07 1.65118e-06 0)
(9.51224e-07 8.74598e-06 0)
(2.56159e-06 5.66294e-06 0)
(9.77589e-08 -9.07908e-08 0)
(3.67012e-07 -1.69538e-08 0)
(1.97666e-06 1.24682e-06 0)
(-1.97768e-06 1.24677e-06 0)
(2.00269e-06 1.27387e-06 0)
(-2.00372e-06 1.27381e-06 0)
(-2.49061e-06 4.58459e-06 0)
(2.48922e-06 4.58456e-06 0)
(-1.19718e-06 4.88137e-07 0)
(1.19643e-06 4.88156e-07 0)
(4.21681e-07 1.57484e-06 0)
(-2.91461e-08 1.81774e-06 0)
(5.15598e-07 3.82231e-06 0)
(3.04146e-06 8.40743e-06 0)
(-7.37113e-07 1.32215e-06 0)
(-8.45566e-06 3.24763e-05 0)
(1.12903e-06 6.2844e-06 0)
(2.60289e-06 1.96088e-06 0)
(-2.60402e-06 1.96088e-06 0)
(3.32762e-06 8.62241e-06 0)
(-3.7126e-06 3.71595e-05 0)
(-4.32369e-06 8.3076e-05 0)
(-4.86161e-06 9.75832e-06 0)
(-3.46741e-06 6.98895e-06 0)
(1.21913e-06 1.11804e-06 0)
(5.85734e-07 3.00766e-06 0)
(-2.68997e-06 2.59065e-06 0)
(2.68876e-06 2.59062e-06 0)
(6.10998e-06 8.27511e-05 0)
(-5.91494e-06 8.27592e-05 0)
(-5.22325e-07 1.37327e-07 0)
(5.21949e-07 1.37233e-07 0)
(-3.04909e-06 3.1234e-06 0)
(3.04783e-06 3.12335e-06 0)
(-1.07818e-07 3.47127e-06 0)
(-4.4539e-07 1.34473e-06 0)
(6.05336e-07 2.97935e-06 0)
(-5.62124e-07 1.01898e-08 0)
(-9.37867e-06 2.30192e-05 0)
(-6.16757e-06 0.000173869 0)
(1.76118e-06 1.02415e-06 0)
(-1.76216e-06 1.02408e-06 0)
(1.85272e-06 6.00064e-06 0)
(-1.16061e-06 4.28817e-07 0)
(-1.03327e-07 3.52504e-06 0)
(1.80648e-06 2.91836e-06 0)
(-1.80776e-06 2.91838e-06 0)
(-8.09979e-07 2.57412e-07 0)
(8.09431e-07 2.57396e-07 0)
(-9.32224e-07 7.74022e-07 0)
(7.09922e-06 1.72525e-05 0)
(2.27049e-06 6.11578e-06 0)
(8.46214e-07 2.03902e-07 0)
(-8.46868e-07 2.03958e-07 0)
(6.3891e-06 3.32459e-05 0)
(2.40412e-07 6.09546e-07 0)
(-1.4826e-06 2.27064e-06 0)
(1.48138e-06 2.27062e-06 0)
(1.19935e-06 1.73734e-06 0)
(-2.19564e-06 1.46102e-06 0)
(2.19459e-06 1.46106e-06 0)
(-1.84667e-06 1.13354e-06 0)
(1.84565e-06 1.1336e-06 0)
(1.37554e-06 1.0044e-06 0)
(1.5559e-06 8.01771e-07 0)
(-1.55676e-06 8.01731e-07 0)
(1.31499e-06 5.91433e-06 0)
(3.09245e-06 1.44266e-05 0)
(-3.3391e-06 4.01732e-06 0)
(3.33778e-06 4.01727e-06 0)
(3.05194e-06 5.24256e-06 0)
(3.7808e-06 4.24246e-06 0)
(-3.78213e-06 4.24252e-06 0)
(-7.1593e-06 3.2476e-05 0)
(2.52532e-06 2.38173e-06 0)
(-2.52652e-06 2.38175e-06 0)
(2.23162e-06 4.02035e-06 0)
(-2.23298e-06 4.02037e-06 0)
(5.51747e-07 3.42214e-06 0)
(-1.30825e-06 6.13715e-07 0)
(1.30749e-06 6.13741e-07 0)
(1.13437e-05 7.58962e-05 0)
(6.33225e-07 1.05401e-05 0)
(4.07212e-07 3.40122e-06 0)
(4.80391e-07 1.98806e-06 0)
(-1.75095e-06 1.47935e-06 0)
(1.74981e-06 1.47938e-06 0)
(2.94971e-06 2.54066e-06 0)
(-2.95091e-06 2.5407e-06 0)
(1.96315e-06 6.01755e-06 0)
(7.22472e-06 2.19289e-05 0)
(-1.2278e-06 1.77021e-06 0)
(-3.98174e-07 3.82475e-05 0)
(1.25233e-06 8.91323e-07 0)
(1.22967e-06 1.09145e-06 0)
(-6.1332e-06 8.10902e-05 0)
(3.91111e-07 9.54062e-08 0)
(-3.91387e-07 9.54915e-08 0)
(8.53271e-06 2.24683e-05 0)
(3.77141e-06 3.75979e-06 0)
(-3.77271e-06 3.75985e-06 0)
(-6.70599e-06 4.28246e-05 0)
(-1.37436e-07 3.3657e-06 0)
(2.31854e-06 1.98947e-06 0)
(-2.31969e-06 1.98947e-06 0)
(1.12274e-06 4.60828e-07 0)
(7.38512e-06 3.62253e-05 0)
(-7.38701e-06 3.62255e-05 0)
(-3.95545e-08 2.46729e-06 0)
(-1.00533e-07 -1.31476e-07 0)
(1.64194e-06 1.73948e-05 0)
(1.04152e-06 1.05075e-06 0)
(1.67383e-06 5.80464e-06 0)
(-1.49205e-06 2.237e-06 0)
(1.49083e-06 2.23698e-06 0)
(4.79505e-06 1.90148e-05 0)
(1.62105e-08 3.84581e-07 0)
(-2.66789e-06 3.21885e-06 0)
(2.66662e-06 3.21882e-06 0)
(-8.00517e-07 5.17563e-06 0)
(1.85286e-06 3.62193e-06 0)
(-1.8542e-06 3.62195e-06 0)
(6.57176e-07 4.95973e-06 0)
(-8.7855e-07 3.05266e-07 0)
(8.77972e-07 3.05264e-07 0)
(1.98934e-06 1.29666e-06 0)
(-1.99038e-06 1.2966e-06 0)
(9.83908e-07 3.79016e-07 0)
(-9.84534e-07 3.79005e-07 0)
(-4.35927e-06 1.50776e-05 0)
(1.09405e-06 1.57478e-06 0)
(-1.09794e-06 1.57529e-06 0)
(-5.08835e-06 1.87616e-05 0)
(1.11455e-06 4.37269e-07 0)
(-1.11525e-06 4.37256e-07 0)
(2.47717e-06 1.07665e-05 0)
(-5.02256e-07 7.27942e-07 0)
(6.84447e-07 2.08399e-06 0)
(3.10692e-06 7.36262e-06 0)
(-9.52043e-08 3.06133e-07 0)
(1.53699e-07 3.49285e-08 0)
(5.28541e-07 3.24003e-07 0)
(5.63669e-06 9.39902e-06 0)
(-1.54114e-06 1.58412e-06 0)
(1.53998e-06 1.58413e-06 0)
(-9.32329e-06 7.09477e-05 0)
(-1.53607e-06 1.62352e-06 0)
(1.5349e-06 1.62354e-06 0)
(1.28868e-05 0.000114162 0)
(2.08379e-06 2.03996e-06 0)
(-2.08496e-06 2.03996e-06 0)
(5.66378e-07 3.84898e-06 0)
(2.64734e-07 9.61786e-06 0)
(1.88872e-06 3.58805e-06 0)
(-1.89005e-06 3.58807e-06 0)
(-3.41162e-06 3.9321e-06 0)
(3.4103e-06 3.93205e-06 0)
(-4.07475e-06 8.58382e-06 0)
(-8.07119e-07 1.56393e-06 0)
(-1.15595e-06 9.10593e-07 0)
(-2.36246e-06 2.62003e-06 0)
(2.36124e-06 2.62e-06 0)
(-3.29423e-06 3.23264e-06 0)
(3.29297e-06 3.23259e-06 0)
(-3.86708e-06 2.69187e-05 0)
(1.24371e-06 5.96419e-06 0)
(-1.18258e-05 0.000264534 0)
(1.16328e-05 0.000264186 0)
(-1.2549e-06 2.3453e-06 0)
(1.25358e-06 2.34519e-06 0)
(1.3029e-05 0.000106797 0)
(3.00991e-09 3.31162e-09 0)
(9.37739e-10 1.36172e-09 0)
(-9.42588e-10 1.36876e-09 0)
(-3.02536e-09 3.32869e-09 0)
(1.96566e-06 1.4964e-05 0)
(-7.38074e-08 6.68022e-08 0)
(7.37161e-08 6.65506e-08 0)
(1.09923e-06 4.09617e-07 0)
(-1.09994e-06 4.09608e-07 0)
(7.53584e-07 2.16654e-07 0)
(-7.54113e-07 2.16688e-07 0)
(-8.85067e-07 3.10818e-07 0)
(8.84486e-07 3.10818e-07 0)
(-2.23144e-07 1.0879e-06 0)
(-1.89821e-06 1.81518e-06 0)
(1.89705e-06 1.81519e-06 0)
(2.67062e-06 6.45591e-06 0)
(6.92563e-06 8.88132e-05 0)
(1.79657e-06 1.74927e-06 0)
(-1.79773e-06 1.74926e-06 0)
(1.59225e-06 5.78399e-06 0)
(-2.20455e-06 2.43846e-06 0)
(2.20334e-06 2.43844e-06 0)
(2.15564e-06 6.674e-06 0)
(1.25057e-06 3.69473e-06 0)
(-3.47162e-06 7.086e-06 0)
(9.43996e-07 3.53289e-07 0)
(-9.44603e-07 3.53281e-07 0)
(-3.0976e-06 5.95565e-06 0)
(-2.51398e-07 7.40466e-06 0)
(8.58851e-09 2.04114e-06 0)
(4.44113e-06 3.77929e-05 0)
(2.54843e-06 2.37695e-06 0)
(-2.54962e-06 2.37697e-06 0)
(2.35824e-07 -8.5943e-10 0)
(-1.34856e-06 9.53767e-07 0)
(3.03461e-06 2.61485e-06 0)
(-3.03582e-06 2.61489e-06 0)
(-2.13484e-10 1.43623e-08 0)
(2.14321e-10 1.4433e-08 0)
(-2.44598e-06 4.61836e-06 0)
(2.4446e-06 4.61833e-06 0)
(-6.30654e-06 3.32297e-05 0)
(1.04159e-06 2.53759e-05 0)
(-3.48206e-06 3.10569e-06 0)
(3.48081e-06 3.10564e-06 0)
(1.06105e-06 1.77231e-06 0)
(1.37191e-06 8.8091e-07 0)
(-1.82279e-07 -1.27288e-07 0)
(-1.30446e-05 0.000200985 0)
(-1.12606e-06 4.62617e-07 0)
(-1.59007e-06 4.39148e-06 0)
(-1.40328e-06 1.00881e-05 0)
(7.57882e-08 7.62559e-08 0)
(5.07022e-07 1.96715e-06 0)
(3.60288e-06 8.20723e-06 0)
(-1.04033e-06 3.30681e-07 0)
(-2.9466e-06 6.44923e-06 0)
(3.65576e-06 9.61331e-06 0)
(7.29945e-07 1.81394e-07 0)
(6.35496e-06 8.11774e-05 0)
(-1.09396e-08 3.98711e-08 0)
(1.09672e-08 3.96598e-08 0)
(-2.11186e-06 2.07202e-06 0)
(2.11068e-06 2.07201e-06 0)
(-1.09951e-06 4.86407e-07 0)
(1.35347e-07 2.71441e-06 0)
(1.23062e-06 6.29267e-06 0)
(2.34615e-06 7.59218e-05 0)
(-1.26325e-05 7.55696e-05 0)
(-2.7796e-06 6.216e-06 0)
(1.38435e-06 9.8806e-07 0)
(2.68761e-07 5.50321e-06 0)
(-1.19752e-05 0.00011623 0)
(1.28224e-05 0.000116023 0)
(4.31851e-07 1.79301e-06 0)
(-7.30977e-07 1.94922e-07 0)
(7.30448e-07 1.94874e-07 0)
(-1.27718e-06 1.08513e-06 0)
(-7.41489e-06 2.05908e-05 0)
(3.54332e-07 5.55397e-06 0)
(5.37804e-06 4.31668e-05 0)
(-2.72066e-06 2.61564e-06 0)
(2.71944e-06 2.61561e-06 0)
(4.02765e-06 4.56048e-06 0)
(-4.029e-06 4.56055e-06 0)
(1.14877e-09 3.36741e-08 0)
(-1.12418e-09 3.34996e-08 0)
(3.8877e-07 2.97882e-05 0)
(1.92541e-07 6.22618e-07 0)
(1.22003e-06 4.18985e-06 0)
(1.30755e-07 1.48045e-06 0)
(1.42567e-06 1.74937e-06 0)
(-1.42685e-06 1.74938e-06 0)
(-7.1257e-06 6.60426e-05 0)
(-3.41515e-07 8.44161e-08 0)
(3.41267e-07 8.43053e-08 0)
(3.33191e-06 3.16554e-06 0)
(-3.33316e-06 3.16559e-06 0)
(7.56331e-06 1.74906e-05 0)
(-2.39338e-06 2.3117e-06 0)
(2.39219e-06 2.31169e-06 0)
(4.15937e-07 2.20404e-08 0)
(-3.63825e-06 7.34927e-06 0)
(2.18576e-06 7.24219e-06 0)
(2.58479e-06 2.1585e-05 0)
(-4.72632e-06 1.19629e-05 0)
(-4.13182e-07 7.72077e-06 0)
(-3.30959e-06 4.03794e-06 0)
(3.30827e-06 4.03789e-06 0)
(-8.39719e-06 8.93751e-05 0)
(3.68602e-07 2.41535e-06 0)
(-2.18758e-06 1.47248e-06 0)
(2.18652e-06 1.47252e-06 0)
(2.78481e-06 1.35377e-05 0)
(4.69742e-06 6.57299e-06 0)
(8.35414e-07 1.12358e-06 0)
(-4.69891e-06 6.57288e-06 0)
(-6.31386e-07 6.72421e-08 0)
(6.30637e-07 6.68639e-08 0)
(-2.75303e-06 8.67352e-06 0)
(-8.5752e-07 2.20346e-07 0)
(3.85872e-06 1.31188e-05 0)
(2.5456e-08 -4.49614e-08 0)
(2.57962e-06 6.47127e-06 0)
(7.38597e-07 1.86353e-06 0)
(-1.05725e-05 2.98073e-05 0)
(5.87526e-07 3.04865e-06 0)
(-8.3054e-07 1.91471e-07 0)
(8.29884e-07 1.91411e-07 0)
(3.82355e-06 4.22532e-06 0)
(-3.82488e-06 4.22539e-06 0)
(-1.2703e-06 6.451e-06 0)
(-5.49065e-07 2.4761e-05 0)
(2.5811e-06 2.47341e-06 0)
(-2.58231e-06 2.47343e-06 0)
(2.55191e-06 5.73567e-06 0)
(-3.6304e-06 1.53245e-05 0)
(-1.16823e-05 0.000114173 0)
(-6.56568e-07 3.38055e-06 0)
(-4.01343e-06 2.08748e-05 0)
(-7.14473e-07 2.17611e-07 0)
(7.13984e-07 2.17594e-07 0)
(6.80684e-07 5.10384e-06 0)
(-1.50698e-06 1.84957e-06 0)
(1.5058e-06 1.84957e-06 0)
(3.60015e-06 3.86763e-06 0)
(-3.60146e-06 3.86769e-06 0)
(-5.64317e-08 3.53269e-06 0)
(2.06316e-06 7.25322e-06 0)
(1.25149e-07 7.30903e-08 0)
(1.05707e-05 2.98081e-05 0)
(-1.65177e-06 9.08304e-07 0)
(1.65081e-06 9.08374e-07 0)
(-2.31373e-06 8.63064e-06 0)
(-1.20189e-07 1.38368e-06 0)
(1.79763e-06 1.16184e-05 0)
(4.21383e-06 1.22567e-05 0)
(2.23036e-06 1.57951e-05 0)
(1.00194e-06 9.46387e-07 0)
(4.37084e-07 1.67693e-06 0)
(9.14316e-07 3.95612e-07 0)
(-1.99513e-06 5.90131e-06 0)
(-3.60129e-06 3.73069e-06 0)
(3.59999e-06 3.73063e-06 0)
(-1.81952e-06 1.08712e-06 0)
(1.81852e-06 1.08719e-06 0)
(-1.05847e-05 4.7343e-05 0)
(1.04125e-05 4.72955e-05 0)
(5.16696e-07 3.38039e-06 0)
(-1.19946e-07 -1.29136e-07 0)
(-3.47848e-06 3.6845e-06 0)
(3.47719e-06 3.68444e-06 0)
(3.70768e-06 7.16154e-06 0)
(3.5966e-06 8.45347e-06 0)
(-7.10216e-08 4.40877e-06 0)
(2.50001e-06 2.06289e-05 0)
(-4.3054e-06 0.00024346 0)
(-1.5705e-07 9.09383e-08 0)
(1.56936e-07 9.06613e-08 0)
(1.02844e-06 3.89579e-06 0)
(4.90351e-07 4.81067e-06 0)
(-2.41504e-06 1.77011e-06 0)
(2.41393e-06 1.77013e-06 0)
(1.05316e-07 1.98996e-06 0)
(-4.28291e-06 3.77486e-05 0)
(7.73244e-08 -1.30682e-07 0)
(-3.21057e-06 2.77075e-06 0)
(3.20935e-06 2.77071e-06 0)
(8.87076e-07 2.0498e-07 0)
(-8.87793e-07 2.05048e-07 0)
(1.21515e-06 1.39393e-06 0)
(6.9634e-07 1.85426e-07 0)
(-6.96844e-07 1.85477e-07 0)
(2.0052e-06 4.72559e-05 0)
(3.15241e-07 8.75767e-06 0)
(-1.00948e-06 7.51527e-05 0)
(-9.19262e-07 3.86468e-05 0)
(-3.38964e-06 3.96417e-06 0)
(3.38832e-06 3.96411e-06 0)
(1.43835e-06 2.55519e-05 0)
(1.78364e-06 3.01548e-06 0)
(-1.78492e-06 3.0155e-06 0)
(-4.24227e-06 4.69663e-06 0)
(4.24091e-06 4.69656e-06 0)
(1.05905e-06 1.55981e-06 0)
(-1.0601e-06 1.5602e-06 0)
(-1.20993e-06 5.02683e-07 0)
(1.20918e-06 5.02702e-07 0)
(2.24814e-06 1.55997e-06 0)
(-2.24922e-06 1.55994e-06 0)
(-4.2564e-07 3.05903e-06 0)
(5.35005e-06 1.47993e-05 0)
(-2.343e-06 1.67039e-06 0)
(2.34191e-06 1.67041e-06 0)
(6.99733e-06 2.12886e-05 0)
(1.71951e-07 2.10503e-06 0)
(-1.21253e-06 4.76266e-07 0)
(1.21176e-06 4.76283e-07 0)
(-3.16192e-06 4.277e-06 0)
(3.16058e-06 4.27695e-06 0)
(1.42853e-06 7.51663e-07 0)
(2.61274e-06 2.48845e-06 0)
(-2.61395e-06 2.48847e-06 0)
(3.62017e-06 3.30649e-06 0)
(-3.62143e-06 3.30655e-06 0)
(-1.4295e-06 7.51581e-07 0)
(-1.54314e-06 7.93951e-06 0)
(-2.00891e-06 6.26312e-06 0)
(-3.87924e-06 8.43075e-05 0)
(-2.68155e-06 3.75486e-06 0)
(2.68023e-06 3.75482e-06 0)
(4.58997e-06 6.55289e-06 0)
(-1.61232e-07 1.79109e-06 0)
(-1.26102e-07 7.3494e-08 0)
(-4.59141e-06 6.55278e-06 0)
(-9.51944e-07 2.03993e-06 0)
(-1.27253e-06 1.05528e-06 0)
(2.06601e-06 6.7235e-06 0)
(-1.51868e-06 1.88188e-06 0)
(1.5175e-06 1.88187e-06 0)
(-1.59494e-08 1.77914e-06 0)
(-4.35585e-07 1.71815e-06 0)
(2.86292e-06 8.1072e-06 0)
(-1.0308e-05 3.60566e-05 0)
(1.03059e-05 3.60564e-05 0)
(-2.22783e-06 1.44152e-05 0)
(1.08089e-07 2.73056e-06 0)
(-2.86223e-08 4.36377e-08 0)
(2.86225e-08 4.34223e-08 0)
(9.96373e-07 8.76598e-07 0)
(1.17668e-06 1.16363e-06 0)
(2.28862e-06 1.08527e-05 0)
(-2.40057e-06 1.76828e-06 0)
(2.39946e-06 1.76829e-06 0)
(1.46313e-06 8.37553e-07 0)
(1.08754e-05 7.71326e-05 0)
(1.43061e-06 7.64872e-07 0)
(-3.43646e-06 2.66053e-05 0)
(-1.16481e-06 4.82661e-07 0)
(1.16409e-06 4.82681e-07 0)
(5.70527e-06 1.67291e-05 0)
(-7.14669e-07 1.28827e-06 0)
(-1.46372e-06 8.37568e-07 0)
(1.93743e-05 0.000187423 0)
(-1.93226e-05 0.000187415 0)
(-1.43158e-06 7.64791e-07 0)
(4.14881e-06 1.18519e-05 0)
(-1.22843e-06 4.87183e-07 0)
(1.22765e-06 4.872e-07 0)
(3.64734e-06 4.5191e-06 0)
(-3.64869e-06 4.51916e-06 0)
(-3.45924e-06 8.97449e-06 0)
(6.85858e-07 2.12279e-06 0)
(-2.20856e-06 8.5095e-06 0)
(-1.89619e-06 1.18442e-06 0)
(1.89516e-06 1.18449e-06 0)
(2.64725e-06 3.01074e-06 0)
(-2.6485e-06 3.01078e-06 0)
(9.13267e-09 6.92551e-07 0)
(2.96817e-06 2.14597e-05 0)
(-2.66081e-06 3.78329e-06 0)
(2.65949e-06 3.78325e-06 0)
(2.54341e-06 9.04105e-06 0)
(-3.27894e-07 1.06731e-07 0)
(3.27658e-07 1.06546e-07 0)
(1.56498e-06 5.43748e-06 0)
(8.7935e-07 1.91374e-07 0)
(-4.99979e-06 7.88407e-06 0)
(4.00729e-06 1.22976e-05 0)
(3.45918e-06 8.73678e-06 0)
(7.27164e-06 2.27977e-05 0)
(-1.53284e-06 4.35625e-06 0)
(1.59918e-06 4.25547e-06 0)
(7.03699e-07 7.24479e-06 0)
(-3.33709e-06 3.26665e-06 0)
(3.33583e-06 3.2666e-06 0)
(4.69353e-07 4.8005e-05 0)
(-6.11187e-08 1.0019e-06 0)
(-6.91803e-07 3.35027e-06 0)
(2.28849e-06 7.57047e-06 0)
(1.39418e-06 1.76834e-05 0)
(2.51281e-07 3.81445e-07 0)
(1.97595e-07 2.13242e-06 0)
(-3.49551e-06 1.84836e-05 0)
(3.18332e-06 2.46679e-05 0)
(-9.15878e-08 7.20521e-07 0)
(-4.76585e-07 1.43683e-06 0)
(1.00469e-06 9.02491e-07 0)
(-9.49476e-07 2.07391e-06 0)
(8.51782e-06 2.28256e-05 0)
(-1.3106e-06 1.02016e-05 0)
(1.14855e-06 6.64887e-06 0)
(4.01358e-07 9.71653e-08 0)
(-4.01641e-07 9.72439e-08 0)
(-9.51701e-07 8.44245e-07 0)
(3.28523e-07 1.00036e-07 0)
(-3.28767e-07 1.00262e-07 0)
(1.17099e-06 4.2265e-06 0)
(6.11811e-07 3.08276e-06 0)
(-1.77293e-06 1.47313e-06 0)
(1.7718e-06 1.47316e-06 0)
(-8.9533e-07 2.69738e-07 0)
(-2.25068e-07 9.51752e-08 0)
(2.24877e-07 9.49072e-08 0)
(8.22838e-07 7.35276e-07 0)
(3.01512e-06 3.73585e-05 0)
(-8.80079e-07 1.91468e-07 0)
(1.12134e-06 3.79361e-07 0)
(-1.34399e-06 9.28151e-07 0)
(-8.89917e-07 6.79328e-07 0)
(6.49024e-06 1.10861e-05 0)
(-1.20051e-06 1.73757e-06 0)
(-2.77952e-06 1.53859e-05 0)
(-3.59511e-06 1.00156e-05 0)
(-7.4808e-07 2.25484e-07 0)
(7.47565e-07 2.2546e-07 0)
(-5.66977e-07 4.26891e-06 0)
(4.06408e-07 1.54362e-06 0)
(-1.39692e-07 4.58947e-08 0)
(1.39555e-07 4.56976e-08 0)
(-1.32602e-06 7.58719e-07 0)
(9.4234e-06 0.000355282 0)
(-8.26887e-06 7.02113e-05 0)
(-1.51066e-06 6.19878e-06 0)
(1.44774e-06 3.27056e-06 0)
(-1.44901e-06 3.27058e-06 0)
(3.83696e-06 8.38592e-06 0)
(4.04143e-07 2.41326e-06 0)
(-6.67921e-06 6.68625e-05 0)
(1.04837e-07 3.40208e-08 0)
(-1.04966e-07 3.42196e-08 0)
(7.50953e-06 6.02529e-05 0)
(5.48548e-06 7.99323e-05 0)
(4.13394e-08 -9.14048e-08 0)
(-2.65166e-07 7.52414e-06 0)
(5.34807e-07 1.0262e-06 0)
(-4.2121e-06 1.00372e-05 0)
(-9.30457e-07 7.40475e-07 0)
(5.33211e-06 2.4998e-05 0)
(1.48562e-06 3.25165e-06 0)
(-1.48694e-06 3.25167e-06 0)
(5.43011e-06 1.18231e-05 0)
(2.98549e-06 6.30114e-06 0)
(-6.17324e-08 1.07934e-06 0)
(-1.99903e-07 1.06025e-06 0)
(8.49801e-06 6.08355e-05 0)
(1.61173e-06 8.55935e-07 0)
(-1.61267e-06 8.5587e-07 0)
(-1.15239e-07 1.78189e-06 0)
(1.16253e-06 3.36564e-06 0)
(5.61802e-06 1.37187e-05 0)
(4.11438e-07 9.95463e-08 0)
(-4.11727e-07 9.96198e-08 0)
(3.00402e-06 1.41501e-05 0)
(-5.02492e-07 5.0194e-07 0)
(-3.34609e-06 1.54506e-05 0)
(2.7963e-06 2.82295e-06 0)
(-2.79753e-06 2.82298e-06 0)
(6.17287e-07 3.31356e-06 0)
(1.36657e-06 1.37687e-06 0)
(-1.36733e-06 1.37631e-06 0)
(-1.44264e-06 6.71069e-07 0)
(1.44177e-06 6.71109e-07 0)
(-7.20424e-06 7.03732e-05 0)
(1.66965e-06 4.31914e-06 0)
(-3.15186e-08 4.68217e-08 0)
(3.15143e-08 4.65995e-08 0)
(1.02097e-06 1.75052e-06 0)
(-6.48529e-08 7.31504e-08 0)
(-1.18394e-05 0.000273454 0)
(-3.42263e-06 3.54497e-06 0)
(3.42134e-06 3.54491e-06 0)
(7.32474e-06 0.000172307 0)
(-2.25952e-06 1.52869e-06 0)
(2.25845e-06 1.52872e-06 0)
(-2.39633e-06 0.000142857 0)
(-5.28196e-06 2.49961e-05 0)
(6.22593e-07 3.17496e-06 0)
(1.6812e-06 9.76308e-07 0)
(9.3759e-07 1.70967e-06 0)
(5.76269e-07 7.30428e-06 0)
(-1.6822e-06 9.7623e-07 0)
(-5.61373e-06 1.39509e-05 0)
(-2.908e-07 2.86407e-06 0)
(1.17458e-06 3.46832e-06 0)
(1.5813e-06 3.24301e-06 0)
(-1.58262e-06 3.24303e-06 0)
(-1.0627e-06 4.80301e-07 0)
(1.10093e-06 5.35199e-07 0)