/*--------------------------------*- C++ -*----------------------------------*\
| =========                 |                                                 |
| \\      /  F ield         | OpenFOAM: The Open Source CFD Toolbox           |
|  \\    /   O peration     | Version:  v3.0+                                 |
|   \\  /    A nd           | Web:      www.OpenFOAM.com                      |
|    \\/     M anipulation  |                                                 |
\*---------------------------------------------------------------------------*/
FoamFile
{
    version     2.0;
    format      ascii;
    class       volScalarField;
    location    "6000";
    object      sigmaxx;
}
// * * * * * * * * * * * * * * * * * * * * * * * * * * * * * * * * * * * * * //

dimensions      [1 -1 -2 0 0 0 0];

internalField   nonuniform List<scalar> 
27023
(
-1.88455e+07
1.88512e+07
1.21404e+07
-1.21363e+07
-1.90391e+07
1.9045e+07
1.02589e+08
-1.02573e+08
4.56232e+06
-4.55638e+06
7.42413e+07
-7.42238e+07
822256
-840288
-2.96824e+07
2.42475e+06
1.63933e+06
-6.36166e+07
6.36304e+07
4.66441e+07
-4.66322e+07
1.01998e+08
-1.01982e+08
5.21762e+07
-5.21666e+07
8.20444e+06
-3.64851e+07
3.87131e+06
-3.60041e+07
3.53826e+07
1.70285e+07
4.66877e+07
-4.66769e+07
-4.74514e+07
-2.93847e+07
3.68798e+07
4.25098e+07
-4.2494e+07
4.37279e+06
-4.37014e+06
-1.21116e+07
1.2116e+07
-2.39784e+07
-1.81467e+07
1.81524e+07
6.2788e+07
-6.27741e+07
4.9357e+07
-4.9345e+07
3.26649e+07
4.76248e+07
-4.76132e+07
-4.62857e+07
488.291
-487.305
5.21474e+07
2.17994e+07
3.87325e+07
-1.76747e+07
1.1566e+07
-1.15623e+07
3.21312e+07
4.96911e+06
5.74769e+06
-2.32912e+07
1.51185e+07
4.15087e+07
1.01649e+07
-3.69918e+07
-2.23703e+07
4.07047e+07
-4.06887e+07
7.10842e+07
-7.10726e+07
9.46114e+07
-9.45989e+07
171637
-169581
-1.11525e+08
1.11539e+08
-2.77052e+07
7.17365e+07
-7.17189e+07
6.92477e+07
-6.92362e+07
-1.00442e+08
1.00454e+08
-4.13678e+07
3.98556e+06
-1.86955e+07
1.79183e+07
2.36156e+07
-2.3609e+07
2.07276e+07
-8.43074e+06
-5.23148e+07
5.23185e+07
-2.76386e+07
-1.86289e+07
893250
-3.04518e+07
-1.90652e+07
1.93891e+07
8.32849e+07
-8.32717e+07
3.35869e+06
9.31119e+07
-9.30978e+07
5.14727e+07
3.62247e+07
2.21507e+07
9.34142e+07
-9.34003e+07
5.1628e+07
-5.16193e+07
9.54269e+07
-9.54142e+07
2.29542e+07
-3.76768e+07
-2.80908e+07
2.28126e+07
2.39443e+06
-7.72868e+07
7.73052e+07
1.10501e+08
-1.10485e+08
2.32071e+07
-2.32003e+07
8.46595e+07
-8.46462e+07
-1.71093e+07
-2.02435e+06
2.05787e+06
-1.59762e+07
1.96957e+07
-1.00707e+08
1.0072e+08
9.70504e+06
6.52691e+07
-6.52552e+07
-9.59237e+07
9.59402e+07
-6.76771e+06
9.92222e+07
-9.92066e+07
-1.60621e+07
-1.76046e+07
4.74607e+07
4.22772e+07
3.9935e+07
-3.99243e+07
5.00735e+07
-5.00637e+07
-2.86954e+07
-3.02512e+07
-3.13909e+07
3.13575e+07
2.98417e+07
6.44915e+07
-6.44776e+07
-5.84883e+07
-2.42314e+07
-5.05307e+07
3.49059e+06
-5.97291e+07
5.97434e+07
-8.70946e+07
8.71108e+07
-1.98231e+07
2.06049e+06
5.65244e+06
-1.12197e+08
1.12211e+08
-2.05809e+07
2.05159e+07
-3.20443e+07
2.60115e+06
-6.31264e+06
-2.10293e+07
1.02106e+07
-4.24259e+07
-9.15696e+07
9.15854e+07
-3.1848e+07
-5.80878e+07
-6.18442e+07
-4.95597e+07
4.95645e+07
-5.30736e+07
-1.89392e+07
-8.70725e+07
8.70883e+07
-2.6615e+07
4.48295e+06
1.11212e+08
-1.11196e+08
-6.55979e+07
-8.41628e+07
8.41801e+07
-3.53852e+07
3.15769e+07
-3.75442e+07
9.27822e+07
-9.27694e+07
-1.79634e+07
1.79692e+07
-2.37812e+07
-6.46696e+07
9.25853e+07
-9.25724e+07
24899
-24725.8
2.01466e+07
-2.53608e+07
-1.07461e+07
1.07513e+07
-3.11859e+07
2.40963e+06
6.62748e+06
-9.89219e+07
9.89348e+07
-1.72203e+07
-7.77512e+07
7.77694e+07
-2.98168e+07
8.71682e+07
-8.7155e+07
7.17101e+07
-7.16986e+07
1.85518e+06
-1.85524e+06
4.68161e+06
8.97614e+07
-8.97482e+07
-5.96764e+07
8.70595e+07
-8.70466e+07
9.60091e+07
3.59777e+07
-1.07911e+08
1.07927e+08
3.8299e+07
6.16496e+07
6.10743e+07
-4.85904e+07
2.24729e+07
284749
-3.32929e+07
5.08935e+07
-4.75618e+07
-1.03107e+08
1.03122e+08
-2.21351e+07
-1.64522e+07
-6.50564e+07
-6.58171e+07
7.91813e+07
-6.02932e+07
5.23638e+07
-5.23498e+07
2.06569e+07
3.53373e+06
5.56475e+07
8.94881e+07
-8.94751e+07
9.838e+07
-9.83646e+07
7.44005e+06
-1.41548e+07
7.64962e+07
-7.64777e+07
3.86473e+07
-2.23886e+07
-4.18918e+07
9.84662e+06
5.77023e+06
-6.05098e+07
6.05244e+07
-5.22846e+07
5.23006e+07
4.413e+07
-5.43099e+07
1.08823e+07
-1.06405e+07
-22648.8
22125.5
-2.25054e+07
-2.80419e+07
1.29118e+07
4.45689e+07
2.47316e+06
-2.16203e+07
-8.52534e+07
8.52666e+07
-9.89861e+07
9.89985e+07
-4.80574e+07
6.40123e+07
-9.26842e+07
9.26967e+07
1.44164e+06
8.28604e+06
-8.55192e+07
8.55335e+07
-1.29967e+07
1.46653e+07
-1.46565e+07
3.14647e+07
3.22294e+07
-6.23037e+06
-198403
-892.494
908.134
907789
-908327
4.33993e+07
-4.85063e+07
4.85207e+07
1.37224e+06
3.14825e+07
1.88439e+06
-1.88614e+06
-3.93181e+07
-2.64472e+07
-2.11066e+07
3.26992e+07
-7.53695e+07
1.00506e+07
4.40562e+07
-5.28687e+07
-1.8569e+07
5.28689e+07
-8.58296e+07
8.68974e+06
3.66821e+07
-3.14815e+07
3.14903e+07
-1.70658e+07
1.10245e+07
8.11063e+07
-8.10937e+07
-6.30782e+07
6.33768e+07
64544
-64185.1
-3.42724e+07
1.84322e+07
-1.84265e+07
-2.69346e+07
1.26214e+07
-4.87119e+07
4.87361e+07
9.23955e+07
-9.23823e+07
-34882.4
34894.5
6.10977e+06
-1.0768e+08
1.07694e+08
-5.63049e+06
-4.22346e+07
-8.97839e+07
8.97966e+07
-9.47534e+07
9.4772e+07
1.817e+07
-3.91001e+07
-6.3883e+06
-2.72638e+07
2.72713e+07
-1.06525e+08
1.06539e+08
-1.78459e+07
-6.00513e+07
-2.20861e+07
-6.09863e+07
-6.0659e+07
-3.62362e+07
-3.9774e+07
3.99103e+07
3.04478e+07
-3.98925e+07
1.04669e+08
-1.04653e+08
-3.20713e+07
1.25384e+07
1.73194e+07
-6.22165e+07
-5.00649e+07
-3.50975e+06
-3.14634e+07
1.17721e+07
4.23526e+07
4.408e+06
1.9086e+06
-9.25645e+06
3.87989e+07
2.1055e+07
-8.8488e+07
-4.16563e+07
7.11263e+07
-7.11149e+07
2.661e+07
-2.58872e+07
1.24298e+07
-2.85188e+07
2.85267e+07
1.04903e+06
2.09743e+07
-4.7743e+07
2.85412e+06
4.76706e+07
95940.8
-96024.3
-1.80499e+07
5.15116e+07
3.86426e+07
6.32842e+07
3.40552e+07
-4.48027e+07
1.92806e+07
-5.59435e+07
1.60216e+07
6.98607e+06
4.71781e+06
-8.43744e+07
-9.0145e+07
9.01574e+07
-7.84219e+07
7.40257e+06
6.04123e+07
-3.0392e+07
8.69312e+07
-8.69183e+07
-6.21156e+07
6.21269e+07
6.28138e+07
5.83874e+06
5.26797e+06
-5.26723e+06
-7.93078e+07
7.92823e+07
5.57882e+07
-5.57745e+07
13926.8
-13985.8
-1.94282e+07
-1.3927e+07
-5.00666e+07
-5.1956e+06
-1.33328e+07
-8.61565e+07
8.6175e+07
-8.44067e+07
8.44249e+07
5.52401e+07
-5.52297e+07
4.64742e+07
-4.64633e+07
-1.19552e+07
315233
-1.2176e+07
-4.82396e+07
2.19958e+07
5.88901e+07
-2.01512e+07
-1.0768e+08
1.07697e+08
-5.30339e+07
2.69106e+07
1.35767e+07
7.10806e+07
6.11076e+07
-4.1527e+07
-1.50505e+07
8.63041e+07
-8.62908e+07
-2.42716e+07
2.43274e+07
1.38734e+07
-1.38674e+07
8.87365e+07
-8.87233e+07
2.30862e+06
1.2722e+07
-1.49365e+07
1.95359e+07
8.58351e+07
9.27809e+06
-7.39454e+07
7.39633e+07
-3.44556e+07
4.26984e+07
2.73569e+06
-4.89695e+07
4.89839e+07
2.40457e+07
-2.40389e+07
3.1562e+07
-7.38516e+07
-4.28297e+07
-2.95071e+07
2.95137e+07
-4.75033e+07
-7.69119e+06
4.31877e+07
-4.31747e+07
-3.64543e+07
9.93478e+07
-9.93263e+07
7.53056e+07
-7.52881e+07
-4.9135e+07
-6.73336e+07
6.73491e+07
-2.48121e+07
-3.53129e+07
8.20805e+07
-8.20674e+07
-6.32542e+07
-9.09383e+07
9.09508e+07
5.28703e+07
-8.21376e+07
8.21503e+07
-5.23296e+07
5.23473e+07
-1.25326e+07
5.24525e+07
-5.24408e+07
-4.24428e+07
-8.57277e+06
-1.00555e+07
-1.38337e+07
6.05293e+07
-6.05202e+07
-1.02556e+08
1.02569e+08
-3.85094e+07
-6.48938e+07
3.62348e+07
3.94619e+06
-4.38606e+07
-4.02985e+07
2.20628e+07
-4.99141e+06
4.99219e+06
-7.52677e+07
-9.95974e+07
9.96098e+07
3.82673e+07
3.90437e+06
-8.25846e+07
8.25975e+07
-4.13671e+07
-5.09499e+07
5.0965e+07
491167
6.05361e+06
-1.50134e+07
-3.44829e+07
-3.27607e+07
4.24208e+07
-4.24087e+07
-4.56445e+07
-1.06246e+06
7.27292e+07
-7.27155e+07
1.66931e+07
-4.58471e+07
4.58579e+07
-1.34063e+07
2.75898e+07
-2.7582e+07
-8.15463e+07
8.15627e+07
-3.2326e+07
3.23348e+07
5.08538e+07
-3.3822e+07
3.37641e+07
5.01171e+07
-4.08697e+07
4.08803e+07
-3.55043e+07
1.68562e+07
-1.92474e+07
-5.30911e+07
3.90963e+06
-9.89129e+06
-1.83971e+07
-8.41777e+07
4.90039e+07
-4.89918e+07
3.90244e+07
4.99438e+07
-4.99338e+07
-3.69074e+07
-6.81429e+07
6.81543e+07
-1.32714e+07
-3.55806e+06
-4.67195e+07
4.67305e+07
8.53571e+07
-8.53441e+07
6.52137e+07
2.39304e+07
3.88376e+07
7.12893e+07
-7.12764e+07
9.67498e+07
-9.67367e+07
3.09381e+07
-2.41654e+07
1.23933e+07
-1.27172e+07
3.456e+07
-3.45366e+07
-3.94653e+07
-230977
-422627
424809
232183
-2.42392e+07
780841
-787727
-4.07374e+07
4.07481e+07
-2.11262e+07
2.11326e+07
2.692e+07
-2.69125e+07
6.19735e+06
6.16276e+07
-6.16177e+07
-5.02546e+07
-2.39231e+07
-5.81731e+07
5.81827e+07
-3.01058e+07
6.73931e+07
-6.73808e+07
-3.94164e+07
-2.95987e+07
6.14938e+07
-2.99654e+07
2.99736e+07
6.04163e+07
4.52375e+06
-43520.7
-2.88071e+07
-8.453e+07
8.45431e+07
-8.40999e+06
4.80481e+07
-1.07399e+08
1.07413e+08
13430.7
-13474.9
5.43071e+07
-5.42992e+07
4.71723e+07
-7.51022e+06
1.0771e+08
-1.07698e+08
-3.15602e+07
-4.83486e+07
8.91576e+06
2.13067e+07
4.11533e+07
3.52306e+07
1.95776e+07
-1.70165e+06
-1.39387e+07
-5.87976e+07
3.76461e+07
5.55136e+07
-5.30354e+07
-2.69286e+07
-2.23287e+07
49111.5
-49398.8
6.78944e+07
-6.78831e+07
4.03684e+07
-3.29156e+06
-2.37954e+07
-8.61788e+06
4.86168e+07
5.20053e+07
-4.84474e+07
-5.27119e+06
3.38176e+07
-3.7113e+07
-1.25817e+07
2.18351e+07
-2.18284e+07
4.33947e+07
6.83476e+07
-6.49262e+06
-3.40521e+07
8.61586e+07
-8.61454e+07
-9.36004e+07
9.36132e+07
-17833.9
17460.9
-4.6267e+06
-6.26054e+06
-2.70247e+07
-3.31335e+06
-4.47801e+07
4.47877e+07
2.95434e+07
3.70982e+06
-3.70976e+06
-9.92532e+07
9.92662e+07
-7.79518e+07
7.64043e+07
-7.6392e+07
-1.36819e+07
6.18285e+07
-3.87958e+07
-2.25196e+07
6.13203e+07
6.82527e+06
8.14125e+07
-8.13995e+07
3.29002e+07
-9.47216e+06
9.44858e+07
-9.44668e+07
-3.28001e+07
-8.80039e+07
-2.57599e+07
8.80174e+07
2.31983e+07
-2.3159e+07
4.43467e+07
3.23174e+07
-4.65192e+07
-1.87494e+06
-4.64875e+07
-2.16366e+07
8.16641e+07
-1.50762e+07
2.85166e+07
-2.85094e+07
-9.32817e+07
9.32943e+07
2.34587e+07
6.45131e+06
-8.24298e+07
8.24428e+07
-5.11657e+07
4.22372e+07
3.44279e+07
1.62654e+07
3.82211e+07
1.86451e+07
-1.86393e+07
-1.32509e+07
4.6309e+07
-4.62989e+07
-9.22546e+07
9.22674e+07
1.05415e+06
-3.51981e+07
-6.4024e+06
-8.16079e+07
6.8195e+07
-6.81771e+07
3.47622e+07
3.98076e+06
-2.47997e+07
-5.5339e+07
-2.26838e+07
-3.29718e+07
-1.27415e+07
-3.27949e+07
3.91004e+07
9.39193e+07
-9.39067e+07
7.55978e+07
-7.558e+07
6.14595e+07
-6.04633e+07
-1.35561e+07
6.08216e+06
9.12915e+07
-9.12787e+07
-6.40989e+07
-5.81402e+07
1.70593e+06
-2.37787e+07
7.24058e+06
3.2684e+06
-3.26155e+06
-2.47647e+07
-9.81318e+06
9.94151e+07
-9.93986e+07
-2.59348e+06
2.65527e+07
-5.1085e+06
1.10674e+08
-1.1066e+08
-3.27836e+07
3.27946e+07
-3.90663e+07
-1.93219e+07
1.93285e+07
-1.374e+07
-6.24797e+06
3.24335e+06
5.95148e+06
8.51979e+07
-8.5185e+07
-1.21714e+07
-4.80823e+07
4.80961e+07
9.5576e+07
-9.55629e+07
-3.20552e+07
3.1849e+07
4.65258e+07
-4.6515e+07
-9.51728e+07
9.51906e+07
1.09939e+07
-6.01951e+07
9.76906e+07
-9.76734e+07
-6.30164e+07
-4.63492e+06
4.64492e+07
-4.64392e+07
7.57913e+07
-7.57782e+07
-5.34344e+07
-8.49579e+07
8.4971e+07
-1.04668e+08
1.04681e+08
5.34363e+07
2.58157e+07
3.71313e+07
1.68294e+07
6.67119e+07
-6.6698e+07
-8.40639e+07
5.08337e+06
6.41157e+06
8.40745e+07
2.67465e+07
4.29645e+07
-3.73096e+07
4.60999e+07
-4.60904e+07
951148
1.22835e+07
-4.52316e+07
6.73563e+07
-6.73804e+07
2.61921e+07
-2.97166e+06
64146.2
-62694.8
-3.35757e+07
-3.85565e+07
-3.1178e+07
9.75094e+07
-9.74936e+07
-5.63109e+07
-4.64971e+07
-5.51129e+07
2.88968e+07
4.42233e+07
-4.42121e+07
-5.99254e+07
2.25885e+07
5.63565e+07
-3.31487e+07
3.33684e+07
5.51189e+07
-5.54469e+07
4.76566e+07
-4.76464e+07
-8.34534e+07
8.34662e+07
5.42802e+07
-1.9225e+07
3.52022e+07
7.76541e+07
-7.76366e+07
-7.63066e+07
7.63201e+07
104949
-2.87539e+07
6.71205e+07
-6.71067e+07
-3.88829e+07
7.18935e+06
-7.1872e+06
-3.06985e+07
-3.12732e+07
8.43805e+07
-5.07334e+07
-5.31228e+07
-6.36626e+07
3.43515e+07
-3.66513e+07
-1.22989e+07
9.61522e+07
-9.61394e+07
-5.28842e+06
1.23813e+06
1.68897e+07
-3.73371e+07
-1.59628e+07
-8.85413e+06
-5.24404e+06
3.53628e+07
-2.80705e+07
2.49079e+06
1.42076e+07
-3.32886e+07
2.73407e+07
-7.71382e+07
1.91515e+07
-1.97637e+07
-5.11795e+06
5.1188e+06
3.26709e+07
-1.00501e+07
1.00506e+07
-2.64307e+07
-1.49024e+07
6.20476e+07
-6.2038e+07
3.35174e+07
7.25172e+06
-7.25238e+06
-2.79912e+07
-1.6563e+07
3.12608e+07
-4.08825e+07
4.68428e+07
2.98356e+07
-8.95895e+07
3.64357e+07
3.02281e+07
5.05537e+07
2.03348e+07
-2.03288e+07
1.21765e+07
-1.23936e+07
273809
-274202
4.9791e+07
-1.50295e+06
3.70367e+07
2.75001e+07
-3.6507e+07
3.65161e+07
-6.21811e+07
-1.13325e+07
3.16351e+07
-74021.8
73834.7
-3.52104e+07
-2.41496e+07
-734441
4.2038e+06
-1.75594e+07
6.08965e+07
3.13095e+07
-4.56286e+07
-3.78903e+07
3.78993e+07
-7.131e+07
-5.56307e+07
1.17449e+06
6.81621e+06
-4.14476e+07
-6.45962e+07
6.46144e+07
2.67248e+06
-2.80368e+07
-6.85234e+07
-5.40675e+06
5.40767e+06
-3.64303e+07
1.66167e+07
3.69937e+07
-8.56179e+07
8.56312e+07
-1.59335e+07
-4.51532e+07
4.51743e+07
5.90089e+07
-5.89924e+07
2.78696e+07
-3.70795e+07
223419
-221233
-3.01701e+07
1.45502e+06
1.09348e+07
9.34483e+07
-9.34353e+07
-1.08946e+07
1.01055e+08
-1.01035e+08
5.75332e+06
4.47813e+07
-1.50506e+07
-6.6082e+07
-2.78732e+07
-9.46427e+06
6.61002e+07
6.72679e+07
7.85417e+06
-2.80685e+07
-3.98531e+07
3.98641e+07
3.85612e+07
-3.96689e+07
6.01496e+07
2.97347e+07
4.07128e+07
-8.95879e+06
6.85253e+06
-1.4031e+07
-2.26176e+07
2.62848e+06
8.75274e+06
-1.39383e+07
-9.28464e+06
465459
3.92258e+07
2.28601e+07
-5.07627e+07
-3.72778e+07
-1.68765e+07
-6.22675e+07
5.83429e+07
-5.4507e+07
5.45188e+07
1.14515e+07
-4.64057e+06
-3.58012e+07
3.58061e+07
7.32067e+07
-7.31931e+07
-2.49126e+07
-9.73492e+06
5.02881e+07
-5.76763e+06
5.76714e+06
9.08292e+07
-9.08166e+07
6.21153e+06
1.35143e+06
-3.23296e+07
-9.09025e+06
-7.45505e+06
-1.78065e+06
-8.02769e+06
-1.98983e+06
6.20786e+07
6.01577e+07
-6.0148e+07
3.49531e+07
-3.4897e+07
1.56571e+07
1.49664e+07
9.10672e+07
-9.10543e+07
7.95623e+06
1.59514e+07
3.53851e+07
-1.3268e+07
-5.6904e+07
-2.41729e+07
2.21966e+07
-1.85273e+07
6.7899e+07
-1.04153e+07
-2.11662e+07
8.06801e+07
6.24632e+07
-6.24531e+07
-7.18502e+07
1.22563e+07
3.9553e+07
-2.98197e+07
3.09535e+07
7.96591e+07
-7.95969e+07
-3.12534e+07
-8.25814e+07
-3.42868e+06
3.4304e+06
6.17435e+06
-6.1727e+06
2.29015e+07
3.29972e+07
-3.0318e+07
9.40354e+07
-8.55848e+07
8.5604e+07
1.31922e+07
-1.31846e+07
-1.5183e+07
9.62431e+07
-9.62301e+07
-3.86729e+07
3.81629e+07
-1.04473e+07
-21838
21774.8
-3.17006e+07
-1.50512e+07
7.65701e+07
-2.0436e+07
-8.81749e+07
8.81904e+07
3.39462e+07
7.30828e+07
-7.25573e+07
2.74312e+07
1.80191e+07
-2.48727e+06
3.6091e+07
-3.60806e+07
-9.03978e+07
9.04108e+07
-1.69122e+07
-4.21772e+07
4.21813e+07
-8.49139e+07
8.49272e+07
1.87336e+07
-4.58555e+07
3.85459e+07
-1.51676e+07
3.33747e+07
-3.33636e+07
-2.95191e+07
1.36464e+07
6.60858e+07
-668639
-2.70042e+07
2.70115e+07
-3.93573e+07
1.89053e+07
7.84456e+07
7.89643e+07
-7.89509e+07
5.87141e+07
-7.75758e+06
-2.99472e+07
2.94571e+07
9.73179e+07
-9.72986e+07
-4.18132e+07
6.62204e+07
-6.62084e+07
4.06637e+07
-6.53535e+07
-5.2249e+07
5.22481e+07
3.4976e+07
2.40471e+07
1.86558e+06
-2.89286e+06
-4.85861e+07
1.53621e+07
-1.24298e+07
35520.6
-35731.1
6.54105e+07
7.80484e+06
-7.80218e+06
7.8068e+07
-7.80507e+07
27354
9.53655e+07
-9.53475e+07
-6.39442e+07
6.39587e+07
-1.02932e+08
1.02945e+08
2.66337e+07
9.4877e+07
-9.48643e+07
7.73284e+06
-3.20691e+07
-1.33537e+06
-2.9535e+07
2.05916e+07
-2.80719e+07
7.37928e+07
-7.37814e+07
-1.94218e+07
1.94304e+07
1.9452e+07
-2.66979e+06
1.49237e+06
6.01663e+07
1.04977e+07
4.38438e+07
-6.5094e+07
9.94628e+06
-1.30186e+07
2.84304e+06
-2.84306e+06
6.06394e+07
-4.1778e+07
5.98079e+07
-3.88647e+07
-1.88863e+07
7.64523e+06
4.02842e+07
-4.0261e+07
3.95184e+07
2.19348e+07
-3.51695e+07
3.51821e+07
-1.48777e+07
-4.65215e+07
-9.21074e+07
-4.92153e+07
4.92242e+07
6.48481e+07
-3.12737e+07
3.81304e+07
-4.02253e+07
4.88044e+07
9.21225e+07
4.0234e+07
5.12608e+07
4.20146e+07
2.46285e+07
3.85115e+07
-1.25063e+07
3.37047e+07
2.53016e+07
1.92884e+07
-6.03456e+06
-2.07009e+07
3.54371e+07
-3.81103e+07
-2.34061e+07
7.48062e+07
-7.4793e+07
-5.37986e+07
1.49787e+07
-1.37234e+07
-1.60912e+07
6.3911e+07
-6.20148e+07
7.42727e+06
-7.67424e+07
-2.66226e+07
1.16449e+07
6.20354e+07
3.40049e+07
-4.99688e+07
2.13002e+07
-9.26349e+06
5.84677e+07
-5.75944e+07
3.95719e+07
57017.4
-58054
-6.51407e+07
-7.06568e+07
7.06748e+07
3.35378e+06
8.11388e+07
-8.11243e+07
9.69649e+06
1.70814e+07
-1.7076e+07
-4.23473e+07
322389
9.84318e+06
9.92458e+07
-9.92326e+07
-4.76115e+06
-7.62316e+07
8.28387e+07
-3.03849e+07
7.84189e+07
-7.84022e+07
-4.32871e+07
1.21458e+07
7.52824e+06
-7.07302e+07
3.73147e+07
-3.731e+07
9494.26
-9581.4
4.95511e+06
2.31904e+07
4.43773e+07
-4.43664e+07
8.37626e+07
-8.37496e+07
-6.97635e+07
1.53537e+07
3.10249e+07
7.72757e+07
-7.72634e+07
3.78056e+06
-147666
146610
-7.30628e+07
7.30445e+07
-8.37826e+07
8.37955e+07
-7.76106e+07
9.06986e+07
-9.06856e+07
5.78526e+07
-5.78368e+07
4.3106e+07
-2.00276e+07
-8.46841e+07
8.27681e+07
3.51462e+07
2.32011e+06
-8.2758e+07
1.50415e+07
4.33689e+07
4.59131e+07
4.99898e+07
2.95023e+07
8.65396e+07
-8.65269e+07
-2.23725e+07
-6.60493e+07
6.60644e+07
9.34769e+07
-9.34632e+07
-3.2643e+07
-6.24036e+07
6.24147e+07
3.72818e+07
-3.72761e+07
-3.70632e+07
3.57041e+07
-3.56897e+07
3.7002e+07
-9.36852e+07
9.36979e+07
2.36596e+07
-1.63455e+07
-3.75885e+07
-7.07581e+06
3.22439e+07
-3.21691e+07
1.42463e+07
-3.58635e+07
1.72012e+07
-2.85403e+07
-3911.66
3903.73
-1.02407e+08
1.02421e+08
-1.45137e+07
2.61556e+07
9.89026e+07
-9.88834e+07
-3.95114e+07
3.43255e+07
1.88558e+07
-6.13652e+07
6.1705e+07
3.72393e+07
-2.3513e+06
-6.38629e+07
8.39357e+06
-9.79094e+07
9.79269e+07
-4.0497e+07
4.0509e+07
-5.92318e+07
5.92459e+07
1.50393e+06
-1.51809e+06
1.66731e+07
-5.84304e+07
-1.17612e+07
-3.27814e+07
-3.42988e+07
-7.06977e+06
1.04337e+06
-1.04384e+06
-1.68318e+07
-2.23097e+06
3.22247e+07
-3.69412e+07
3.69514e+07
2.89953e+07
-2.19499e+06
-4.48696e+07
6.49324e+07
-6.49201e+07
-3.96138e+07
6.27223e+06
-6.58274e+07
6.5841e+07
-2.74418e+07
-6.54538e+07
6.54646e+07
-5.40515e+07
-2.97199e+07
-3.71676e+07
-1.96165e+07
2.21291e+07
-2.2213e+07
8.38178e+07
1.87459e+07
4.82625e+07
-4.82526e+07
2.22092e+06
3.87231e+07
-3.87126e+07
6.56018e+06
7.18561e+07
-7.18439e+07
-2.29853e+07
2.29919e+07
-4.02331e+06
-2.17298e+07
2.17403e+07
-7.21264e+07
7.21398e+07
4.45948e+07
-2.62057e+07
-4.43738e+07
3.79688e+07
-3.79585e+07
4.417e+07
-1.47392e+07
-3.93728e+07
3.93909e+07
9.75181e+06
8.39512e+07
-8.3931e+07
1.17432e+07
5.68113e+07
9.14689e+07
-9.14564e+07
-192163
193838
-3.66054e+06
8.10561e+07
-8.10436e+07
1.00762e+07
3.76992e+07
-3.76834e+07
3.80503e+06
-3.80436e+06
-1.14532e+06
3.69149e+07
8.34706e+07
-8.34506e+07
-1.06177e+08
1.06192e+08
3.41537e+07
3.98891e+06
-4.88337e+06
4.8841e+06
2.45926e+07
-23715.7
23634.4
-9.779e+07
9.78024e+07
-2.62692e+07
7.82826e+06
-7.82625e+06
1.17566e+07
-8.37159e+07
8.37289e+07
-2.18602e+07
-1.14244e+07
-9.2222e+07
9.22352e+07
-8.38201e+07
8.38385e+07
-2.57094e+07
2.30458e+06
-6.11934e+07
2.86685e+07
-1.89029e+07
-9.76438e+06
3.16303e+07
3.49523e+07
-3.99562e+07
4.00225e+07
-7.49354e+07
7.49489e+07
9.18989e+07
-9.18859e+07
7.34431e+07
-3.86455e+07
-8.62428e+06
3.17389e+06
-8.65519e+07
-3.78354e+07
5.97347e+07
5.55734e+07
-6.03134e+07
5.03906e+07
-5.03777e+07
-3.00831e+07
3.00915e+07
7.47336e+06
-1.05662e+07
-3.68941e+07
1.78529e+06
-3.79563e+06
3.07946e+07
-3.38189e+07
-1.42958e+07
4.03743e+07
-4.036e+07
896400
-4.5164e+07
4.51788e+07
-1.86833e+07
-9.45148e+07
9.45365e+07
-8.85665e+07
8.85816e+07
-1.34281e+07
-6.64538e+07
6.6465e+07
1.12221e+08
-1.12207e+08
7.41293e+07
-7.41177e+07
3.57981e+07
-3.57883e+07
8.15844e+07
1.97834e+07
2.57907e+07
-1.20629e+07
-3.14177e+07
3.14262e+07
-6.75333e+07
6.75444e+07
-2.33343e+07
2.29117e+07
-1.98108e+07
1.05771e+08
-1.05758e+08
3.94439e+07
-5.38641e+07
5.38679e+07
-3.09046e+07
-3.85687e+07
5.65756e+07
-1.71565e+07
3.58861e+07
-3.58335e+07
5.21126e+06
-4.02496e+07
3.70928e+07
781854
-782113
6.91431e+07
1.4257e+07
1.41299e+07
-2.02623e+07
-4.89922e+07
-7.98022e+07
1.91547e+07
1.23716e+07
-1.23673e+07
7.97373e+07
-7.97238e+07
4.06788e+07
-4.06681e+07
-2.23295e+07
1.92004e+07
1.85332e+07
1.07837e+07
-1.9652e+07
-6.75872e+07
2.48299e+07
2.71181e+07
1.18646e+07
-7.7086e+07
7.70593e+07
1.30948e+06
-1.31018e+06
2.10596e+07
1.6915e+07
-5.25266e+07
5.25372e+07
3.63435e+07
-3.63337e+07
9.80193e+07
-9.8006e+07
-2.51287e+07
-1.27997e+07
1.27039e+07
6.31585e+06
-7.13296e+07
7.22105e+07
-8.7639e+07
8.7652e+07
3.96047e+07
-1.51612e+06
6.56923e+07
-6.56745e+07
-4.22634e+07
4.20121e+07
3.13165e+07
-1.24631e+07
-4.05672e+07
-2.00177e+07
3.3497e+07
-3.34353e+07
5.12586e+07
-5.12479e+07
-5.90411e+07
8.71266e+07
-8.71133e+07
7.47795e+07
-7.47616e+07
8.03099e+07
3.4761e+07
-3.47234e+07
-2.19834e+07
2.19904e+07
1.24956e+07
-2.32077e+07
-4.72479e+07
-3.68098e+07
3.68262e+07
-4.285e+06
4.28535e+06
2.1109e+06
4.66722e+07
-6.01727e+07
6.01834e+07
4.75275e+07
2.08711e+07
-1.04999e+08
1.05014e+08
2.01129e+07
5.59671e+07
-7.09465e+07
2.21812e+07
-6.26889e+07
-7.26965e+07
7.27085e+07
2.51401e+07
7.74914e+07
-7.74789e+07
1.46198e+07
2.51439e+07
6.26996e+07
-5.61975e+07
5.62087e+07
-2.88666e+07
3.06844e+07
-356774
9.0333e+07
-9.03198e+07
8.00682e+06
-1.35826e+07
5.20305e+07
-5.20166e+07
3.26345e+07
-3.38181e+07
3.3589e+07
3.66717e+06
2.46662e+06
-2.30894e+06
4.9812e+07
-4.97993e+07
1.04351e+07
-1.53113e+07
-3.38801e+07
6.32794e+07
-4.78583e+06
-1.72787e+07
-5.78717e+06
2.39422e+06
3.26021e+07
7.6506e+07
-2.63658e+07
7.30047e+07
-7.29866e+07
-3.45615e+07
1.1367e+06
-1.13701e+06
7.8405e+07
-7.83903e+07
2.6761e+07
-8.33611e+07
8.33777e+07
3.36936e+07
7.55128e+07
-1.07016e+07
-83793.5
83676.1
5.33549e+06
-6.75326e+07
6.75459e+07
-4.34754e+07
4.69484e+06
4.48611e+07
-542932
-7.33865e+07
3.45927e+07
-2.31519e+07
2.31612e+07
4.06919e+07
-4.06813e+07
-3.85614e+07
1.74986e+07
3.33676e+07
-7.56608e+07
7.5673e+07
-8.68509e+06
5.00981e+06
-5.00856e+06
-907330
-9.20715e+07
9.20842e+07
-1.30301e+07
2.25444e+07
-3.06318e+07
2.65957e+07
-2.66685e+07
4.24942e+07
-4.24797e+07
-3.06734e+07
3.35008e+07
-4.43497e+07
4.44611e+07
5.43135e+07
-3.72916e+07
-5.59532e+07
4.22564e+06
-6.9177e+07
-1.4633e+07
3.5625e+07
-3.5604e+07
-1.05905e+06
1.38198e+07
-1.3815e+07
7.49495e+07
-7.49432e+07
6.19079e+07
8.4575e+07
5.60618e+06
1.32457e+07
3.61732e+07
2.94301e+06
-7.0257e+07
-6.76727e+07
4.65714e+07
2.89762e+07
-3.86503e+07
-1.28613e+07
3.82999e+07
-4.86071e+07
4.86193e+07
4.93478e+07
-4.93376e+07
6.14916e+07
-6.21178e+07
2.75137e+07
-4.62143e+07
4.62287e+07
4.87805e+06
-5.12521e+07
5.14509e+07
-7.63805e+07
7.63926e+07
1.9269e+07
5.23792e+07
-1.12538e+07
-3.84623e+07
-6.89964e+07
8652.06
-8713.95
3.35499e+07
-1.81491e+07
2.20327e+07
-1.91816e+07
1.02663e+07
3.59462e+07
-3.59347e+07
-6.34221e+07
6.34322e+07
3.44476e+07
-7.32236e+07
9.45417e+07
-9.4529e+07
-5.65063e+07
5.65152e+07
3.015e+07
2.12928e+07
2.42002e+07
3.12912e+07
5.40411e+07
-5.4158e+07
2.17184e+07
-4.83531e+07
4.83533e+07
-3.32561e+07
3.32652e+07
5.12627e+07
2.14028e+07
-2.13965e+07
3.56674e+07
-3.56451e+07
4.63572e+07
-2.76017e+07
2.75008e+07
-1.6937e+07
1.48827e+07
1.71696e+06
-1.93002e+07
-3.43601e+07
3.54353e+06
-3.53982e+06
-2.87797e+07
3.43837e+07
-5.92157e+07
5.92294e+07
2.32267e+07
3.07756e+07
3.25873e+07
3.78054e+07
3.25041e+07
-3.24951e+07
4.02159e+07
-9.07983e+07
9.08155e+07
3.94502e+07
3.85073e+07
-1.91855e+07
-6.04091e+07
5.38764e+07
-5.3866e+07
1.89601e+07
4.50896e+07
3.68564e+07
-8.42539e+07
8.42666e+07
5.51465e+07
-5.51295e+07
2.84588e+07
-3.01671e+07
-2.49667e+07
-6.67449e+06
2.56581e+07
2.23445e+07
2.99198e+07
-2.78182e+07
3.25308e+06
-3.86578e+06
-6.39119e+07
6.39225e+07
7.87052e+06
9.64754e+07
-6.92325e+07
6.92441e+07
6.20004e+07
-4.41615e+07
3.69361e+07
-3.06097e+07
4.4191e+07
-8.92191e+07
8.92316e+07
1.27845e+07
4.59946e+07
-6.66554e+07
6.66661e+07
3.81693e+07
-3.28953e+07
5.31135e+07
7552.69
-7436.41
3.27796e+07
7.98319e+07
-7.98163e+07
3.18257e+07
-2.21446e+06
2.71906e+07
6.35461e+07
-5.14512e+07
-2.32201e+06
-9.64572e+07
55252.4
-55424.7
-2.08477e+07
4.5098e+07
1.484e+07
84162.5
-82519.4
4.18366e+07
-6.03699e+07
6.03818e+07
9.93973e+07
-9.93806e+07
-3.17757e+07
3.17844e+07
3.70558e+07
1.83818e+06
-1.8235e+06
-3.75564e+07
-1.84906e+07
2.63299e+07
2.82472e+06
-3.35494e+07
-3.15147e+07
7.09774e+07
-7.09804e+07
-6.77117e+07
6.77251e+07
-8.79189e+06
-3.48402e+07
-8.63008e+07
2.26582e+07
-4.31113e+07
-1.29502e+06
4.05415e+07
4.21569e+07
9.93807e+07
-9.93597e+07
-6.77802e+07
-2.45833e+07
-5.20696e+07
5.20867e+07
-1.12375e+07
-3.12976e+06
990985
3.01604e+07
12340.1
-12264.1
-1.65855e+07
8.44616e+06
-8.44551e+06
-656842
-8.76676e+07
8.76822e+07
-1.4916e+07
-3.8136e+07
5.04082e+07
3.81603e+07
-7.04476e+07
7.04123e+07
1.64291e+07
-1.9711e+07
-3.54469e+07
4.76829e+06
-8.68679e+07
8.68825e+07
4.57434e+07
-4.58199e+07
-8.79507e+07
1.41396e+07
-1.051e+08
1.05116e+08
1.92303e+07
-1.92243e+07
-3.36958e+07
7.00186e+07
-9.56413e+06
-5.63267e+07
5.6335e+07
9.56303e+07
-9.56175e+07
-954623
-5.443e+06
4.08027e+07
8.28473e+07
3.37127e+07
2.10679e+07
-6.46261e+07
6.46376e+07
-1.57901e+07
2.65074e+07
-4.01747e+07
-6.16063e+07
-1.56719e+07
-3.86951e+07
5.86681e+07
-5.86543e+07
7.77941e+07
-9.43169e+07
9.43297e+07
115039
-114686
4.54149e+07
3.6736e+07
9.67218e+07
-4.48417e+07
-5.16233e+07
5.16341e+07
-5.2343e+07
3.45952e+07
-7.21056e+07
3.29501e+07
-1.67458e+07
-1.00779e+08
1.00792e+08
-6.60098e+07
-4.90696e+07
4.90812e+07
-1.06277e+08
1.06294e+08
-9.67007e+07
-12163.4
12128.5
3.12936e+07
-1.03898e+08
1.03911e+08
-5.50042e+07
5.5018e+07
-3.67769e+06
3.67769e+06
5.08544e+07
1.65064e+07
7.572e+07
-7.57064e+07
-1.42076e+07
-2.10841e+07
6.34727e+07
-6.34608e+07
-3.91962e+07
-2.86958e+07
8.0109e+07
-8.00965e+07
-3.32756e+07
9.43934e+06
-9.4354e+06
5.43014e+07
110375
-2.87026e+07
1.02182e+08
-1.02161e+08
7.33194e+07
5.04978e+07
-5.04848e+07
-3.79353e+07
3.79475e+07
3.49184e+06
-3.49157e+06
1.70026e+07
6.45831e+07
-6.17214e+06
6.17304e+06
-5.86991e+07
5.87128e+07
-1.98171e+07
6.82918e+06
2.62246e+07
5.23525e+07
1.51694e+07
1.14511e+07
7.22987e+07
-7.22814e+07
7.32641e+07
-7.32515e+07
-1.11451e+08
1.11467e+08
-3.04276e+07
-3.44454e+07
3.41339e+07
7.09246e+07
-7.09113e+07
-2.80174e+07
-266659
267536
-1.47171e+07
-5.53797e+07
3.66845e+07
-3.6679e+07
-8.51303e+07
2.17609e+07
-4.45838e+07
-9.39488e+07
9.39613e+07
-2.93651e+07
-3.63027e+07
3.63318e+07
1.96997e+06
2.669e+07
-2.35859e+06
-5.31823e+07
-6.5953e+07
6.59709e+07
-8.03508e+06
-3.01794e+07
9.29866e+07
-4.30508e+07
4.30614e+07
1.7643e+07
7.33803e+07
-7.33679e+07
1.04297e+06
-2.21738e+07
-2.24518e+07
6.09298e+06
-1.58111e+07
6.82806e+06
-7.31475e+07
7.31609e+07
7.05892e+07
-7.05731e+07
-1.23911e+07
-9.0317e+07
9.03303e+07
-6.36128e+06
1.34206e+07
6.35291e+06
-2.84018e+07
2.84055e+07
3.25044e+07
-2.82021e+07
1.64014e+07
5.6361e+06
-3.12998e+07
2.42783e+07
7.03377e+07
-7.03226e+07
-1.79936e+07
-3.24417e+07
5.84075e+07
-2.38479e+07
-8.08643e+07
-6.52384e+07
-2.30021e+07
1.5066e+07
6.97434e+06
1.29186e+07
-9.85285e+07
9.85422e+07
-9.6004e+07
9.60169e+07
2.65952e+06
2.46564e+06
-2.48053e+06
-4.01738e+07
-1.7996e+07
3.1327e+07
-3.98578e+06
7.93588e+06
-7.24425e+07
-6.89963e+06
3.13178e+06
-9.8113e+07
9.8126e+07
-2.09768e+07
6.60397e+06
7.74617e+07
2.03747e+07
-2.03684e+07
-6.63292e+07
8.05518e+07
1.86982e+07
5.66319e+07
2.36455e+07
-5.07209e+07
5.6755e+06
-6.08604e+06
-1.89386e+07
499667
-1.017e+08
1.01713e+08
2.87127e+06
-2.85631e+06
2.66507e+07
4.67037e+06
5.16003e+07
-5.1567e+07
2.32151e+07
-1.83028e+07
2.31539e+07
-5.8706e+07
5.87187e+07
7.76107e+07
-5.86462e+06
4.73419e+07
-3.24989e+07
1.13068e+06
-6.21643e+07
2.02765e+06
-3.71474e+07
-615946
3.19957e+06
2.54247e+07
2.56772e+06
2.37192e+07
-4.57926e+07
9.73901e+07
-9.73772e+07
-4.38109e+07
4.38193e+07
2.69696e+07
-2.69892e+07
1.02788e+07
-5.37942e+07
4.00881e+07
-3.08584e+07
3.08668e+07
-7.6365e+07
3.01786e+07
-2.4672e+06
4.04161e+07
-3.77047e+07
-2.45202e+07
-1.36264e+07
-2.27697e+06
2.29739e+06
-3.8702e+07
3.87185e+07
-3.63718e+06
3.63732e+06
5.76203e+07
-5.26307e+07
2.48334e+07
-1.50336e+07
-3.04468e+07
2.4332e+07
745207
-2.96415e+06
-5.25571e+06
-2.70514e+07
5.23645e+07
-2.21143e+06
1.17266e+07
4.78657e+07
7.0066e+07
-7.00755e+07
4.40318e+07
-3.42634e+06
-1.09983e+07
7.48195e+07
-7.48059e+07
6.80999e+07
-6.80874e+07
-3.45624e+07
-1.44933e+07
-2.5707e+07
-3.18735e+07
3.20995e+07
3.00541e+07
-2.88189e+07
-8.54829e+06
-2.83957e+07
-1.79613e+07
1.75629e+07
-9.39501e+06
-8.16278e+06
1.26317e+06
-1.2674e+06
1.20872e+07
-4.61849e+07
5.91635e+07
-1.3761e+07
-4.64042e+07
4.64067e+07
-8.60352e+07
5.15335e+07
-5.15201e+07
398991
-398018
3.28071e+07
7.26959e+07
-7.26835e+07
145976
-3.72216e+07
854772
2.17792e+06
-2.03936e+07
2.03694e+07
-6.27603e+07
6.27721e+07
-1.97283e+07
5.38493e+06
4.62021e+07
8.53184e+07
-8.53011e+07
7.38611e+07
-7.38494e+07
3.44445e+06
-4.69055e+07
4.6914e+07
3.45839e+07
2.80524e+07
-8.28882e+07
8.29016e+07
1.2801e+07
-2.95544e+07
-3.38676e+07
1.14635e+07
-35595.2
35467.2
-5.65151e+07
5.65276e+07
-4.76166e+07
4.76308e+07
2.96761e+06
-2.96768e+06
-2.41693e+07
1.03689e+06
-1.03723e+06
-5.1144e+07
-7.10078e+07
3.2754e+07
5.26387e+07
-5.26251e+07
6.1747e+06
-5.9625e+07
5.646e+06
-5.53197e+06
-6.52222e+07
-4.11193e+07
4.11301e+07
-2.91568e+07
-1.73934e+07
-6.46915e+07
-9.25869e+07
9.26057e+07
5.89684e+07
6.87425e+07
-6.87259e+07
4.63791e+07
-4.63677e+07
-26630.3
26538.9
3.06732e+07
3.57936e+07
2.026e+07
9.23371e+07
3.43056e+07
3.68205e+07
-3.06484e+07
-3.01554e+07
9.14489e+07
-9.14357e+07
4.13932e+06
8.20034e+07
-8.19904e+07
-3.67864e+07
-4.55043e+07
4.55139e+07
-7.97032e+07
3.54937e+07
-7.95807e+07
7.95933e+07
-7.20427e+07
3.57055e+07
5.18358e+07
2.57687e+07
2.88274e+07
-6.34357e+07
6.34478e+07
2.85049e+07
-2.84924e+07
-1.52158e+07
-2.62672e+06
7.80117e+07
2.92453e+07
-7.51372e+06
-4.20289e+07
4.21593e+07
-1.37213e+07
-1.04867e+08
1.0488e+08
-7.67548e+07
7.67671e+07
7.17466e+06