/*--------------------------------*- C++ -*----------------------------------*\
| =========                 |                                                 |
| \\      /  F ield         | OpenFOAM: The Open Source CFD Toolbox           |
|  \\    /   O peration     | Version:  v3.0+                                 |
|   \\  /    A nd           | Web:      www.OpenFOAM.com                      |
|    \\/     M anipulation  |                                                 |
\*---------------------------------------------------------------------------*/
FoamFile
{
    version     2.0;
    format      ascii;
    class       volSymmTensorField;
    location    "6000";
    object      sigma;
}
// * * * * * * * * * * * * * * * * * * * * * * * * * * * * * * * * * * * * * //

dimensions      [1 -1 -2 0 0 0 0];

internalField   nonuniform List<symmTensor> 
27023
(
(-1.88455e+07 -1.55607e+07 1.57756e-13 -1.51464e+07 -2.11233e-14 -8.43408e+06)
(1.88512e+07 -1.5566e+07 1.03978e-13 1.51511e+07 -1.74062e-13 8.43667e+06)
(1.21404e+07 -1.15011e+07 6.86189e-13 1.20452e+07 -2.00387e-13 6.00095e+06)
(-1.21363e+07 -1.14974e+07 5.26558e-13 -1.20434e+07 1.55066e-13 -5.99948e+06)
(-1.90391e+07 -1.48257e+07 0 -1.42322e+07 0 -8.25529e+06)
(1.9045e+07 -1.48309e+07 -5.22654e-13 1.42364e+07 1.57736e-13 8.25779e+06)
(1.02589e+08 -1.4506e+07 4.34303e-12 5.42345e+06 -4.13629e-12 2.68001e+07)
(-1.02573e+08 -1.4502e+07 -1.07274e-12 -5.42198e+06 -9.97887e-13 -2.67958e+07)
(4.56232e+06 -5.79511e+06 -1.01596e-13 8.44708e+06 6.80307e-14 3.2279e+06)
(-4.55638e+06 -5.79379e+06 -4.78499e-13 -8.45157e+06 -1.32865e-13 -3.22754e+06)
(7.42413e+07 -1.42127e+07 -6.50889e-13 8.41815e+06 1.16359e-12 2.05095e+07)
(-7.42238e+07 -1.42068e+07 -9.24834e-13 -8.4177e+06 -5.31664e-13 -2.0505e+07)
(822256 -1.35327e+06 -6.59527e-14 2.23695e+06 -1.34709e-13 759051)
(-840288 -1.36025e+06 3.51155e-14 -2.23707e+06 -3.61615e-14 -763555)
(-2.96824e+07 -2.50272e+06 7.94405e-13 -793923 3.2586e-12 -7.5618e+06)
(2.42475e+06 1.12228e+07 9.73461e-13 126326 -7.32898e-13 632973)
(1.63933e+06 1.07265e+07 -8.81552e-13 461758 -3.72507e-13 521322)
(-6.36166e+07 -2.50256e+06 0 -1.38657e+06 0 -1.61286e+07)
(6.36304e+07 -2.5048e+06 3.22445e-12 1.38668e+06 -1.83966e-12 1.61321e+07)
(4.66441e+07 -1.99848e+06 0 2.15703e+06 0 1.21085e+07)
(-4.66322e+07 -1.99629e+06 -7.00053e-14 -2.15195e+06 9.88833e-13 -1.21043e+07)
(1.01998e+08 -1.305e+07 1.98272e-15 4.63454e+06 -1.02616e-12 2.64577e+07)
(-1.01982e+08 -1.30462e+07 -2.52114e-12 -4.63316e+06 -3.05971e-12 -2.64534e+07)
(5.21762e+07 -1.34036e+06 -8.92947e-13 6.94315e+06 -1.41803e-12 1.46687e+07)
(-5.21666e+07 -1.33636e+06 2.28668e-12 -6.93832e+06 -2.35072e-13 -1.46651e+07)
(8.20444e+06 -336655 3.68137e-12 789794 -5.28394e-13 2.23165e+06)
(-3.64851e+07 3.79942e+06 1.70977e-12 -4.95722e+06 2.73782e-13 -1.02827e+07)
(3.87131e+06 -1.38719e+06 8.04514e-12 -33838.8 2.08811e-11 952153)
(-3.60041e+07 3.49167e+06 -1.33559e-12 -5.42471e+06 7.00101e-13 -1.02793e+07)
(3.53826e+07 -3.05276e+06 -4.95093e-12 -140047 6.20408e-12 8.74441e+06)
(1.70285e+07 -706711 9.51032e-12 1.00246e+06 -5.10631e-12 4.47386e+06)
(4.66877e+07 -2.44328e+06 3.96564e-13 2.14302e+06 -2.02195e-12 1.21159e+07)
(-4.66769e+07 -2.44191e+06 4.89053e-12 -2.13992e+06 4.01077e-12 -1.21125e+07)
(-4.74514e+07 -2.11262e+06 -4.71833e-13 -99345.6 2.19609e-12 -1.17983e+07)
(-2.93847e+07 -1.62154e+06 9.67881e-13 -861745 3.99142e-12 -7.50475e+06)
(3.68798e+07 -1.82844e+06 -1.04566e-11 129580 1.99232e-12 9.18277e+06)
(4.25098e+07 -1.07985e+06 1.67185e-12 3.66546e+06 -1.41909e-12 1.1457e+07)
(-4.2494e+07 -1.07648e+06 3.34358e-12 -3.66544e+06 2.83809e-12 -1.14531e+07)
(4.37279e+06 -5.78252e+06 1.87676e-13 7.89092e+06 -1.73517e-13 3.04287e+06)
(-4.37014e+06 -5.78206e+06 -2.71726e-13 -7.89393e+06 -1.24815e-13 -3.04296e+06)
(-1.21116e+07 -1.15148e+07 -2.0122e-13 -1.27616e+07 -6.69586e-14 -6.17154e+06)
(1.2116e+07 -1.15185e+07 -8.90491e-14 1.27637e+07 2.41812e-14 6.17317e+06)
(-2.39784e+07 -1.95932e+06 -1.05786e-11 -198590 -5.29059e-12 -5.99879e+06)
(-1.81467e+07 -1.50177e+07 -1.09436e-13 -1.39656e+07 -1.36934e-13 -7.96772e+06)
(1.81524e+07 -1.5023e+07 1.09416e-13 1.39701e+07 -1.36772e-13 7.97026e+06)
(6.2788e+07 -2.4255e+06 4.97545e-12 1.29662e+06 -1.40984e-12 1.59007e+07)
(-6.27741e+07 -2.4233e+06 -3.59041e-12 -1.29633e+06 -2.14811e-12 -1.58972e+07)
(4.9357e+07 -1.60363e+06 -4.6777e-12 5.38745e+06 1.77002e-12 1.35832e+07)
(-4.9345e+07 -1.60154e+06 4.67769e-12 -5.38248e+06 1.77003e-12 -1.3579e+07)
(3.26649e+07 -2.64419e+06 -3.16065e-12 -157683 1.17649e-12 8.06571e+06)
(4.76248e+07 -779784 3.53277e-12 5.07167e+06 -1.05773e-12 1.30751e+07)
(-4.76132e+07 -777570 -1.37931e-12 -5.06686e+06 -1.79683e-13 -1.3071e+07)
(-4.62857e+07 -2.31773e+06 8.23202e-12 -73849.3 1.05021e-12 -1.15027e+07)
(488.291 -85406.4 4.47585e-15 571451 2.35513e-14 141910)
(-487.305 -85174.2 9.94181e-14 -568428 8.21294e-14 -141159)
(5.21474e+07 -2.14193e+06 1.7198e-12 194027 3.45627e-12 1.2987e+07)
(2.17994e+07 -1.75245e+06 2.78588e-12 267862 7.48526e-12 5.47533e+06)
(3.87325e+07 -1.55964e+06 1.30204e-11 -44067.1 3.22061e-12 9.5994e+06)
(-1.76747e+07 -2.93305e+06 -2.33663e-12 35063.4 1.93821e-12 -4.37676e+06)
(1.1566e+07 -1.18922e+07 -1.06773e-12 1.32445e+07 3.53858e-13 6.15601e+06)
(-1.15623e+07 -1.18886e+07 -7.16666e-13 -1.32422e+07 -2.27363e-13 -6.1545e+06)
(3.21312e+07 -1.63918e+06 -1.89836e-11 70253.6 6.85764e-12 7.98984e+06)
(4.96911e+06 -2.0136e+06 7.66891e-12 251979 -1.69255e-12 1.29546e+06)
(5.74769e+06 -864406 4.35853e-12 -163901 2.1874e-11 1.38545e+06)
(-2.32912e+07 -3.15766e+06 -1.13088e-11 -87872.8 -1.68087e-11 -5.80082e+06)
(1.51185e+07 -327883 -2.2401e-12 1.08875e+06 1.00834e-12 4.02136e+06)
(4.15087e+07 -1.77979e+06 1.16676e-12 1.40415e+06 -5.39031e-12 1.06475e+07)
(1.01649e+07 60924.6 -5.04935e-12 854962 1.89267e-13 2.73425e+06)
(-3.69918e+07 3.98139e+06 1.10405e-12 -4.17044e+06 -8.97744e-13 -1.02132e+07)
(-2.23703e+07 -2.83796e+06 -1.10669e-11 -213045 -2.37007e-12 -5.60339e+06)
(4.07047e+07 -1.44382e+06 0 3.85052e+06 0 1.10551e+07)
(-4.06887e+07 -1.44032e+06 -3.37866e-12 -3.85043e+06 -4.91055e-12 -1.1051e+07)
(7.10842e+07 -4.25325e+06 -3.23809e-13 6.57484e+06 2.67952e-12 1.92688e+07)
(-7.10726e+07 -4.24924e+06 -1.88218e-12 -6.5714e+06 3.57136e-12 -1.9265e+07)
(9.46114e+07 -1.49448e+06 -2.02048e-12 131209 7.06422e-12 2.35076e+07)
(-9.45989e+07 -1.49428e+06 -1.21041e-12 -131218 3.45316e-12 -2.35045e+07)
(171637 -349198 1.21231e-14 971597 6.64927e-14 283659)
(-169581 -346973 -6.45819e-14 -970755 5.93136e-14 -282941)
(-1.11525e+08 -5.9198e+06 7.50728e-12 -1.56993e+06 6.73623e-12 -2.8061e+07)
(1.11539e+08 -5.92094e+06 -3.43234e-12 1.57015e+06 4.46579e-12 2.80646e+07)
(-2.77052e+07 1.45821e+06 1.20143e-12 -3.67093e+06 1.80519e-12 -7.78506e+06)
(7.17365e+07 -1.34769e+07 4.05076e-12 7.98016e+06 -2.77153e-12 1.97793e+07)
(-7.17189e+07 -1.34709e+07 -3.18582e-12 -7.97945e+06 -2.17591e-12 -1.97748e+07)
(6.92477e+07 -4.69806e+06 -5.96909e-13 6.95001e+06 1.1215e-12 1.89062e+07)
(-6.92362e+07 -4.69412e+06 1.50159e-12 -6.94645e+06 3.75832e-12 -1.89025e+07)
(-1.00442e+08 -761279 -4.79508e-12 15758.2 -1.65115e-12 -2.49177e+07)
(1.00454e+08 -761212 -2.57652e-12 -15730.8 1.39957e-12 2.49208e+07)
(-4.13678e+07 -1.77865e+06 2.82294e-12 -1.36632e+06 -5.51881e-13 -1.06032e+07)
(3.98556e+06 -2.98079e+06 5.32527e-12 188210 -4.116e-13 1.0356e+06)
(-1.86955e+07 -2.84556e+06 -4.61902e-12 74277.4 2.65305e-12 -4.6203e+06)
(1.79183e+07 -2.73415e+06 2.72177e-12 175444 4.41341e-11 4.48942e+06)
(2.36156e+07 -1.522e+07 1.36665e-13 1.2539e+07 1.30026e-13 8.9707e+06)
(-2.3609e+07 -1.52144e+07 -2.73403e-13 -1.25345e+07 -1.54905e-13 -8.96794e+06)
(2.07276e+07 8.33637e+06 -3.84885e-13 2.26043e+06 6.76002e-13 5.70379e+06)
(-8.43074e+06 -2.13172e+06 -8.38325e-14 -480045 -1.08692e-13 -2.21095e+06)
(-5.23148e+07 -433379 -3.69429e-12 -6.51103e+06 -2.96878e-12 -1.45959e+07)
(5.23185e+07 -433816 -3.89046e-12 6.51466e+06 6.00209e-13 1.45977e+07)
(-2.76386e+07 2.02741e+06 3.5196e-12 -3.8041e+06 7.08428e-13 -7.80157e+06)
(-1.86289e+07 -3.17525e+06 -5.64474e-12 -190256 -3.72891e-12 -4.66941e+06)
(893250 -3.44587e+06 3.06142e-12 -36227.4 6.77805e-12 212645)
(-3.04518e+07 -1.8685e+06 -2.09255e-12 -9555.68 -7.21599e-12 -7.55807e+06)
(-1.90652e+07 -188610 -8.80743e-12 -114829 1.8251e-11 -4.75896e+06)
(1.93891e+07 -98519 -3.37141e-12 414091 3.37599e-11 4.91357e+06)
(8.32849e+07 -9.06104e+06 -3.66813e-14 6.82209e+06 1.46776e-12 2.23574e+07)
(-8.32717e+07 -9.05596e+06 2.07586e-12 -6.81924e+06 1.1102e-12 -2.23534e+07)
(3.35869e+06 -2.06946e+06 1.33151e-11 -148794 -2.44491e-13 796441)
(9.31119e+07 -9.25873e+06 -1.27803e-12 5.17252e+06 1.98293e-14 2.43864e+07)
(-9.30978e+07 -9.25499e+06 9.1597e-13 -5.17084e+06 -1.17979e-12 -2.43824e+07)
(5.14727e+07 -2.25718e+06 -4.92858e-12 429983 -1.61492e-12 1.28781e+07)
(3.62247e+07 -1.84804e+06 2.74478e-11 382298 -8.49859e-12 9.08293e+06)
(2.21507e+07 -3.56559e+06 -1.24395e-11 -169020 -4.19222e-12 5.45409e+06)
(9.34142e+07 -9.69119e+06 -9.46474e-14 6.1197e+06 1.57723e-12 2.46964e+07)
(-9.34003e+07 -9.68738e+06 9.99334e-13 -6.11784e+06 3.74038e-13 -2.46925e+07)
(5.1628e+07 -414454 -4.71116e-12 6.41508e+06 5.01853e-12 1.44017e+07)
(-5.16193e+07 -411160 7.19903e-13 -6.4118e+06 2.12875e-12 -1.43987e+07)
(9.54269e+07 -878277 2.11789e-12 165667 2.76525e-12 2.37184e+07)
(-9.54142e+07 -878025 5.11841e-12 -165566 4.37101e-12 -2.37153e+07)
(2.29542e+07 2.88051e+06 -3.44392e-13 -1.28338e+06 1.83683e-13 5.37697e+06)
(-3.76768e+07 481901 -1.52083e-12 -2.4829e+06 5.26045e-14 -9.96444e+06)
(-2.80908e+07 -1.24919e+06 2.3943e-12 -2.3469e+06 -7.1719e-13 -7.55221e+06)
(2.28126e+07 -2.05091e+06 -1.34375e-11 347376 -5.46714e-13 5.74646e+06)
(2.39443e+06 -1.46606e+06 7.96913e-12 32055.8 -1.41888e-12 602060)
(-7.72868e+07 -2.93646e+07 -7.52321e-13 -1.26262e+07 -7.34597e-13 -2.23092e+07)
(7.73052e+07 -2.93712e+07 2.04226e-12 1.26288e+07 -2.26244e-12 2.23145e+07)
(1.10501e+08 -1.39311e+07 -3.72021e-12 2.33952e+06 3.08828e-12 2.79981e+07)
(-1.10485e+08 -1.39285e+07 1.7302e-12 -2.33895e+06 6.14936e-13 -2.7994e+07)
(2.32071e+07 -1.4686e+07 -5.45073e-14 1.17651e+07 2.35307e-13 8.67732e+06)
(-2.32003e+07 -1.46804e+07 3.19002e-13 -1.17606e+07 2.6259e-13 -8.67452e+06)
(8.46595e+07 -9.78781e+06 3.28404e-13 7.37739e+06 4.88007e-13 2.28362e+07)
(-8.46462e+07 -9.78245e+06 2.31003e-12 -7.37418e+06 2.77342e-12 -2.28321e+07)
(-1.71093e+07 -1.73454e+06 -1.06293e-12 -170251 8.77856e-12 -4.28741e+06)
(-2.02435e+06 -1.52313e+06 2.43054e-14 -1.21267e+06 6.01868e-14 -803169)
(2.05787e+06 -1.51769e+06 -1.19486e-14 1.11304e+06 3.273e-14 786766)
(-1.59762e+07 -1.1631e+06 1.40516e-13 -1.20093e+06 -1.43159e-13 -4.26201e+06)
(1.96957e+07 -2.52477e+06 -9.64332e-12 219593 -4.18126e-12 4.94139e+06)
(-1.00707e+08 60182.5 -7.48447e-12 -174857 -1.05292e-11 -2.50309e+07)
(1.0072e+08 60211.7 -1.93767e-13 174866 2.39675e-12 2.5034e+07)
(9.70504e+06 3.63605e+06 2.34064e-12 1.34385e+06 1.65799e-12 2.74145e+06)
(6.52691e+07 -2.85379e+06 2.43138e-12 2.03458e+06 -5.52551e-12 1.66994e+07)
(-6.52552e+07 -2.85183e+06 2.73226e-13 -2.03407e+06 -3.524e-12 -1.66958e+07)
(-9.59237e+07 -1.60754e+07 -6.94107e-13 -7.0014e+06 -1.3661e-12 -2.55378e+07)
(9.59402e+07 -1.6081e+07 -5.36163e-12 7.0038e+06 3.44048e-12 2.55425e+07)
(-6.76771e+06 3.5192e+06 -2.38048e-12 -787320 -2.22712e-12 -1.87456e+06)
(9.92222e+07 -1.41729e+07 -2.28278e-12 5.76751e+06 2.38923e-12 2.60501e+07)
(-9.92066e+07 -1.41685e+07 -1.54744e-12 -5.7657e+06 -5.57632e-13 -2.60458e+07)
(-1.60621e+07 -593382 1.78996e-12 -879743 4.22509e-12 -4.20361e+06)
(-1.76046e+07 -2.10649e+06 -9.00312e-12 9361.82 -1.28167e-12 -4.36574e+06)
(4.74607e+07 179838 -3.1993e-12 5.91963e+06 3.51125e-12 1.32448e+07)
(4.22772e+07 -2.51014e+06 1.15397e-12 1.41306e+06 3.07185e-12 1.08404e+07)
(3.9935e+07 -2.31032e+07 2.11743e-13 1.64736e+07 4.08726e-13 1.39961e+07)
(-3.99243e+07 -2.30968e+07 -2.98095e-13 -1.64691e+07 -1.46402e-13 -1.39924e+07)
(5.00735e+07 -1.96393e+07 1.13832e-12 1.20646e+07 -1.16923e-12 1.54177e+07)
(-5.00637e+07 -1.96338e+07 -6.54654e-13 -1.206e+07 -3.8901e-13 -1.54141e+07)
(-2.86954e+07 -3.0808e+06 2.85834e-12 -6749.33 -5.17297e-12 -7.12158e+06)
(-3.02512e+07 -871916 2.79555e-12 -2.22135e+06 -5.98214e-13 -8.05709e+06)
(-3.13909e+07 -649632 2.0263e-11 -354260 9.29974e-13 -7.87662e+06)
(3.13575e+07 -638219 -8.63219e-12 624888 8.24162e-12 7.93547e+06)
(2.98417e+07 -2.00747e+06 5.8314e-12 897344 -5.10203e-12 7.62697e+06)
(6.44915e+07 -2.9406e+06 6.04194e-12 2.05276e+06 -8.8316e-12 1.6511e+07)
(-6.44776e+07 -2.93869e+06 -2.64968e-12 -2.05223e+06 -2.41941e-12 -1.65074e+07)
(-5.84883e+07 -1.79839e+06 4.30373e-12 206301 3.93942e-12 -1.44609e+07)
(-2.42314e+07 -2.87919e+06 -9.60367e-12 -28897.7 -1.41388e-12 -6.01947e+06)
(-5.05307e+07 -1.40393e+06 9.19703e-12 -43138.4 3.40488e-12 -1.25484e+07)
(3.49059e+06 -3.23501e+06 9.853e-12 406722 -1.09335e-11 967003)
(-5.97291e+07 -2.07124e+07 -5.34421e-13 -1.12131e+07 -4.58864e-13 -1.76022e+07)
(5.97434e+07 -2.07156e+07 -5.62608e-13 1.12158e+07 4.20021e-13 1.76064e+07)
(-8.70946e+07 -1.44519e+07 -3.88186e-13 -6.91811e+06 -7.82323e-13 -2.33265e+07)
(8.71108e+07 -1.44582e+07 2.07948e-12 6.92101e+06 -2.19361e-12 2.33312e+07)
(-1.98231e+07 2.4898e+06 -3.31253e-13 -2.71718e+06 -1.62695e-12 -5.59271e+06)
(2.06049e+06 2.69082e+06 -1.60909e-12 238501 3.00749e-12 570426)
(5.65244e+06 -3.91087e+06 1.40176e-12 168393 4.64903e-11 1.44427e+06)
(-1.12197e+08 -7.37126e+06 6.7921e-12 -1.82698e+06 5.86417e-12 -2.82916e+07)
(1.12211e+08 -7.37252e+06 2.31542e-13 1.82719e+06 4.39047e-13 2.82951e+07)
(-2.05809e+07 -3.00319e+06 -2.23608e-12 155383 4.01102e-11 -5.06798e+06)
(2.05159e+07 -2.74515e+06 0 302193 0 5.1654e+06)
(-3.20443e+07 -2.54589e+06 1.22206e-11 -496983 3.29145e-12 -8.07416e+06)
(2.60115e+06 -2.04232e+06 1.28012e-11 154171 -9.33535e-12 683652)
(-6.31264e+06 3.28098e+06 -3.17611e-12 -1.20823e+06 -1.66691e-12 -1.86608e+06)
(-2.10293e+07 -3.19185e+06 -2.34483e-12 142303 6.71396e-12 -5.18248e+06)
(1.02106e+07 4.54075e+06 3.73047e-13 1.78636e+06 1.48937e-13 2.97668e+06)
(-4.24259e+07 -2.51318e+06 9.91859e-13 -1.42656e+06 3.17328e-12 -1.08807e+07)
(-9.15696e+07 -1.49915e+07 -3.84744e-12 -6.14349e+06 -3.39166e-12 -2.42446e+07)
(9.15854e+07 -1.4997e+07 -2.4773e-12 6.14581e+06 2.65147e-12 2.42491e+07)
(-3.1848e+07 -2.1085e+06 -2.87559e-12 217059 -6.52556e-12 -7.84828e+06)
(-5.80878e+07 -2.09916e+06 -6.6089e-12 -252164 2.21741e-12 -1.44753e+07)
(-6.18442e+07 -1.68588e+06 1.87275e-12 -369656 -3.95897e-14 -1.54365e+07)
(-4.95597e+07 -416575 1.76626e-12 -6.66313e+06 2.18641e-12 -1.395e+07)
(4.95645e+07 -416087 -1.20423e-12 6.6689e+06 2.91942e-12 1.39526e+07)
(-5.30736e+07 -1.55953e+06 -6.38968e-12 -29560.2 1.30352e-11 -1.3176e+07)
(-1.89392e+07 -3.08597e+06 4.44486e-12 19287.2 -6.90383e-12 -4.69442e+06)
(-8.70725e+07 -1.57849e+07 -3.02065e-12 -7.87774e+06 -3.35307e-12 -2.35591e+07)
(8.70883e+07 -1.57914e+07 2.03076e-13 7.88043e+06 -9.61784e-13 2.35637e+07)
(-2.6615e+07 3.21996e+06 -8.1802e-13 -3.57023e+06 2.4624e-12 -7.48957e+06)
(4.48295e+06 -2.70346e+06 -2.27342e-12 15718 -1.13096e-11 1.11621e+06)
(1.11212e+08 -1.4141e+07 1.73539e-12 3.65224e+06 -1.19655e-12 2.85002e+07)
(-1.11196e+08 -1.41383e+07 2.89373e-12 -3.65163e+06 2.81685e-12 -2.84961e+07)
(-6.55979e+07 -600171 -1.14142e-11 -23447.9 7.75593e-14 -1.6282e+07)
(-8.41628e+07 -1.64852e+07 1.07726e-12 -7.70298e+06 8.98608e-13 -2.27938e+07)
(8.41801e+07 -1.64918e+07 6.53438e-13 7.70532e+06 -7.15699e-13 2.27986e+07)
(-3.53852e+07 849448 6.07769e-13 -2.60214e+06 2.77819e-13 -9.42543e+06)
(3.15769e+07 -2.59713e+06 5.04785e-12 841230 3.82275e-12 8.0436e+06)
(-3.75442e+07 3.59906e+06 1.1534e-12 -4.41305e+06 1.69234e-13 -1.04104e+07)
(9.27822e+07 -981367 3.68073e-12 -13247.2 -7.21813e-13 2.30179e+07)
(-9.27694e+07 -980560 7.12062e-12 13312.8 6.76473e-12 -2.30147e+07)
(-1.79634e+07 -1.4126e+07 0 -1.2477e+07 0 -7.5529e+06)
(1.79692e+07 -1.41311e+07 -7.2972e-13 1.24808e+07 2.24808e-13 7.55527e+06)
(-2.37812e+07 28296.7 2.73327e-12 -2.06079e+06 1.19949e-12 -6.41191e+06)
(-6.46696e+07 -1.85654e+06 -1.65077e-12 -141512 -3.3426e-12 -1.6081e+07)
(9.25853e+07 -385001 3.24552e-12 112222 -6.11433e-12 2.30001e+07)
(-9.25724e+07 -384253 3.98775e-12 -112206 5.06061e-12 -2.29969e+07)
(24899 -185203 0 109111 0 33250.7)
(-24725.8 -184237 1.28336e-15 -108579 1.38493e-15 -33075.7)
(2.01466e+07 9.36305e+06 -6.92564e-13 1.65729e+06 5.33759e-14 5.40999e+06)
(-2.53608e+07 -735728 2.69773e-12 -2.2672e+06 -6.91655e-13 -6.85506e+06)
(-1.07461e+07 -5.54694e+06 -3.13816e-13 -1.78425e+06 2.04189e-14 -3.10903e+06)
(1.07513e+07 -5.54377e+06 1.84365e-13 1.78263e+06 8.20575e-14 3.10992e+06)
(-3.11859e+07 2.81246e+06 -1.65771e-12 -4.04848e+06 -2.04207e-12 -8.74237e+06)
(2.40963e+06 3.4154e+06 1.7331e-12 507245 -3.84714e-13 723736)
(6.62748e+06 -3.62369e+06 3.30233e-12 44629 3.06425e-12 1.65549e+06)
(-9.89219e+07 -3.11382e+06 2.56955e-12 -688729 1.80267e-12 -2.47154e+07)
(9.89348e+07 -3.11449e+06 3.5339e-12 688816 -5.3677e-12 2.47186e+07)
(-1.72203e+07 -1.50263e+06 1.11897e-11 -73793.2 -5.35037e-12 -4.29102e+06)
(-7.77512e+07 -2.85341e+07 9.88806e-13 -1.12312e+07 1.16788e-12 -2.20783e+07)
(7.77694e+07 -2.85405e+07 9.64495e-14 1.12334e+07 -7.94469e-14 2.20834e+07)
(-2.98168e+07 -1.47262e+06 -2.98514e-12 -46306.2 -1.36906e-11 -7.40964e+06)
(8.71682e+07 -4.29856e+06 -2.08278e-12 2.34035e+06 -1.73517e-12 2.22089e+07)
(-8.7155e+07 -4.29715e+06 4.62244e-12 -2.3398e+06 3.85124e-12 -2.22055e+07)
(7.17101e+07 -4.822e+06 -6.94735e-13 6.95548e+06 -2.57918e-12 1.95185e+07)
(-7.16986e+07 -4.81728e+06 -2.67509e-12 -6.95169e+06 -3.02438e-12 -1.95147e+07)
(1.85518e+06 -2.7861e+06 2.55484e-14 4.58738e+06 -1.37042e-13 1.59853e+06)
(-1.85524e+06 -2.78717e+06 1.74979e-13 -4.59036e+06 1.28807e-13 -1.59928e+06)
(4.68161e+06 -2.78637e+06 -8.40449e-12 -429517 -1.54677e-11 1.05503e+06)
(8.97614e+07 -3.38681e+06 -1.40932e-12 1.94072e+06 -5.26681e-12 2.27532e+07)
(-8.97482e+07 -3.38554e+06 -2.36125e-12 -1.94034e+06 -9.40001e-13 -2.27498e+07)
(-5.96764e+07 -1.628e+06 -3.15233e-12 -82477.4 -2.51154e-12 -1.48274e+07)
(8.70595e+07 -2.4426e+06 3.92812e-12 637523 3.95237e-12 2.17594e+07)
(-8.70466e+07 -2.44189e+06 -1.67431e-12 -637431 3.39116e-12 -2.17562e+07)
(9.60091e+07 -213971 6.18231e-12 112681 -1.15258e-11 2.38498e+07)
(3.59777e+07 -2.04933e+06 2.84662e-13 296312 -4.53102e-12 9.00031e+06)
(-1.07911e+08 -1.66372e+07 4.84185e-12 -4.32896e+06 4.84653e-12 -2.7849e+07)
(1.07927e+08 -1.66406e+07 -4.84244e-12 4.32972e+06 4.84693e-12 2.78532e+07)
(3.8299e+07 3.06252e+06 3.13378e-12 5.16758e+06 -1.31042e-12 1.07849e+07)
(6.16496e+07 -2.00246e+06 -3.4699e-13 82434.5 2.09793e-12 1.5317e+07)
(6.10743e+07 -2.07995e+06 -1.13916e-11 160023 9.6895e-12 1.51935e+07)
(-4.85904e+07 -2.57667e+06 -1.0564e-12 -618540 1.67082e-12 -1.22097e+07)
(2.24729e+07 8.20826e+06 1.2306e-12 1.43342e+06 -4.59653e-13 5.93165e+06)
(284749 -3.83588e+06 1.06389e-11 510799 -1.1635e-11 197392)
(-3.32929e+07 5.1395e+06 9.85423e-13 -4.41143e+06 -6.27325e-13 -9.35521e+06)
(5.08935e+07 -835728 -7.56762e-13 -87506.6 9.05649e-12 1.2606e+07)
(-4.75618e+07 -2.06689e+06 7.31772e-13 -488947 -3.1864e-12 -1.19224e+07)
(-1.03107e+08 -7.33938e+06 -2.97218e-12 -3.811e+06 -2.3014e-12 -2.65286e+07)
(1.03122e+08 -7.34162e+06 4.51943e-12 3.81191e+06 -4.83206e-12 2.65324e+07)
(-2.21351e+07 -2.92441e+06 -7.52125e-12 134619 3.61634e-13 -5.45877e+06)
(-1.64522e+07 7.69571e+06 -1.18543e-12 -2.4336e+06 2.91022e-13 -4.68596e+06)
(-6.50564e+07 -356935 3.02169e-12 1258.37 1.08449e-12 -1.61415e+07)
(-6.58171e+07 -1.12016e+06 -7.6442e-12 -157514 -2.85403e-12 -1.63696e+07)
(7.91813e+07 -1.50319e+06 0 10995.2 0 1.96492e+07)
(-6.02932e+07 -595235 -6.43519e-12 -156390 -4.32457e-12 -1.49988e+07)
(5.23638e+07 -2.759e+06 -6.34651e-12 2.09496e+06 -3.31887e-13 1.35123e+07)
(-5.23498e+07 -2.75796e+06 2.40004e-12 -2.09344e+06 -2.15214e-12 -1.35085e+07)
(2.06569e+07 3.83738e+06 7.89667e-13 -1.70858e+06 -3.53262e-13 4.70147e+06)
(3.53373e+06 6.10373e+06 -2.05029e-12 812892 9.71845e-13 1.07849e+06)
(5.56475e+07 497489 -9.5375e-12 431371 6.22492e-12 1.39143e+07)
(8.94881e+07 -1.76663e+06 2.95953e-12 621582 -3.90978e-13 2.2358e+07)
(-8.94751e+07 -1.76592e+06 -5.70709e-12 -621416 -4.68028e-12 -2.23548e+07)
(9.838e+07 -1.39587e+07 -5.46038e-12 5.10869e+06 6.43028e-12 2.56777e+07)
(-9.83646e+07 -1.39545e+07 -2.67674e-13 -5.10715e+06 -1.48057e-12 -2.56734e+07)
(7.44005e+06 -1.72237e+06 -1.0403e-12 229196 3.68176e-12 1.9029e+06)
(-1.41548e+07 8.31221e+06 -4.65475e-12 -1.58342e+06 -7.1338e-13 -3.90497e+06)
(7.64962e+07 -2.57643e+07 -1.91135e-13 1.18356e+07 1.64722e-13 2.19169e+07)
(-7.64777e+07 -2.57589e+07 1.26952e-13 -1.18338e+07 -1.99293e-13 -2.19119e+07)
(3.86473e+07 -1.14575e+06 2.18405e-11 661920 -1.12301e-12 9.75341e+06)
(-2.23886e+07 -1.80434e+06 8.21364e-12 -979072 3.19124e-12 -5.798e+06)
(-4.18918e+07 -1.60556e+06 1.09769e-12 63645.1 3.40822e-12 -1.03784e+07)
(9.84662e+06 -1.84903e+06 -5.69852e-12 179603 1.53598e-12 2.48771e+06)
(5.77023e+06 -2.56182e+06 -2.12166e-12 -109214 -9.91231e-12 1.40461e+06)
(-6.05098e+07 -2.00004e+07 -5.16274e-14 -1.0466e+07 -1.44682e-13 -1.76106e+07)
(6.05244e+07 -2.00034e+07 -3.27716e-14 1.04683e+07 1.12009e-13 1.76147e+07)
(-5.22846e+07 -2.0059e+06 -6.89041e-12 -1.44052e+06 -6.85021e-12 -1.33303e+07)
(5.23006e+07 -2.00821e+06 1.13516e-12 1.43652e+06 -8.65861e-12 1.33333e+07)
(4.413e+07 -2.61015e+06 -2.15445e-11 -276773 -3.72342e-12 1.08809e+07)
(-5.43099e+07 -2.13097e+06 2.21794e-12 -12655.7 4.69684e-12 -1.34785e+07)
(1.08823e+07 -3.14898e+06 2.92708e-11 -161342 -2.60068e-11 2.66008e+06)
(-1.06405e+07 -3.01569e+06 -4.41245e-12 32450.5 -7.15874e-13 -2.63207e+06)
(-22648.8 -73466.7 -1.98119e-14 -821795 -2.19371e-14 -209524)
(22125.5 -72877.9 -2.10601e-14 825637 2.14227e-14 210347)
(-2.25054e+07 -2.32438e+06 -5.85999e-12 -67798.8 -4.49267e-12 -5.60087e+06)
(-2.80419e+07 -1.99206e+06 1.39562e-11 -172034 1.02835e-11 -7.00045e+06)
(1.29118e+07 1.10657e+07 -2.91492e-12 444092 1.31606e-13 3.31386e+06)
(4.45689e+07 -4.36716e+06 -2.59442e-14 4.7393e+06 -2.33554e-13 1.22344e+07)
(2.47316e+06 -1.50501e+06 -8.45969e-12 -314423 -8.71903e-12 535625)
(-2.16203e+07 -2.95287e+06 3.7703e-12 -192139 -4.89041e-13 -5.41211e+06)
(-8.52534e+07 -5.14331e+06 -5.93676e-13 -4.00147e+06 -4.02105e-12 -2.21459e+07)
(8.52666e+07 -5.14522e+06 2.67421e-12 4.0025e+06 -1.42759e-12 2.21495e+07)
(-9.89861e+07 -1.09479e+06 0 17818 0 -2.4556e+07)
(9.89985e+07 -1.09489e+06 -1.49053e-12 -17841.9 3.20118e-12 2.45591e+07)
(-4.80574e+07 -2.13881e+06 -5.01832e-12 84686.4 6.54787e-12 -1.1903e+07)
(6.40123e+07 -2.07554e+06 2.84311e-12 98024.8 1.18754e-12 1.59071e+07)
(-9.26842e+07 -969332 2.98794e-12 83993.9 -3.28369e-13 -2.2976e+07)
(9.26967e+07 -969600 0 -83727.5 0 2.29792e+07)
(1.44164e+06 -1.64363e+06 -1.21652e-13 2.28272e+06 4.37212e-14 924091)
(8.28604e+06 1.04901e+07 -1.25568e-12 591679 -1.62065e-15 2.20274e+06)
(-8.55192e+07 -1.23981e+07 9.2742e-13 -6.80233e+06 2.99313e-13 -2.29068e+07)
(8.55335e+07 -1.24039e+07 0 6.80517e+06 0 2.29111e+07)
(-1.29967e+07 -362742 -1.90983e-13 2.56509e+06 2.10909e-14 -2.58828e+06)
(1.46653e+07 -7.05974e+06 3.51259e-14 2.64999e+06 -2.51722e-14 4.29628e+06)
(-1.46565e+07 -7.05529e+06 -1.35794e-14 -2.65653e+06 1.58325e-13 -4.29571e+06)
(3.14647e+07 2.40412e+06 -4.79728e-12 4.64744e+06 2.19879e-12 8.96015e+06)
(3.22294e+07 -2.6176e+06 -9.60154e-12 301859 -6.6604e-13 8.07168e+06)
(-6.23037e+06 -3.77834e+06 -3.84176e-12 403493 -1.04615e-11 -1.44577e+06)
(-198403 -1.91732e+06 2.59753e-11 560231 8.21992e-12 89776.9)
(-892.494 21194.5 4.8637e-14 485419 -6.31195e-14 120221)
(908.134 20231.5 -4.85839e-14 -483546 -6.29405e-14 -119752)
(907789 -2.43734e+06 1.65667e-13 6.46816e+06 1.67802e-13 1.83012e+06)
(-908327 -2.43875e+06 3.99737e-13 -6.47241e+06 1.9265e-13 -1.83131e+06)
(4.33993e+07 -2.54039e+06 4.69754e-12 165914 -2.23391e-12 1.08094e+07)
(-4.85063e+07 -2.35725e+06 -1.82908e-12 -3.63009e+06 -6.48637e-12 -1.29361e+07)
(4.85207e+07 -2.36062e+06 5.32259e-13 3.63107e+06 8.63692e-14 1.29399e+07)
(1.37224e+06 193694 -5.22427e-12 138961 -4.34918e-12 374960)
(3.14825e+07 -2.86912e+06 2.05699e-12 135439 -4.79596e-12 7.84506e+06)
(1.88439e+06 -2.35967e+06 -5.33484e-14 2.79087e+06 -2.75315e-14 1.16003e+06)
(-1.88614e+06 -2.36917e+06 -8.35366e-14 -2.79696e+06 -7.2001e-14 -1.16197e+06)
(-3.93181e+07 2.29624e+06 1.01031e-12 -5.95411e+06 -1.99521e-12 -1.12329e+07)
(-2.64472e+07 5.67711e+06 1.06745e-12 109050 7.22409e-13 -6.53502e+06)
(-2.11066e+07 1.41465e+06 -7.01222e-13 2.45952e+06 -4.22962e-13 -4.62673e+06)
(3.26992e+07 -2.9894e+06 -9.07252e-13 -50306.3 1.40086e-12 8.10086e+06)
(-7.53695e+07 -423815 5.66973e-12 -111092 -7.09188e-13 -1.87283e+07)
(1.00506e+07 -2.42191e+06 -1.52286e-12 18032 -7.26819e-12 2.49824e+06)
(4.40562e+07 1.63933e+06 -3.84553e-12 5.16503e+06 3.69109e-12 1.22128e+07)
(-5.28687e+07 -3.40717e+06 5.57127e-13 -5.91933e+06 7.99983e-13 -1.45865e+07)
(-1.8569e+07 5.6622e+06 -1.26095e-13 -2.57941e+06 4.81974e-13 -5.24735e+06)
(5.28689e+07 -3.32612e+06 -2.58991e-12 5.82499e+06 1.91749e-12 1.45632e+07)
(-8.58296e+07 -866168 -7.03301e-12 459050 -1.72775e-13 -2.11822e+07)
(8.68974e+06 -2.09289e+06 -3.21478e-13 703171 1.77073e-13 2.33057e+06)
(3.66821e+07 -1.72947e+06 -9.54113e-12 233697 -3.07783e-12 9.15956e+06)
(-3.14815e+07 -2.19022e+07 -5.40719e-13 -1.78508e+07 -1.68054e-13 -1.22404e+07)
(3.14903e+07 -2.19084e+07 -9.01575e-13 1.78561e+07 5.15499e-13 1.22438e+07)
(-1.70658e+07 -849591 7.27154e-13 -1.39757e+06 2.70745e-12 -4.58114e+06)
(1.10245e+07 9.92039e+06 -2.03522e-12 871968 8.19434e-14 2.95176e+06)
(8.11063e+07 -7.41271e+06 -1.19183e-13 6.565e+06 6.97884e-13 2.1753e+07)
(-8.10937e+07 -7.40831e+06 -1.54817e-12 -6.56236e+06 -7.78177e-13 -2.17493e+07)
(-6.30782e+07 -678012 2.4571e-11 493805 1.78009e-12 -1.55285e+07)
(6.33768e+07 -658445 -1.33918e-11 -515409 1.97195e-11 1.55972e+07)
(64544 -173841 0 128654 0 47936.3)
(-64185.1 -172935 2.12158e-15 -128034 1.6173e-14 -47693.5)
(-3.42724e+07 4.85125e+06 -2.0772e-12 -3.87037e+06 -1.70212e-12 -9.46399e+06)
(1.84322e+07 -1.76126e+07 -5.72488e-13 1.7268e+07 2.47162e-13 8.85795e+06)
(-1.84265e+07 -1.76069e+07 1.21884e-12 -1.72624e+07 7.75832e-13 -8.85512e+06)
(-2.69346e+07 -1.15675e+06 -3.01193e-12 390682 1.50246e-11 -6.5861e+06)
(1.26214e+07 -1.54261e+06 2.89092e-12 341358 6.5607e-12 3.21634e+06)
(-4.87119e+07 -2.54175e+06 3.70111e-12 -388408 -6.38114e-12 -1.21828e+07)
(4.87361e+07 -2.55928e+06 -5.73335e-13 342990 7.43206e-12 1.21775e+07)
(9.23955e+07 -3.69548e+06 4.20402e-13 1.78934e+06 -1.83496e-12 2.33692e+07)
(-9.23823e+07 -3.6943e+06 -2.58612e-12 -1.78891e+06 -1.04379e-12 -2.33658e+07)
(-34882.4 -6367.51 2.7585e-14 135875 -1.20787e-13 25058.2)
(34894.5 -6301.48 -2.04315e-14 -134657 -4.32977e-14 -24753.2)
(6.10977e+06 1.21307e+07 -7.54191e-13 -158847 -4.20412e-13 1.47654e+06)
(-1.0768e+08 -6.41875e+06 4.75542e-12 -2.99863e+06 1.23966e-12 -2.74616e+07)
(1.07694e+08 -6.42033e+06 -5.32737e-12 2.99925e+06 9.19438e-12 2.74652e+07)
(-5.63049e+06 -2.16005e+06 8.4559e-13 -63358.5 -3.93554e-12 -1.41276e+06)
(-4.22346e+07 -131893 1.50324e-12 -3.45703e+06 8.63804e-13 -1.1337e+07)
(-8.97839e+07 -576700 1.60412e-12 -196684 2.85941e-12 -2.2326e+07)
(8.97966e+07 -577316 -4.74296e-12 196988 7.14856e-12 2.23292e+07)
(-9.47534e+07 -2.16438e+07 6.77613e-14 -7.75852e+06 -1.07077e-13 -2.54353e+07)
(9.4772e+07 -2.16499e+07 1.92989e-12 7.76072e+06 -1.2901e-12 2.54404e+07)
(1.817e+07 -3.29527e+06 -9.04083e-12 -227058 2.07276e-11 4.45201e+06)
(-3.91001e+07 -2.75531e+06 4.08233e-12 193728 2.57929e-12 -9.65346e+06)
(-6.3883e+06 1.03235e+07 1.14726e-12 -655252 -5.08243e-13 -1.74765e+06)
(-2.72638e+07 -1.77015e+07 -5.34151e-13 -1.34861e+07 -3.21252e-13 -1.01109e+07)
(2.72713e+07 -1.7707e+07 5.344e-13 1.34913e+07 -3.21165e-13 1.0114e+07)
(-1.06525e+08 -5.85879e+06 -3.49278e-12 -1.83598e+06 -2.7647e-12 -2.68866e+07)
(1.06539e+08 -5.85995e+06 -2.20999e-12 1.83625e+06 6.02478e-13 2.689e+07)
(-1.78459e+07 9.09817e+06 -1.81327e-12 -972700 -3.33403e-13 -4.66927e+06)
(-6.00513e+07 -2.27084e+06 0 -451778 0 -1.50121e+07)
(-2.20861e+07 1.6539e+06 -1.69068e-13 1.37476e+06 -1.11853e-13 -5.1389e+06)
(-6.09863e+07 -1.80265e+06 9.17838e-12 173577 -3.62577e-12 -1.50889e+07)
(-6.0659e+07 -1.87118e+06 -5.85955e-12 -404958 -8.37656e-12 -1.51512e+07)
(-3.62362e+07 1.39932e+06 -2.22543e-12 -5.18687e+06 -1.47795e-12 -1.02779e+07)
(-3.9774e+07 -604582 6.8983e-12 -77644.2 -5.29358e-12 -9.88801e+06)
(3.99103e+07 -837195 3.87207e-12 4.20807e+06 -2.72544e-12 1.09467e+07)
(3.04478e+07 -1.927e+06 4.20322e-12 67498 -5.17285e-12 7.57146e+06)
(-3.98925e+07 -836424 2.91676e-12 -4.20881e+06 1.28541e-12 -1.09424e+07)
(1.04669e+08 -1.31483e+07 3.21382e-12 5.01646e+06 -1.99833e-12 2.72151e+07)
(-1.04653e+08 -1.31447e+07 1.45792e-12 -5.01514e+06 5.90864e-13 -2.72109e+07)
(-3.20713e+07 4.80376e+06 -3.71838e-13 -4.55335e+06 1.58435e-12 -9.08732e+06)
(1.25384e+07 2.57624e+06 -1.60588e-12 1.99636e+06 1.19619e-12 3.60637e+06)
(1.73194e+07 -2.01178e+06 -1.26102e-12 133753 2.14779e-11 4.33048e+06)
(-6.22165e+07 -2.37081e+06 5.76252e-12 44452.1 -3.24233e-12 -1.54262e+07)
(-5.00649e+07 -750138 -1.4232e-12 -6.24112e+06 -8.01754e-13 -1.39707e+07)
(-3.50975e+06 3.99657e+06 1.39725e-13 1.15312e+06 -9.22659e-14 -584729)
(-3.14634e+07 6.07763e+06 -1.71331e-12 -3.72841e+06 -3.95234e-13 -8.73181e+06)
(1.17721e+07 -2.53016e+06 2.47449e-11 46091.6 -2.20146e-11 2.93233e+06)
(4.23526e+07 -161179 6.6043e-13 3.62108e+06 -1.26799e-12 1.1407e+07)
(4.408e+06 -3.71379e+06 -6.55822e-12 151383 -1.99817e-11 1.13128e+06)
(1.9086e+06 1.11679e+07 -6.80135e-13 112065 5.21792e-13 501369)
(-9.25645e+06 -3.28774e+06 1.17529e-12 82519.6 -1.19679e-11 -2.27624e+06)
(3.87989e+07 -1.81477e+06 6.16763e-13 408710 3.76641e-12 9.7282e+06)
(2.1055e+07 -1.69564e+06 -1.4852e-11 425189 -2.72749e-13 5.32966e+06)
(-8.8488e+07 -670184 -9.34238e-12 -27641.9 -1.23991e-11 -2.19625e+07)
(-4.16563e+07 -1.66819e+06 0 -360431 0 -1.04252e+07)
(7.11263e+07 -5.34196e+06 7.63951e-13 7.35298e+06 -1.66473e-12 1.94723e+07)
(-7.11149e+07 -5.33725e+06 -8.88772e-13 -7.34901e+06 -1.44144e-12 -1.94685e+07)