/*--------------------------------*- C++ -*----------------------------------*\
| =========                 |                                                 |
| \\      /  F ield         | OpenFOAM: The Open Source CFD Toolbox           |
|  \\    /   O peration     | Version:  v3.0+                                 |
|   \\  /    A nd           | Web:      www.OpenFOAM.com                      |
|    \\/     M anipulation  |                                                 |
\*---------------------------------------------------------------------------*/
FoamFile
{
    version     2.0;
    format      ascii;
    class       volScalarField;
    location    "6000";
    object      sigmayz;
}
// * * * * * * * * * * * * * * * * * * * * * * * * * * * * * * * * * * * * * //

dimensions      [1 -1 -2 0 0 0 0];

internalField   nonuniform List<scalar> 
27023
(
-2.11233e-14
-1.74062e-13
-2.00387e-13
1.55066e-13
0
1.57736e-13
-4.13629e-12
-9.97887e-13
6.80307e-14
-1.32865e-13
1.16359e-12
-5.31664e-13
-1.34709e-13
-3.61615e-14
3.2586e-12
-7.32898e-13
-3.72507e-13
0
-1.83966e-12
0
9.88833e-13
-1.02616e-12
-3.05971e-12
-1.41803e-12
-2.35072e-13
-5.28394e-13
2.73782e-13
2.08811e-11
7.00101e-13
6.20408e-12
-5.10631e-12
-2.02195e-12
4.01077e-12
2.19609e-12
3.99142e-12
1.99232e-12
-1.41909e-12
2.83809e-12
-1.73517e-13
-1.24815e-13
-6.69586e-14
2.41812e-14
-5.29059e-12
-1.36934e-13
-1.36772e-13
-1.40984e-12
-2.14811e-12
1.77002e-12
1.77003e-12
1.17649e-12
-1.05773e-12
-1.79683e-13
1.05021e-12
2.35513e-14
8.21294e-14
3.45627e-12
7.48526e-12
3.22061e-12
1.93821e-12
3.53858e-13
-2.27363e-13
6.85764e-12
-1.69255e-12
2.1874e-11
-1.68087e-11
1.00834e-12
-5.39031e-12
1.89267e-13
-8.97744e-13
-2.37007e-12
0
-4.91055e-12
2.67952e-12
3.57136e-12
7.06422e-12
3.45316e-12
6.64927e-14
5.93136e-14
6.73623e-12
4.46579e-12
1.80519e-12
-2.77153e-12
-2.17591e-12
1.1215e-12
3.75832e-12
-1.65115e-12
1.39957e-12
-5.51881e-13
-4.116e-13
2.65305e-12
4.41341e-11
1.30026e-13
-1.54905e-13
6.76002e-13
-1.08692e-13
-2.96878e-12
6.00209e-13
7.08428e-13
-3.72891e-12
6.77805e-12
-7.21599e-12
1.8251e-11
3.37599e-11
1.46776e-12
1.1102e-12
-2.44491e-13
1.98293e-14
-1.17979e-12
-1.61492e-12
-8.49859e-12
-4.19222e-12
1.57723e-12
3.74038e-13
5.01853e-12
2.12875e-12
2.76525e-12
4.37101e-12
1.83683e-13
5.26045e-14
-7.1719e-13
-5.46714e-13
-1.41888e-12
-7.34597e-13
-2.26244e-12
3.08828e-12
6.14936e-13
2.35307e-13
2.6259e-13
4.88007e-13
2.77342e-12
8.77856e-12
6.01868e-14
3.273e-14
-1.43159e-13
-4.18126e-12
-1.05292e-11
2.39675e-12
1.65799e-12
-5.52551e-12
-3.524e-12
-1.3661e-12
3.44048e-12
-2.22712e-12
2.38923e-12
-5.57632e-13
4.22509e-12
-1.28167e-12
3.51125e-12
3.07185e-12
4.08726e-13
-1.46402e-13
-1.16923e-12
-3.8901e-13
-5.17297e-12
-5.98214e-13
9.29974e-13
8.24162e-12
-5.10203e-12
-8.8316e-12
-2.41941e-12
3.93942e-12
-1.41388e-12
3.40488e-12
-1.09335e-11
-4.58864e-13
4.20021e-13
-7.82323e-13
-2.19361e-12
-1.62695e-12
3.00749e-12
4.64903e-11
5.86417e-12
4.39047e-13
4.01102e-11
0
3.29145e-12
-9.33535e-12
-1.66691e-12
6.71396e-12
1.48937e-13
3.17328e-12
-3.39166e-12
2.65147e-12
-6.52556e-12
2.21741e-12
-3.95897e-14
2.18641e-12
2.91942e-12
1.30352e-11
-6.90383e-12
-3.35307e-12
-9.61784e-13
2.4624e-12
-1.13096e-11
-1.19655e-12
2.81685e-12
7.75593e-14
8.98608e-13
-7.15699e-13
2.77819e-13
3.82275e-12
1.69234e-13
-7.21813e-13
6.76473e-12
0
2.24808e-13
1.19949e-12
-3.3426e-12
-6.11433e-12
5.06061e-12
0
1.38493e-15
5.33759e-14
-6.91655e-13
2.04189e-14
8.20575e-14
-2.04207e-12
-3.84714e-13
3.06425e-12
1.80267e-12
-5.3677e-12
-5.35037e-12
1.16788e-12
-7.94469e-14
-1.36906e-11
-1.73517e-12
3.85124e-12
-2.57918e-12
-3.02438e-12
-1.37042e-13
1.28807e-13
-1.54677e-11
-5.26681e-12
-9.40001e-13
-2.51154e-12
3.95237e-12
3.39116e-12
-1.15258e-11
-4.53102e-12
4.84653e-12
4.84693e-12
-1.31042e-12
2.09793e-12
9.6895e-12
1.67082e-12
-4.59653e-13
-1.1635e-11
-6.27325e-13
9.05649e-12
-3.1864e-12
-2.3014e-12
-4.83206e-12
3.61634e-13
2.91022e-13
1.08449e-12
-2.85403e-12
0
-4.32457e-12
-3.31887e-13
-2.15214e-12
-3.53262e-13
9.71845e-13
6.22492e-12
-3.90978e-13
-4.68028e-12
6.43028e-12
-1.48057e-12
3.68176e-12
-7.1338e-13
1.64722e-13
-1.99293e-13
-1.12301e-12
3.19124e-12
3.40822e-12
1.53598e-12
-9.91231e-12
-1.44682e-13
1.12009e-13
-6.85021e-12
-8.65861e-12
-3.72342e-12
4.69684e-12
-2.60068e-11
-7.15874e-13
-2.19371e-14
2.14227e-14
-4.49267e-12
1.02835e-11
1.31606e-13
-2.33554e-13
-8.71903e-12
-4.89041e-13
-4.02105e-12
-1.42759e-12
0
3.20118e-12
6.54787e-12
1.18754e-12
-3.28369e-13
0
4.37212e-14
-1.62065e-15
2.99313e-13
0
2.10909e-14
-2.51722e-14
1.58325e-13
2.19879e-12
-6.6604e-13
-1.04615e-11
8.21992e-12
-6.31195e-14
-6.29405e-14
1.67802e-13
1.9265e-13
-2.23391e-12
-6.48637e-12
8.63692e-14
-4.34918e-12
-4.79596e-12
-2.75315e-14
-7.2001e-14
-1.99521e-12
7.22409e-13
-4.22962e-13
1.40086e-12
-7.09188e-13
-7.26819e-12
3.69109e-12
7.99983e-13
4.81974e-13
1.91749e-12
-1.72775e-13
1.77073e-13
-3.07783e-12
-1.68054e-13
5.15499e-13
2.70745e-12
8.19434e-14
6.97884e-13
-7.78177e-13
1.78009e-12
1.97195e-11
0
1.6173e-14
-1.70212e-12
2.47162e-13
7.75832e-13
1.50246e-11
6.5607e-12
-6.38114e-12
7.43206e-12
-1.83496e-12
-1.04379e-12
-1.20787e-13
-4.32977e-14
-4.20412e-13
1.23966e-12
9.19438e-12
-3.93554e-12
8.63804e-13
2.85941e-12
7.14856e-12
-1.07077e-13
-1.2901e-12
2.07276e-11
2.57929e-12
-5.08243e-13
-3.21252e-13
-3.21165e-13
-2.7647e-12
6.02478e-13
-3.33403e-13
0
-1.11853e-13
-3.62577e-12
-8.37656e-12
-1.47795e-12
-5.29358e-12
-2.72544e-12
-5.17285e-12
1.28541e-12
-1.99833e-12
5.90864e-13
1.58435e-12
1.19619e-12
2.14779e-11
-3.24233e-12
-8.01754e-13
-9.22659e-14
-3.95234e-13
-2.20146e-11
-1.26799e-12
-1.99817e-11
5.21792e-13
-1.19679e-11
3.76641e-12
-2.72749e-13
-1.23991e-11
0
-1.66473e-12
-1.44144e-12
6.13378e-13
4.39316e-12
-2.43374e-13
9.58241e-14
3.65899e-13
-1.18591e-13
-5.78796e-13
3.50649e-12
-1.0496e-12
-8.41602e-13
1.01055e-14
-2.68951e-14
-1.36219e-11
-6.11176e-12
4.49719e-13
1.55394e-12
-6.4333e-12
-4.37871e-12
0
-4.3379e-12
-1.38459e-13
3.1093e-12
1.595e-11
-2.33031e-12
0
3.16598e-12
-4.49428e-12
-1.07242e-13
-6.07465e-13
0
-3.5944e-12
8.54525e-12
-1.79069e-12
-2.1592e-12
9.46774e-12
-2.0323e-14
-1.88409e-13
-1.989e-13
-1.11525e-11
-4.37151e-13
7.75831e-13
-5.05987e-12
-1.2812e-14
-1.84089e-15
-1.95005e-12
4.31894e-12
-7.51795e-13
-2.71803e-13
-2.2371e-13
-3.71557e-13
-3.71509e-13
-1.10832e-12
-9.54839e-13
-3.3187e-12
2.88186e-12
-1.01425e-12
9.66782e-13
2.83302e-13
-9.2804e-14
2.34042e-13
-6.93178e-12
3.00995e-12
1.2238e-11
-6.91444e-13
-4.05231e-12
-1.39601e-12
4.44802e-12
8.81985e-12
1.93513e-11
0
-2.1428e-12
-1.59781e-12
-7.49309e-12
0
-2.42901e-13
1.90338e-11
-1.18327e-11
4.70145e-14
1.45707e-13
5.55418e-12
3.93238e-12
3.17603e-14
-4.07383e-12
-3.44458e-12
4.16009e-13
2.70303e-12
1.2648e-11
-5.484e-12
-2.00059e-12
5.9258e-13
-4.50356e-13
3.54064e-12
4.56772e-12
1.20566e-12
1.06636e-12
-8.40125e-14
-2.58206e-13
4.70912e-12
4.55884e-13
1.65029e-13
3.18879e-14
8.68494e-12
-5.63597e-13
-3.2705e-13
3.43392e-12
1.52007e-12
-2.02965e-12
2.05175e-12
1.47491e-12
-1.47691e-12
-1.76259e-12
-4.06729e-13
-1.73567e-12
-2.08365e-12
2.18579e-12
4.69469e-12
1.50177e-12
-2.26064e-12
2.4529e-12
1.22637e-12
-2.41367e-12
-3.29199e-12
-2.04197e-12
-2.65956e-12
6.69395e-14
1.28258e-12
1.71406e-12
8.59685e-14
-2.02865e-11
-1.92884e-12
-3.11346e-12
-2.78477e-13
-1.09397e-12
-9.86668e-13
-2.91926e-12
2.61285e-12
5.61217e-12
-9.044e-13
-1.00846e-12
9.29556e-12
7.41266e-13
-5.24372e-14
-3.03277e-11
1.51329e-13
-3.29766e-13
6.10348e-12
-2.20585e-12
5.00736e-12
1.10057e-13
-3.94422e-12
1.64657e-12
1.86651e-12
-7.10096e-13
1.1004e-11
1.54768e-11
3.45089e-12
4.72251e-14
2.33051e-12
5.97647e-13
-6.93114e-13
-9.46283e-14
1.81143e-12
-6.01071e-12
-2.40317e-13
0
0
-4.40292e-13
5.67522e-14
-1.26538e-12
-1.15601e-11
1.45381e-13
0
1.44273e-12
-2.37799e-12
-1.55409e-13
5.13388e-13
8.03462e-12
-4.46547e-12
1.3423e-12
7.41421e-12
1.36769e-12
0
7.8194e-12
7.09084e-13
2.20248e-12
-1.17397e-11
2.02712e-12
-5.24014e-14
0
1.02005e-11
-2.55782e-12
-3.44828e-12
-6.16109e-12
8.13893e-13
-3.53233e-13
-2.34361e-11
-3.52073e-12
-1.99717e-12
2.43948e-12
2.81077e-12
5.02777e-12
-3.26438e-12
1.64255e-12
3.6472e-13
4.1499e-12
8.80245e-13
1.7964e-12
-2.47075e-14
-2.46545e-14
1.95832e-12
1.56344e-12
5.89652e-12
-1.72257e-12
-3.04803e-11
-3.13857e-11
1.50056e-12
2.22278e-12
-4.9396e-12
-8.86343e-16
-1.28444e-14
2.04806e-15
1.46826e-15
3.14742e-12
-3.32995e-14
6.3986e-14
0
2.016e-13
-1.54184e-13
-1.5404e-13
2.84174e-14
-3.04966e-13
1.47653e-12
-9.4892e-13
-8.03757e-13
-5.08625e-13
-3.45551e-11
1.59548e-12
1.56782e-13
-7.46504e-12
-1.10315e-12
-3.33171e-12
1.31981e-12
2.2422e-12
4.63782e-12
-8.50864e-13
3.07758e-13
-1.02428e-12
0
-4.8735e-12
-2.64856e-12
3.08859e-12
0
4.77345e-13
-1.29678e-12
-2.8225e-12
2.76008e-13
7.12955e-15
1.89469e-14
3.87563e-12
-5.64284e-12
3.67804e-12
-3.13814e-12
5.04116e-12
4.72517e-12
-1.27209e-12
-1.77505e-12
0
-1.32194e-11
1.72903e-14
-2.07147e-12
3.13566e-12
-6.57127e-15
1.61651e-12
-8.58275e-12
1.3894e-12
7.86443e-12
5.49177e-12
0
-1.72315e-11
-2.76178e-14
-1.5771e-14
-3.61034e-13
2.23583e-12
-4.03408e-13
-1.49087e-12
-7.42826e-12
-9.92932e-12
-1.14633e-11
-4.73359e-12
9.48137e-14
-2.97863e-12
1.64606e-11
7.63902e-12
-2.25733e-13
2.60001e-13
8.85692e-15
2.39226e-12
-2.09746e-13
6.05085e-13
-9.10618e-12
-4.61659e-12
2.30822e-12
1.11767e-13
7.22147e-13
1.15243e-15
1.14613e-14
-5.54464e-12
-1.09893e-12
-4.57035e-12
-1.16713e-12
-4.56773e-13
7.43275e-13
3.0597e-11
-6.43078e-14
-1.18683e-13
0
-4.73129e-12
-7.53402e-12
5.6116e-13
4.24822e-13
8.79067e-14
6.07624e-12
4.59466e-12
-4.74711e-12
-1.43267e-11
-3.03945e-12
0
-2.05941e-12
-8.25889e-12
-8.67061e-13
4.10069e-12
2.5176e-12
1.69462e-12
1.91502e-12
5.12583e-15
1.9162e-12
1.32455e-13
-1.26405e-16
5.36768e-12
-9.15704e-13
-4.13548e-12
-2.05193e-14
-1.29615e-12
-1.46413e-13
1.03944e-11
1.87553e-12
-4.00781e-13
-6.19505e-13
-8.55351e-13
2.35544e-12
4.95632e-12
9.77431e-12
4.16029e-12
0
-6.22904e-12
2.20522e-12
-1.88381e-11
2.32886e-12
-8.14376e-12
2.39608e-13
-3.22185e-13
-5.1951e-12
3.73726e-12
-1.31826e-12
2.84657e-13
3.67218e-12
-1.65039e-12
-6.64027e-12
-2.49188e-15
-6.7746e-12
-1.29909e-12
3.14841e-13
6.27095e-13
2.56906e-12
-7.11626e-12
5.05133e-12
4.0946e-12
0
2.65652e-12
-9.83579e-13
2.04562e-13
0
4.41884e-12
-2.16194e-13
-3.9778e-12
-3.27298e-12
9.07907e-12
2.07127e-12
1.53126e-13
0
0
7.70685e-12
4.34044e-12
2.97002e-12
-1.99129e-12
-2.98631e-11
-1.17465e-14
0
2.75132e-12
-4.40342e-12
-1.26235e-12
-2.25424e-12
4.41628e-12
-1.80295e-11
2.16554e-14
-3.28592e-12
3.07682e-12
3.25865e-13
-3.95358e-13
-1.73427e-12
3.24394e-13
5.02107e-14
-9.6826e-12
5.43058e-12
2.61779e-13
2.92001e-12
7.06718e-13
1.80909e-12
-1.59768e-12
-4.85573e-12
-5.02417e-12
0
-6.26654e-12
2.83548e-12
9.33534e-13
-2.74581e-13
-5.1689e-13
-5.78857e-12
5.09364e-13
6.0782e-12
5.34795e-12
9.45657e-13
3.3266e-12
1.59643e-11
-1.56263e-12
-1.04999e-13
6.24872e-13
-1.92751e-12
-8.6864e-13
2.86448e-12
6.45802e-12
0
-4.48408e-13
3.89805e-13
2.59521e-12
-8.80864e-13
3.90738e-12
2.9399e-12
-2.75631e-12
-7.41391e-13
-1.83191e-13
-9.78244e-13
4.33488e-14
6.227e-12
8.41249e-13
-6.55411e-13
-8.35651e-12
4.31644e-12
-4.03159e-12
-3.37641e-12
0
5.65055e-13
2.69069e-12
1.67364e-11
-8.56529e-12
-3.27906e-12
-8.75252e-15
-2.82754e-14
-9.11378e-13
2.90516e-12
-3.71068e-12
1.11387e-13
2.14175e-12
3.51842e-13
-4.56768e-11
1.66895e-12
-6.42391e-13
8.36228e-13
1.74739e-13
4.40457e-12
1.90619e-12
-1.15272e-12
1.78837e-12
7.96822e-12
-2.97212e-14
-1.14906e-11
-3.69296e-14
-1.03005e-12
0
-6.51983e-12
6.32368e-12
-8.45107e-13
1.57914e-12
-9.51017e-13
8.88242e-13
3.03901e-12
6.85849e-13
6.21476e-13
3.51976e-12
-6.18104e-12
1.60106e-12
-7.95215e-13
-1.97728e-14
-2.23131e-14
1.06437e-12
-1.94057e-13
-2.95263e-12
8.82616e-13
3.93718e-12
2.40267e-12
1.14987e-11
1.63963e-12
-1.09098e-11
-2.79649e-12
2.78051e-13
2.87754e-11
9.58711e-13
3.42624e-12
0
-3.55594e-12
1.09146e-13
-5.71775e-13
2.69271e-12
-7.45916e-12
-3.84703e-13
-7.02699e-14
-5.00633e-13
-3.19492e-12
-1.0155e-11
-9.1646e-12
-1.59113e-12
0
-8.83679e-14
-8.01369e-13
-3.5562e-14
-5.33054e-15
-1.46358e-12
5.4659e-12
-3.23482e-12
-1.09674e-12
0
-3.32994e-14
5.90598e-15
2.32288e-12
8.76698e-12
-1.44369e-13
0
-2.66395e-12
-5.29494e-13
-9.33804e-12
-3.39496e-12
-7.82194e-13
-1.335e-12
-8.4593e-13
-6.56878e-13
1.17565e-11
-1.95385e-13
8.22162e-14
8.64259e-14
-8.17182e-13
7.55482e-12
-6.79855e-12
-3.56892e-12
4.36535e-12
4.25929e-12
-3.02094e-12
-2.84476e-12
-1.18887e-11
8.15169e-14
1.94152e-13
0
-1.09123e-11
-1.54117e-13
3.18377e-12
1.17281e-12
-1.96922e-12
-1.04087e-12
-1.28688e-11
-4.29666e-12
-1.04122e-12
6.59971e-15
8.41439e-12
-1.33099e-13
-1.30691e-12
-1.58374e-11
-8.44279e-13
6.55037e-13
-1.09455e-12
-2.84437e-12
2.47678e-12
-4.05154e-13
1.1384e-13
8.99407e-12
-1.44898e-13
6.46648e-12
0
-3.05396e-12
-2.11619e-12
5.43218e-13
3.14392e-12
-9.28609e-13
1.67054e-13
-1.68226e-11
-2.38101e-12
1.66892e-14
8.76378e-15
8.51533e-13
-1.39014e-14
-9.06442e-12
3.11303e-13
8.42646e-13
-1.48949e-12
2.40022e-13
1.39196e-12
-1.02596e-11
1.90015e-12
4.99727e-12
0
1.03844e-14
1.16445e-14
-1.00198e-13
4.47831e-12
5.71794e-12
1.50872e-13
-2.22661e-12
-4.62371e-12
-2.6165e-13
-3.70634e-13
-5.77167e-12
3.58616e-13
2.33613e-12
1.9876e-14
2.67214e-12
-5.8679e-12
-2.26834e-12
2.13352e-12
-4.48128e-12
-1.94868e-13
-2.80828e-12
1.3118e-12
1.60559e-11
6.73497e-12
3.94957e-12
-1.03936e-11
1.70858e-12
4.62266e-12
-5.06329e-12
2.24434e-13
-9.67547e-13
9.45045e-13
3.22963e-12
-5.46345e-13
1.43646e-12
3.32546e-12
2.10323e-12
-3.30222e-11
-1.12266e-11
9.0168e-12
2.97642e-15
1.01608e-14
5.7943e-12
3.75277e-12
-3.06734e-12
3.06801e-14
-8.37073e-12
4.99234e-13
3.72959e-12
-4.64496e-13
-1.6302e-12
3.70962e-14
-5.5157e-12
9.86292e-13
1.07536e-12
-5.64484e-14
-4.7625e-12
3.39801e-12
2.97568e-12
-4.08496e-12
-6.44282e-12
5.62675e-13
-3.82981e-12
-2.87862e-12
-1.6821e-13
1.44351e-12
4.35807e-12
-7.82306e-12
2.83358e-12
1.17769e-12
-4.52995e-12
7.26522e-13
-1.18108e-11
-1.8025e-12
1.16077e-12
-4.80844e-12
1.07476e-12
-4.32051e-13
-1.78973e-12
-9.82265e-12
1.84042e-12
-1.84279e-12
3.19263e-12
-9.2321e-12
2.87334e-13
-6.92712e-15
-1.95688e-13
-1.69149e-13
-4.94913e-13
-5.6741e-12
5.13705e-12
-2.35123e-12
3.20358e-13
-1.4473e-12
-8.04825e-14
-2.64679e-14
3.81883e-14
-1.10263e-12
-3.56417e-12
-8.09326e-12
-1.46693e-12
-2.00761e-12
-9.84832e-15
-6.13413e-15
-5.67185e-13
-1.74831e-12
-1.97181e-11
1.98059e-11
1.8289e-12
4.84803e-12
-1.64435e-13
-4.34593e-12
-3.00103e-11
2.7055e-12
9.79692e-12
-1.88793e-12
3.23565e-12
2.50086e-12
-5.00053e-12
9.34698e-13
-3.44532e-12
1.07655e-12
0
1.75742e-12
9.16395e-14
-2.85217e-12
4.32138e-12
-5.31499e-12
2.66017e-12
-4.9909e-13
7.31389e-13
-1.00713e-13
-9.35919e-14
6.83373e-12
-1.22844e-11
-5.31204e-14
5.31648e-14
1.04904e-11
2.51457e-12
5.6311e-14
1.94953e-12
-4.27292e-13
7.21678e-13
-3.20617e-13
4.94018e-12
2.46696e-11
1.34679e-12
9.25857e-13
1.88598e-12
3.43897e-12
2.75984e-12
3.9893e-12
-6.77587e-13
2.73005e-11
-1.81606e-11
-9.77311e-14
2.73709e-12
-7.49372e-12
2.71035e-11
-1.53139e-12
-2.76537e-12
1.51332e-12
-5.59255e-14
-5.57878e-14
1.55352e-11
-2.54899e-15
-1.06823e-13
-7.14372e-13
-3.14577e-13
-4.15857e-12
1.50784e-12
3.35215e-12
-1.04313e-12
-1.60514e-12
-4.96661e-13
3.67477e-13
-5.9693e-12
-3.84218e-12
-6.34013e-13
1.19578e-11
-8.58469e-12
3.26006e-14
1.62414e-12
2.17386e-11
1.44349e-11
5.68977e-12
2.9867e-12
-2.12639e-13
1.5865e-13
-3.49734e-12
3.50981e-12
-4.96245e-12
9.87051e-12
8.92725e-12
-4.06848e-12
-3.4635e-12
-3.08741e-13
-6.59947e-13
-8.35498e-14
1.56655e-14
-3.73409e-12
-2.22927e-12
-5.45143e-12
-2.07549e-12
5.40096e-13
4.29644e-14
5.52333e-13
-1.57103e-12
8.68379e-13
2.63308e-12
2.62028e-11
-1.86285e-12
1.99197e-11
3.52075e-13
-4.84603e-12
-8.7026e-14
-2.62672e-12
-3.60041e-12
4.95292e-14
3.09412e-12
-7.87621e-13
1.94404e-13
-2.93574e-12
4.35605e-13
-9.90861e-13
-1.16077e-11
-1.45188e-12
8.95394e-13
3.15175e-13
-2.65996e-12
3.93646e-12
-5.30336e-12
-1.12202e-12
-5.45946e-12
7.2688e-12
-7.71513e-13
-3.67131e-12
-5.17648e-12
1.77362e-12
-1.29768e-11
0
1.71012e-12
4.31454e-12
-2.69008e-12
8.85107e-13
7.68372e-12
6.08512e-12
-5.36958e-12
5.87268e-12
8.84246e-13
-4.49727e-12
-7.65591e-12
-2.15993e-12
0
8.61505e-12
0
-1.72795e-12
-5.05271e-14
-1.43114e-13
-5.5861e-12
-6.03248e-14
-2.52921e-12
-1.72432e-12
1.55379e-12
0
0
-3.29166e-13
-3.44592e-13
-6.34899e-12
8.3474e-13
1.46199e-11
-2.22243e-13
2.76158e-12
2.44939e-12
3.65082e-13
3.33902e-13
-6.86341e-14
9.43775e-14
-2.80371e-12
1.05295e-12
0
-1.75659e-12
3.25154e-12
-1.19893e-12
0
2.77798e-14
1.86027e-14
3.93329e-13
-1.51794e-12
1.7807e-13
-1.84538e-13
-6.06764e-14
1.40244e-12
-3.66947e-12
1.38888e-12
-2.53089e-12
-9.56595e-13
-1.19671e-12
3.7066e-12
3.86956e-14
3.33759e-14
0
-3.06225e-12
1.2056e-12
3.17762e-12
0
2.7248e-12
1.64844e-12
8.73949e-13
1.45635e-12
9.59185e-12
2.03181e-11
-3.26756e-12
6.98118e-12
-5.77299e-13
-2.20325e-13
3.02853e-12
1.40763e-12
-1.39397e-12
0
-6.05084e-12
-3.0802e-12
-6.93219e-12
2.32038e-12
-1.83408e-12
1.2104e-12
1.72497e-12
-2.46574e-12
5.21089e-12
-4.85102e-14
9.21348e-13
1.96825e-12
-4.65688e-12
4.30593e-12
-5.78775e-12
-1.86726e-12
1.82135e-12
0
5.12305e-12
-2.12797e-12
-2.34794e-13
-3.09542e-12
5.01337e-12
-2.18912e-13
2.5049e-12
-2.1569e-13
4.59095e-12
1.52826e-12
-3.85694e-13
3.42566e-12
4.40201e-16
-6.18238e-15
-2.46278e-12
-1.42707e-13
-3.00526e-11
1.24356e-12
-1.56292e-12
-3.49503e-13
-5.20908e-12
-4.85163e-13
-1.87813e-11
-4.92799e-12
-9.9679e-13
-8.53727e-13
-1.54518e-12
1.69915e-12
-3.34858e-13
-3.86265e-12
-7.07731e-13
-2.76284e-12
-2.8497e-12
2.16012e-12
5.6348e-13
-2.87042e-14
1.00962e-14
-3.42812e-13
-4.53393e-12
9.219e-12
-5.68708e-12
-3.1046e-12
1.18888e-12
-3.97416e-14
1.94676e-13
1.19821e-11
-9.25678e-12
9.43003e-13
6.56997e-13
7.16174e-13
5.42078e-13
1.25607e-11
-1.18128e-11
-3.30336e-12
1.66678e-12
1.49929e-12
-5.37209e-13
8.24072e-13
4.07429e-12
9.61941e-13
-1.36361e-12
9.57776e-14
-3.70142e-12
3.44968e-12
3.29133e-12
1.54441e-12
-3.55262e-13
2.39601e-13
-3.36462e-12
2.78242e-12
-1.60811e-12
0
7.50722e-12
-5.82413e-13
-5.82538e-13
-3.19296e-12
-5.06679e-13
4.3226e-13
-1.59822e-13
2.61983e-13
4.80588e-12
-2.95041e-13
9.1489e-14
-1.69807e-12
9.83229e-13
-1.10583e-11
-2.42542e-12
-7.96806e-12
7.45968e-14
5.76761e-14
2.19128e-12
-7.9174e-12
0
2.63117e-12
3.56924e-12
5.61446e-14
1.36857e-12
2.64631e-12
4.03105e-12
-1.50715e-12
-1.97926e-12
-3.79751e-14
0
8.51348e-14
1.50407e-12
2.29603e-12
-3.23687e-11
4.01362e-12
5.04461e-12
-1.81784e-13
-1.78007e-13
1.00195e-13
1.39625e-12
-1.91043e-12
-4.14556e-13
2.42164e-12
-2.21271e-12
3.75803e-13
-2.68199e-13
-3.15854e-13
-3.11967e-13
-1.23451e-12
-4.51751e-15
6.45167e-15
7.79725e-12
-3.92333e-13
2.58169e-12
0
3.05888e-14
2.58982e-13
-2.06992e-12
-8.66993e-13
3.71808e-12
6.83333e-13
3.71993e-12
-1.56943e-13
-6.45639e-13
6.45628e-13
0
4.34114e-13
4.03025e-13
-2.1875e-12
-4.46272e-12
4.68953e-12
1.14433e-13
1.29166e-12
7.73481e-12
1.22163e-11
-2.2945e-12
-4.11293e-12
-2.60515e-12
2.60506e-12
-1.6837e-11
-1.57323e-12
9.21918e-13
1.06253e-12
-9.15562e-12
-2.11441e-11
7.31794e-12
-6.37053e-12
6.00551e-12
2.152e-12
5.36061e-13
1.30013e-14
-3.1563e-13
0
-1.1292e-11
-6.97852e-13
2.31263e-12
-4.22444e-14
-2.32269e-12
1.44053e-12
-4.16385e-11
-3.40651e-12
1.17221e-12
-7.43181e-13
-4.21954e-12
-2.38092e-12
2.34986e-12
2.71635e-13
-3.13423e-13
2.00512e-12
-7.52705e-13
7.9784e-14
2.28579e-13
1.97946e-12
1.04194e-12
-2.82325e-12
-1.04449e-12
-1.42551e-12
-5.3578e-13
-4.42387e-13
-1.34389e-12
-3.9062e-12
-6.39583e-12
4.4041e-12
-8.56673e-14
-8.28926e-14
-5.1704e-13
1.2888e-12
-1.32642e-11
1.80121e-11
0
7.68523e-13
-7.6847e-13
4.15592e-12
1.28114e-12
-1.54677e-11
-3.67555e-13
-3.04554e-12
-1.5864e-11
1.11085e-11
7.29509e-15
2.54016e-12
-8.55276e-12
-6.17253e-12
7.67298e-12
-4.59265e-15
1.06739e-13
1.9322e-12
2.79977e-12
1.06522e-12
0
-1.85489e-12
-9.1508e-13
2.27386e-12
7.69442e-14
1.96639e-13
-3.12328e-12
-1.16756e-13
-2.0496e-13
-7.20283e-13
-3.15972e-12
1.72167e-12
9.64179e-12
3.71001e-13
-1.51094e-12
2.63034e-12
6.38141e-12
-6.60034e-12
-1.25637e-12
-1.65017e-12
-1.65012e-12
-2.95945e-14
5.37151e-14
3.13867e-12
-4.36037e-13
1.13493e-12
-4.53967e-13
2.16365e-13
2.9047e-13
8.33907e-13
8.51999e-14
-6.08354e-12
-3.46876e-11
-2.02045e-11
2.40208e-12
1.05457e-11
-1.61017e-12
-1.03708e-11
-8.03058e-12
-2.48656e-12
-6.69343e-12
5.80127e-13
5.80259e-13
2.48775e-11
0
-3.08869e-12
-1.82735e-12
-3.07273e-12
-3.27191e-12
7.85446e-14
-9.26917e-13
-3.26799e-13
-1.26279e-12
-1.65806e-12
-2.02089e-12
-4.96599e-12
-4.89736e-13
5.45589e-13
-1.39353e-12
-9.90304e-13
6.66023e-13
2.81392e-13
2.0209e-13
8.9511e-14
-2.68768e-11
2.86445e-13
-9.28469e-14
1.54609e-12
1.75284e-13
-2.32811e-13
-5.71293e-13
-1.17817e-12
-2.69924e-12
0
6.26243e-12
-9.07046e-12
-2.27823e-13
-5.54705e-13
4.3662e-12
-5.19708e-12
-2.98128e-12
1.16263e-11
-6.8141e-15
-7.6563e-13
-2.83829e-12
2.04266e-12
1.97565e-12
6.90557e-13
1.03021e-14
-1.76716e-12
-2.51004e-14
1.4533e-12
3.35028e-12
-1.4543e-12
9.38583e-13
-1.17976e-12
0
5.31089e-12
-3.56669e-12
-1.10672e-13
-5.10307e-13
3.54084e-12
-8.94304e-12
-2.88104e-13
1.43182e-12
-6.96483e-14
-1.20124e-14
-3.41132e-14
1.27453e-12
-2.44902e-12
6.5924e-14
-1.80962e-12
-3.83562e-12
-2.85549e-12
1.20161e-11
9.57866e-13
2.91453e-11
-3.15387e-12
-3.40402e-13
1.15068e-11
1.5292e-12
4.69932e-13
2.09385e-12
-6.19419e-13
5.1396e-14
-1.86982e-13
-3.91792e-12
7.76448e-14
-5.22003e-12
-4.46391e-13
1.13823e-12
-1.06623e-11
6.31543e-12
8.62833e-12
-1.14524e-13
-7.57343e-14
-9.40198e-13
2.26677e-12
-6.40548e-13
-1.22962e-12
7.35434e-12
-1.47977e-12
-3.25862e-13
1.87813e-12
-6.4597e-12
-1.94845e-13
-3.39511e-13
1.3611e-14
4.25457e-13
-5.79061e-12
-1.45257e-12
4.63611e-13
-1.48356e-12
-2.859e-12
1.62077e-11
1.38825e-14
3.81279e-14
-2.56086e-11
-1.69369e-13
-2.86689e-12
-1.59869e-12
-2.1888e-12
0
-5.15908e-12
-5.60961e-12
2.63105e-12
2.6311e-12
-8.67907e-14
0
-1.67269e-13
-2.63103e-11
-8.09523e-13
-3.0406e-12
-1.70593e-11
2.95382e-11
2.97572e-14
9.37084e-13
2.29839e-12
-1.74208e-12
2.05938e-12
-1.2289e-13
-4.93281e-14
-8.83247e-13
-3.64886e-12
2.87124e-14
-9.91865e-12
-3.10606e-12
1.80672e-13
-9.35893e-13
2.53991e-12
0
-1.46913e-12
7.69679e-12
-1.90843e-13
2.29156e-12
0
-1.37033e-11
-3.55869e-13
3.3913e-12
9.94843e-13
5.69683e-13
3.21654e-12
-2.31001e-12
-3.05349e-13
-2.78128e-13
1.89071e-12
-2.31022e-11
1.01375e-11
0
-2.35438e-12
-8.53877e-13
-2.13167e-12
1.01145e-11
3.40498e-13
-1.4135e-12
5.39486e-12
-4.11493e-15
-9.78445e-15
-1.47347e-12
5.2144e-12
3.6291e-12
6.76647e-13
-8.19296e-12
4.4508e-13
-1.17346e-12
3.05378e-12
3.677e-12
-5.05326e-13
-6.36849e-12
3.21088e-12
1.93081e-12
0
1.51421e-12
-7.13474e-12
-2.61775e-13
-3.44813e-12
-2.94438e-12
8.17167e-12
8.42401e-12
8.78833e-13
-6.04217e-12
1.9467e-12
9.35076e-13
2.37316e-13
1.06154e-12
-4.97856e-13
-5.60849e-14
-5.86958e-12
0
-1.17714e-12
1.37684e-11
-1.29025e-11
-1.96015e-12
1.18581e-12
6.59137e-12
-9.11515e-13
-9.35963e-13
0
0
-1.54939e-12
2.86282e-12
4.06045e-12
-7.09968e-12
3.22345e-12
-6.66889e-14
5.30644e-12
-5.65794e-13
3.40857e-13
1.17466e-12
3.98086e-12
4.0603e-12
4.06069e-12
8.46212e-13
3.36914e-12
-3.07808e-12
-3.92442e-13
3.99414e-12
1.62118e-12
5.45382e-12
7.84008e-12
-5.7921e-12
-5.54411e-12
-3.46945e-12
-2.98e-12
-4.63506e-12
-6.53912e-13
1.72838e-13
4.72105e-12
1.07548e-12
0
-3.53944e-12
-2.74943e-12
-4.11195e-12
-2.95278e-12
-7.38993e-12
-1.41937e-12
-3.29998e-12
4.77126e-12
4.46233e-13
-8.60587e-13
0
-2.44789e-12
-2.65117e-14
-5.59214e-12
8.38646e-14
1.87901e-12
-5.1109e-12
-6.39459e-12
-2.188e-12
6.07833e-13
0
8.78635e-13
1.94913e-12
-9.37996e-13
-3.61472e-13
3.05833e-15
5.56548e-14
4.44673e-13
5.90796e-13
-8.74354e-13
1.88903e-11
9.53832e-13
8.11889e-13
-1.23196e-12
2.00373e-11
-5.39383e-12
-7.21825e-13
2.59497e-14
-1.48874e-14
-8.91717e-12
1.14478e-11
-2.02885e-12
-1.70739e-14
3.25705e-14
-2.1213e-13
1.08059e-13
-4.25658e-12
-2.64884e-13
1.55184e-12
-3.33029e-13
2.8672e-13
-2.4689e-12
3.3238e-14
-2.88477e-14
-2.38788e-12
-3.20488e-12
1.84078e-12
9.027e-12
-1.63729e-13
-1.85955e-12
-3.25848e-12
0
2.88191e-12
6.00752e-13
-1.13493e-11
-7.72363e-13
3.09905e-12
3.70915e-12
-1.10458e-11
-5.04635e-13
-2.31033e-12
-3.18675e-12
-1.21699e-12
-2.36959e-12
-1.67237e-12
-1.65908e-11
-1.7982e-12
-3.87197e-12
1.39006e-11
-5.76962e-12
-1.42168e-12
8.27909e-15
-2.08845e-15
6.10369e-16
-6.24322e-12
-3.04537e-14
-3.07963e-14
1.60476e-13
0
0
-3.36132e-11
-2.43217e-12
-4.47376e-12
0
-1.08656e-11
1.29493e-11
-3.10888e-12
5.02234e-13
-1.37332e-11
-1.69438e-12
1.13396e-12
7.39849e-13
-7.05863e-12
1.74496e-12
1.28438e-11
-1.29481e-11
-1.30141e-12
-2.54286e-12
2.69611e-13
1.04526e-13
1.20817e-12
-1.53788e-11
-1.83417e-11
0
-2.34455e-13
8.34154e-13
2.43734e-12
1.01012e-12
-8.53053e-12
-5.94704e-13
7.04037e-12
1.73425e-14
-6.51365e-12
-1.15996e-12
-1.25705e-12
3.37552e-12
5.81306e-12
-3.08814e-13
-6.07944e-12
7.73812e-12
4.90571e-13
-3.99764e-13
4.05319e-12
-3.18981e-12
1.59033e-12
-1.18682e-12
0
-1.76815e-14
1.31437e-12
-9.8089e-13
-3.79918e-12
8.8726e-13
-1.79627e-12
-9.31573e-13
8.22592e-13
3.66978e-13
-4.752e-12
5.97901e-13
7.0551e-12
-1.8019e-12
-9.08784e-13
-5.56276e-12
-6.37084e-13
1.62514e-13
3.24332e-12
2.97283e-12
-1.67897e-13
8.56581e-15
1.25336e-14
-1.9843e-12
-6.41496e-12
-7.01024e-12
3.79799e-12
3.27628e-12
7.65324e-14
-1.24558e-13
0
2.55068e-12
6.69425e-13
-2.74275e-12
3.11195e-12
2.08274e-11
-2.67702e-12
-1.11562e-12
-3.42655e-12
-2.06614e-11
4.0196e-12
3.50454e-12
-3.5364e-13
6.84113e-14
-4.66217e-14
3.65181e-12
1.75862e-12
1.64659e-13
-2.77731e-12
-1.13202e-12
4.18652e-12
-1.5315e-12
-3.8978e-12
3.29359e-13
6.20315e-14
-8.57677e-14
-1.71452e-13
0
-4.04307e-12
2.40193e-14
2.79067e-14
-4.15678e-12
-2.27657e-12
0
0
4.08619e-13
-4.93309e-12
-6.94369e-12
-1.58941e-12
9.4187e-13
9.41864e-13
-1.88152e-12
1.062e-12
1.2444e-12
-2.30663e-12
-1.9329e-11
-6.84682e-13
1.44889e-12
-2.12984e-12
2.46002e-12
-1.56209e-12
2.92022e-14
5.68457e-15
-1.24006e-11
8.26442e-12
-1.91172e-12
-9.39301e-13
9.6471e-12
4.77939e-12
1.39138e-12
2.66276e-12
-3.19459e-12
7.76021e-13
2.28383e-12
1.54989e-12
1.44692e-11
-3.57918e-12
-1.3912e-11
-5.03517e-12
-4.08335e-13
-1.57337e-12
8.65259e-12
-2.96062e-12
1.81061e-12
-1.25045e-12
1.52818e-13
1.69621e-12
4.07625e-12
-4.13289e-12
1.77683e-11
1.17178e-12
1.26879e-12
-3.82636e-12
3.27265e-13
-3.10336e-12
-3.8681e-12
-4.49132e-12
-6.85457e-13
5.60324e-12
1.47266e-11
-2.38531e-12
-2.21064e-12
-2.67838e-14
7.21652e-15
5.17079e-15
-8.8978e-14
2.3934e-13
-1.55093e-12
-1.33124e-13
-3.82014e-12
-5.80599e-11
2.47187e-13
1.55938e-12
-2.0057e-12
9.32257e-12
2.56774e-13
1.30479e-13
-2.72253e-14
-6.32857e-12
-8.20077e-12
6.33543e-12
-8.70983e-12
4.22034e-13
-1.07585e-11
-2.2811e-12
-2.44276e-12
1.17379e-12
1.62774e-12
1.89706e-12
-2.15283e-12
3.31173e-14
3.37478e-14
-6.63253e-12
-1.8447e-13
6.11059e-13
-2.42724e-12
3.20974e-12
-3.09185e-13
2.93018e-12
2.90722e-12
0
3.07603e-12
-1.66813e-12
9.42987e-14
4.49143e-12
0
-1.58419e-12
7.70877e-12
1.90085e-12
-5.2037e-12
3.01849e-12
3.6729e-12
2.61023e-12
-8.35034e-13
3.71213e-12
1.37656e-13
-3.56814e-14
1.6513e-12
-2.60589e-12
-3.4948e-14
1.73269e-14
3.11839e-12
8.8154e-14
-2.08057e-13
9.57128e-13
2.68138e-12
2.51657e-13
-7.16044e-14
5.36784e-13
-2.25364e-12
1.82402e-12
9.64032e-13
-4.71084e-13
2.18289e-12
-1.16212e-12
-6.95549e-12
-2.25671e-12
7.97024e-12
-1.01012e-12
-2.78241e-12
0
3.40397e-14
3.26243e-12
7.69346e-12
4.49164e-12
6.17028e-12
4.29975e-12
-5.86799e-12
1.14927e-11
-1.32362e-11
-1.04852e-12
-1.18424e-12
1.2917e-13
9.28833e-13
5.46249e-13
-1.06828e-11
-7.5893e-13
1.08169e-12
8.82946e-13
-1.19897e-12
3.94578e-12
1.77105e-11
8.70769e-14
1.10826e-13
7.30421e-13
-7.533e-13
1.04503e-13
9.28917e-14
3.7411e-12
6.15696e-13
-1.07651e-12
-9.55347e-14
-6.89507e-12
-2.17261e-12
4.62349e-12
-2.32106e-12
9.80029e-14
-1.37413e-11
-6.23283e-13
-1.75868e-12
2.15883e-12
-8.95634e-13
-1.99153e-11
1.94839e-13
-3.5767e-12
-7.53365e-14
-3.2955e-12
3.89144e-12
0
-3.81374e-12
-6.01988e-12
2.14717e-12
9.02971e-12
1.42026e-12
0
-3.46258e-12
3.05797e-12
-8.83517e-12
-4.43187e-12
-1.48825e-13
-1.35212e-11
-4.09268e-12
2.46563e-12
7.74186e-13
-4.14301e-14
-4.58517e-14
-1.92949e-12
-6.93738e-13
-9.98751e-13
-4.93287e-13
-1.14555e-12
-2.5196e-12
-1.60445e-12
1.6463e-12
3.97934e-12
0
1.58586e-14
-1.97338e-11
-2.09084e-13
1.74504e-12
-2.51322e-12
-8.62678e-12
3.82075e-13
5.14088e-14
5.36146e-12
-7.76916e-13
6.31682e-12
3.76809e-12
-2.88516e-12
3.16865e-13
7.78463e-13
1.80851e-12
-4.1263e-13
2.11353e-12
1.01065e-12
1.66257e-12
3.36385e-12
-7.93204e-13
1.77746e-12
2.44425e-13
5.95844e-13
2.80362e-12
-1.79991e-14
1.03524e-11
-3.56208e-13
1.11947e-12
2.97837e-14
2.75923e-14
3.77842e-12
7.73021e-13
-6.29658e-13
-2.72187e-13
-1.06419e-13
1.62088e-14
3.03425e-12
1.15047e-13
3.34503e-14
5.89733e-12
-7.15206e-12
-9.21827e-13
-4.85936e-12
0
2.35024e-13
-2.87768e-12
2.36563e-12
-9.23487e-13
-4.82677e-13
3.45069e-13
7.33522e-14
-6.78414e-12
4.46502e-11
-3.14638e-12
-5.22314e-12
-4.91678e-12
-6.14981e-12
-4.72932e-12
9.26036e-12
-1.81508e-12
-1.62236e-12
-3.39121e-14
2.24165e-14
2.29625e-12
-2.01516e-13
-2.54544e-12
-5.08236e-12
5.46862e-13
-6.62129e-13
1.4166e-12
-1.49456e-12
9.46414e-13
1.29411e-12
3.46487e-13
2.86235e-12
-3.25144e-12
5.14531e-12
-7.36735e-12
1.3632e-12
-1.03789e-11
5.25584e-12
-2.56688e-12
-4.60312e-12
-1.06787e-12
1.59101e-12
-1.81879e-12
6.97413e-13
-1.57053e-11
3.48197e-12
6.02754e-14
-3.26427e-13
-1.53232e-13
1.51036e-13
-1.49981e-11
1.32288e-12
-2.16008e-12
-3.99152e-12
-1.53655e-11
3.9563e-12
-1.84506e-12
-2.68554e-12
-2.88327e-12
-1.63292e-12
0
-6.21598e-12
-9.17804e-12
0
7.37572e-12
2.75668e-12
4.19569e-12
-8.71726e-12
1.34805e-12
1.30278e-11
4.97223e-14
4.73886e-11
1.29865e-13
6.43668e-14
2.39962e-12
-1.08118e-11
-1.04046e-12
-2.48921e-12
2.37725e-12
-2.25926e-12
-4.70134e-13
1.34417e-13
-4.15357e-12
9.80711e-13
8.89146e-12
-2.85987e-12
-6.15909e-12
-3.49247e-12
6.78782e-12
6.57828e-13
5.04094e-12
-7.94915e-12
1.08885e-12
3.96228e-13
1.19534e-13
4.70178e-14
-3.23125e-12
-1.26518e-12
0
-4.88565e-13
1.05037e-13
1.04881e-13
-1.72147e-13
-1.72214e-13
-6.2908e-14
-5.80456e-12