/*--------------------------------*- C++ -*----------------------------------*\
| =========                 |                                                 |
| \\      /  F ield         | OpenFOAM: The Open Source CFD Toolbox           |
|  \\    /   O peration     | Version:  v3.0+                                 |
|   \\  /    A nd           | Web:      www.OpenFOAM.com                      |
|    \\/     M anipulation  |                                                 |
\*---------------------------------------------------------------------------*/
FoamFile
{
    version     2.0;
    format      ascii;
    class       volScalarField;
    location    "6000";
    object      sigmayy;
}
// * * * * * * * * * * * * * * * * * * * * * * * * * * * * * * * * * * * * * //

dimensions      [1 -1 -2 0 0 0 0];

internalField   nonuniform List<scalar> 
27023
(
-1.51464e+07
1.51511e+07
1.20452e+07
-1.20434e+07
-1.42322e+07
1.42364e+07
5.42345e+06
-5.42198e+06
8.44708e+06
-8.45157e+06
8.41815e+06
-8.4177e+06
2.23695e+06
-2.23707e+06
-793923
126326
461758
-1.38657e+06
1.38668e+06
2.15703e+06
-2.15195e+06
4.63454e+06
-4.63316e+06
6.94315e+06
-6.93832e+06
789794
-4.95722e+06
-33838.8
-5.42471e+06
-140047
1.00246e+06
2.14302e+06
-2.13992e+06
-99345.6
-861745
129580
3.66546e+06
-3.66544e+06
7.89092e+06
-7.89393e+06
-1.27616e+07
1.27637e+07
-198590
-1.39656e+07
1.39701e+07
1.29662e+06
-1.29633e+06
5.38745e+06
-5.38248e+06
-157683
5.07167e+06
-5.06686e+06
-73849.3
571451
-568428
194027
267862
-44067.1
35063.4
1.32445e+07
-1.32422e+07
70253.6
251979
-163901
-87872.8
1.08875e+06
1.40415e+06
854962
-4.17044e+06
-213045
3.85052e+06
-3.85043e+06
6.57484e+06
-6.5714e+06
131209
-131218
971597
-970755
-1.56993e+06
1.57015e+06
-3.67093e+06
7.98016e+06
-7.97945e+06
6.95001e+06
-6.94645e+06
15758.2
-15730.8
-1.36632e+06
188210
74277.4
175444
1.2539e+07
-1.25345e+07
2.26043e+06
-480045
-6.51103e+06
6.51466e+06
-3.8041e+06
-190256
-36227.4
-9555.68
-114829
414091
6.82209e+06
-6.81924e+06
-148794
5.17252e+06
-5.17084e+06
429983
382298
-169020
6.1197e+06
-6.11784e+06
6.41508e+06
-6.4118e+06
165667
-165566
-1.28338e+06
-2.4829e+06
-2.3469e+06
347376
32055.8
-1.26262e+07
1.26288e+07
2.33952e+06
-2.33895e+06
1.17651e+07
-1.17606e+07
7.37739e+06
-7.37418e+06
-170251
-1.21267e+06
1.11304e+06
-1.20093e+06
219593
-174857
174866
1.34385e+06
2.03458e+06
-2.03407e+06
-7.0014e+06
7.0038e+06
-787320
5.76751e+06
-5.7657e+06
-879743
9361.82
5.91963e+06
1.41306e+06
1.64736e+07
-1.64691e+07
1.20646e+07
-1.206e+07
-6749.33
-2.22135e+06
-354260
624888
897344
2.05276e+06
-2.05223e+06
206301
-28897.7
-43138.4
406722
-1.12131e+07
1.12158e+07
-6.91811e+06
6.92101e+06
-2.71718e+06
238501
168393
-1.82698e+06
1.82719e+06
155383
302193
-496983
154171
-1.20823e+06
142303
1.78636e+06
-1.42656e+06
-6.14349e+06
6.14581e+06
217059
-252164
-369656
-6.66313e+06
6.6689e+06
-29560.2
19287.2
-7.87774e+06
7.88043e+06
-3.57023e+06
15718
3.65224e+06
-3.65163e+06
-23447.9
-7.70298e+06
7.70532e+06
-2.60214e+06
841230
-4.41305e+06
-13247.2
13312.8
-1.2477e+07
1.24808e+07
-2.06079e+06
-141512
112222
-112206
109111
-108579
1.65729e+06
-2.2672e+06
-1.78425e+06
1.78263e+06
-4.04848e+06
507245
44629
-688729
688816
-73793.2
-1.12312e+07
1.12334e+07
-46306.2
2.34035e+06
-2.3398e+06
6.95548e+06
-6.95169e+06
4.58738e+06
-4.59036e+06
-429517
1.94072e+06
-1.94034e+06
-82477.4
637523
-637431
112681
296312
-4.32896e+06
4.32972e+06
5.16758e+06
82434.5
160023
-618540
1.43342e+06
510799
-4.41143e+06
-87506.6
-488947
-3.811e+06
3.81191e+06
134619
-2.4336e+06
1258.37
-157514
10995.2
-156390
2.09496e+06
-2.09344e+06
-1.70858e+06
812892
431371
621582
-621416
5.10869e+06
-5.10715e+06
229196
-1.58342e+06
1.18356e+07
-1.18338e+07
661920
-979072
63645.1
179603
-109214
-1.0466e+07
1.04683e+07
-1.44052e+06
1.43652e+06
-276773
-12655.7
-161342
32450.5
-821795
825637
-67798.8
-172034
444092
4.7393e+06
-314423
-192139
-4.00147e+06
4.0025e+06
17818
-17841.9
84686.4
98024.8
83993.9
-83727.5
2.28272e+06
591679
-6.80233e+06
6.80517e+06
2.56509e+06
2.64999e+06
-2.65653e+06
4.64744e+06
301859
403493
560231
485419
-483546
6.46816e+06
-6.47241e+06
165914
-3.63009e+06
3.63107e+06
138961
135439
2.79087e+06
-2.79696e+06
-5.95411e+06
109050
2.45952e+06
-50306.3
-111092
18032
5.16503e+06
-5.91933e+06
-2.57941e+06
5.82499e+06
459050
703171
233697
-1.78508e+07
1.78561e+07
-1.39757e+06
871968
6.565e+06
-6.56236e+06
493805
-515409
128654
-128034
-3.87037e+06
1.7268e+07
-1.72624e+07
390682
341358
-388408
342990
1.78934e+06
-1.78891e+06
135875
-134657
-158847
-2.99863e+06
2.99925e+06
-63358.5
-3.45703e+06
-196684
196988
-7.75852e+06
7.76072e+06
-227058
193728
-655252
-1.34861e+07
1.34913e+07
-1.83598e+06
1.83625e+06
-972700
-451778
1.37476e+06
173577
-404958
-5.18687e+06
-77644.2
4.20807e+06
67498
-4.20881e+06
5.01646e+06
-5.01514e+06
-4.55335e+06
1.99636e+06
133753
44452.1
-6.24112e+06
1.15312e+06
-3.72841e+06
46091.6
3.62108e+06
151383
112065
82519.6
408710
425189
-27641.9
-360431
7.35298e+06
-7.34901e+06
1.96409e+06
-4.14727e+06
-417243
-1.24425e+07
1.24475e+07
-149547
571796
-6.29948e+06
73326.6
6.31037e+06
858022
-853930
-490777
38443.5
3.78202e+06
382272
-217073
-458363
2.91999e+06
-23723.9
-2.97214e+06
639186
63478.8
221264
-202968
203162
-306234
-19610.9
-975351
-4.8259e+06
434547
-434344
-6.1749e+06
6.17862e+06
-77516.1
-1.96226e+06
1.1437e+07
-1.14376e+07
181902
-177448
3.0378e+06
-3.03655e+06
-295756
297138
-2.67544e+06
69092.5
-403343
314991
879961
-8.81974e+06
8.82179e+06
-7.62699e+06
7.62926e+06
753577
-748576
1.4788e+07
-1.47836e+07
-1.98109e+06
494169
-521150
-214865
3.52259e+06
260630
-163229
-3.1399e+06
3.14088e+06
-119932
145786
172634
-126227
123684
-5.48036e+06
-1.23418e+06
4.55733e+06
-4.55592e+06
217963
21176.6
8.41494e+06
-8.41579e+06
1.98255e+06
-1.9821e+06
73348.6
2.17398e+06
-1.60758e+06
-2.32941e+06
-33097.2
-669482
-9.12332e+06
9.12368e+06
-313876
4.4081e+06
141460
-3.40065e+06
3.40164e+06
1.71042e+07
-1.70986e+07
3.69927e+06
-319266
-300136
-5.65725e+06
5.66314e+06
35102.4
-919366
4.52149e+06
-4.51718e+06
-4.87745e+06
6.79062e+06
-6.78876e+06
7.47486e+06
-7.47371e+06
-6.32092e+06
-1.38673e+07
1.387e+07
-275317
-231974
569713
-569444
-373848
178813
-178646
-634776
-5.72261e+06
5.72444e+06
-1.47486e+06
1.47328e+06
-906803
1.8186e+07
-1.81818e+07
-343944
39918.7
-669446
-1.6796e+06
7.57061e+06
-7.56429e+06
-3.07937e+06
3.07984e+06
-104180
216576
5.19705e+06
-33948.4
-5.82575e+06
-5.47e+06
-128498
-1.18576e+07
1.18573e+07
172255
-190939
190972
42808.2
-3488.6
-6.70294e+06
6.70585e+06
-4.18623e+06
-209827
196651
269388
-917024
221602
-4.89883e+06
-209619
5.03935e+06
-5.03364e+06
-72965.3
101641
2.24052e+06
-2.23986e+06
211376
-1.92382e+06
1.92854e+06
-313454
1.89635e+07
-1.89579e+07
-7.92903e+06
7.93128e+06
-2.02962e+07
2.03016e+07
-284079
-5.06382e+06
5.02862e+06
192095
-1.63628e+07
1.63673e+07
121081
1.94858e+06
-2.40474e+06
-18036.7
-70838.7
189652
-933124
-83971.8
6.74026e+06
-6.73598e+06
-184514
6.64122e+06
-6.63662e+06
333743
-6.71445e+06
6.71834e+06
-499483
57163.4
-1.89463e+06
1.89723e+06
522324
-522119
96987.8
3.5023e+06
5.49626e+06
4.81377e+06
-4.81164e+06
1.10053e+06
-1.10032e+06
-377183
-213863
197098
-102672
3.88288e+06
-3.88529e+06
-361082
3921.12
-85192.1
85631.9
-3937.77
-303633
1.97607e+06
-1.97135e+06
-1.36515e+07
1.36553e+07
-1.20517e+07
1.20562e+07
1.93653e+07
-1.93597e+07
1.29821e+06
6.90334e+06
-6.89881e+06
-185662
40529.5
-7.21152e+06
7.21657e+06
-173040
5.51518e+06
-5.51238e+06
148802
-1.55432e+06
17391.4
-2.04052e+07
2.04107e+07
30218.3
-72772.6
-137453
179881
-5.46773e+06
5.46963e+06
810155
5.67638e+06
-3.16114e+06
3.16166e+06
-274879
276091
725646
-722229
416506
172065
147541
-147538
-4.48258e+06
-5.64492e+06
-1.17829e+06
-758374
4.10198e+06
1.07065e+06
-93442.8
-2.06803e+06
-1.82659e+06
70560.3
2.92494e+06
199804
-311956
-719724
525898
626815
-625061
6.76507e+06
-6.76152e+06
3.19461e+06
-463851
2378.4
151322
93924.3
-61631.3
-5.99197e+06
-201755
509889
19455
-1.62359e+06
8.96678e+06
-8.96372e+06
5.50948e+06
89042.2
-16437.4
-58240.9
4.59059e+06
-4.5894e+06
-114218
114441
535062
-532431
174848
-828456
-793176
-679660
-5.8281e+06
5.83952e+06
313202
9.48386e+06
-9.48611e+06
-780083
780196
-313760
5.80191e+06
-5.79963e+06
1.30734e+06
-44755.4
-48522.3
206689
2742.6
96251.3
708039
-707846
-138889
-1.37598e+06
6.52944e+06
-6.52721e+06
-87772.9
97400.1
-3.88361e+06
-95340
-928727
995939
164698
1.10835e+06
47603.4
37061.3
-109991
-2.92011e+06
-130103
-1.14082e+06
3.93331e+06
-3.92565e+06
-58782.1
58992.4
116933
488685
-5.06895e+06
5.07052e+06
-125994
-387540
-464282
995823
-152016
1.836e+07
-1.83541e+07
-374609
5.99294e+06
-5.98606e+06
-250082
250208
186849
-107829
-1.06497e+06
122402
8.98475e+06
-8.98516e+06
-212768
342646
260463
83822.4
188065
-4.60392e+06
-1.81083e+06
-2.07437e+06
380685
88451
-88447.8
8.93082e+06
-8.92974e+06
154782
-204196
-608462
-567152
463848
-463847
33960.9
113208
-17356.6
113153
356908
2.74242e+06
-2.74664e+06
-1.02886e+06
-318204
5.3384e+06
-5.3366e+06
-542920
56123.2
845277
1.44525e+06
-1.44511e+06
-4.10529e+06
4.11288e+06
-5.08614e+06
-9.28339e+06
9.28626e+06
175499
-85372.4
-133763
-227671
666712
-666546
286010
-3.24416e+06
3.24502e+06
19394.5
-19172.1
-4.50927e+06
4.65443e+06
1.54509e+07
-1.54463e+07
-6.31443e+06
6.31678e+06
859945
-234521
5.20071e+06
-5.1989e+06
-143593
-705651
1.22748e+07
-1.22706e+07
1.00826e+06
-1.00809e+06
-6.68017e+06
-5.30308e+06
5.30475e+06
-327221
327167
6.68152e+06
303524
257645
-438303
1.52357e+06
-1.52324e+06
48218.7
525298
1.0805e+06
-46240.5
3.82099e+06
5.9766e+06
-173809
5.7355e+06
-5.73059e+06
63075.7
2.1448e+06
-18837.3
456397
-456844
-59995.3
-274942
768480
-767736
-4.54143e+06
-5.40245e+06
-278072
5.75821e+06
-5.75652e+06
-6.75638e+06
-321071
-6.40063e+06
-218401
1.64771e+07
-1.64725e+07
186308
3.2871e+06
6.74818e+06
-136912
183788
6.40936e+06
216497
1.12525e+07
-1.1248e+07
-300351
300584
52175.6
-2.38615e+06
46852
7.55689e+06
-7.55506e+06
-3.20661e+06
3.20757e+06
-143722
351112
1.52655e+06
-1.52625e+06
-86518.6
4.32917e+06
-4.33152e+06
-434365
-1.65504e+06
133165
-55538.4
218128
-132323
957358
-1.23229e+06
63664.7
509267
-509187
-393735
560498
917236
-297094
120492
-547921
-820457
-229723
453186
513754
2.51976e+06
-4.31259e+06
3.39838e+06
-183811
-225995
-220662
-1.22972e+07
1.22973e+07
4.23954e+06
-2.39855e+06
2.39547e+06
-1.00634e+06
-1.55204e+06
7.2205e+06
-7.2145e+06
1.5133e+06
2.2148e+06
-2.21441e+06
-3.63398e+06
-90285.9
1.66437e+06
-4.29763e+06
6.01763e+06
3.55513e+06
-170364
4.87723e+06
244023
154796
1.57428e+07
-1.57375e+07
506429
-1.67907e+06
2.95553e+06
-2.95785e+06
6.0751e+06
193164
392172
322215
-2.55265e+06
2.55988e+06
-24913.9
-1.15553e+06
-435235
-1.64457e+06
1.64487e+06
-234470
-24077.6
402994
3932.6
-2.28318e+06
-94064.2
4.10627e+06
158171
-2.3672e+06
2.36923e+06
9117.72
-223934
575034
558575
27861.4
-8.59597e+06
8.59587e+06
529523
-1.74331e+06
51066.6
-1.26857e+07
1.2686e+07
786.605
1.18442e+06
-216216
-3.44814e+06
3.44913e+06
-1.1323e+06
-6.10418e+06
6.15067e+06
9.68475e+06
-9.68249e+06
-26563.8
-1.14756e+06
1.02663e+06
-1.02608e+06
-4.25171e+06
1.99676e+06
-290434
639374
-639246
-602085
6.5324e+06
-6.531e+06
-390677
-333157
-1.3633e+06
-7.65917e+06
-4.13298e+06
-86577.5
7.65783e+06
434064
580924
-1.73046e+06
-2.71631e+06
2.71971e+06
3.80381e+06
-4.08823e+06
350010
4.4133e+06
255655
-90178
-30658.1
-244669
-3.22026e+06
-210923
39934.6
1.10556e+06
-1.19394e+06
-146769
-263254
770718
-198648
152677
-1.72052e+06
162745
227762
-1.76537e+07
1.76579e+07
727138
-611970
-2.30717e+06
2.31185e+06
2.72105e+06
-2.72031e+06
-106973
-290228
78500.3
-1.70558e+06
1.70787e+06
441236
-441185
170767
457445
-22224.9
-1.15421e+06
-488952
-323110
-1.06821e+06
327011
7114.59
6.9495e+06
-6.94453e+06
4.73596e+06
-4.61561e+06
2.1833e+06
532997
569279
-569094
1.17599e+06
1.76409e+06
4.37848e+06
76441.5
-151609
178656
30533.7
-276436
-149249
-291456
-133251
-175068
7.18108e+06
-7.17608e+06
-247259
1.44359e+06
3.53967e+06
-97328.1
-102449
883856
-882125
-3.88298e+06
21263.8
-6.80719e+06
6.8043e+06
7.61016e+06
-7.61289e+06
932136
-423707
216620
600754
-8.2186e+06
8.22074e+06
3.25839e+06
-3.26425e+06
1.62089e+06
546064
-545970
-519428
190469
-954380
247983
-246751
-3.99738e+06
-2.40743e+06
262319
-462657
-7.06744e+06
7.07046e+06
4.40345e+06
-119560
120842
14162
399719
-126519
5.00575e+06
-4.98975e+06
-561188
561252
-1.09681e+06
-5.60327e+06
5.62192e+06
-3.12599e+06
3.1268e+06
2.08207e+06
32652.7
446687
213896
5.11112e+06
-5.10747e+06
-846387
-1.90206e+06
-73977.8
26929.5
-1.48063e+07
1.48116e+07
195148
999082
60399.7
2.90592e+06
-2.90521e+06
-197290
-1.30453e+06
-62134
-71259.8
5.66694e+06
-5.66512e+06
109584
5.6616e+06
-5.65853e+06
198870
-68367.4
226261
-232493
4.91385e+06
597792
68533.6
-467475
-100715
2.04016e+06
-1.90805e+06
458426
-455429
94948.2
6.02101e+06
-6.02344e+06
8.73291e+06
-8.7315e+06
-37594.9
7.96515e+06
-7.96284e+06
-1.26511e+07
1.26538e+07
-174450
174420
26153.6
434820
-434739
-522580
738617
-2.23056e+06
-1.3584e+06
-169110
76581.7
48859.4
-46667.1
-4.06128e+06
4.06096e+06
1.03668e+06
-142350
162975
194341
-363427
143585
-150351
-511240
59294.6
5.79178e+06
-5.79483e+06
94381.1
-5.14327e+06
-60428
-97166.5
-2.81716e+06
-2.43139e+06
5.35432e+06
-5.3558e+06
4.89651e+06
-199007
-864288
973719
-320411
256896
-90155.1
-6.43125e+06
6.43721e+06
120924
-1.48525e+06
4.00664e+06
-5.52824e+06
6.26332e+06
91650.4
5.51966e+06
-166344
375882
3.08006e+06
3.02459e+06
-1.96306e+06
1.15431e+06
210848
21806.6
-36880.1
-25934.8
403458
-4.00724e+06
112708
313291
-313110
101856
1.24881e+06
-1.92281e+06
-2.26281e+06
420411
-7.56078e+06
966467
-261255
134079
216963
7.55643e+06
399687
-872513
855641
-174273
31696.7
-19548
-157202
811227
-809764
184951
-7.94585e+06
7.9462e+06
262440
8.00043e+06
-7.99754e+06
805945
1.7918e+07
-1.79123e+07
224426
160193
-570018
252247
-252152
419183
-3695.5
-242908
-405394
8.62376e+06
-8.62234e+06
-4.94189e+06
1.68908e+06
1.41658e+06
-168407
2.87498e+06
-2.87696e+06
581216
-578406
828116
43393.1
1.66529e+07
-1.66483e+07
6.30543e+06
-6.30293e+06
-7881.06
439933
1.88294e+06
7.26918e+06
-7.26539e+06
-167151
-937780
941500
103013
-97131.5
-5.82831e+06
5.83009e+06
164447
784245
-784137
8.49574e+06
-8.49493e+06
-571709
-125116
-923969
43507.7
3.94971e+06
701895
-40231.7
2.14981e+06
5.32629e+06
-125102
876456
-125864
502434
-502270
-2.6805e+06
-1.26744e+07
1.26766e+07
5.43666e+06
-5.43523e+06
-1.39201e+06
-6.5371e+06
6.54148e+06
2.4955e+06
-2.48904e+06
-919996
2.72593e+06
-2.71289e+06
106983
-219457
219735
60959.4
-136352
-465265
242389
4.79751e+06
-4.86309e+06
256986
163513
-2.48747e+06
-202421
-290314
292224
-3.80791e+06
3.8087e+06
75407.3
364339
7.60262e+06
-7.60065e+06
-103280
4.19472e+06
111010
-1.1939e+06
1.00642e+06
5.19411e+06
-380213
-362784
27457
-6.71701e+06
6.71883e+06
-2.33024e+06
2.33333e+06
-1.85678e+06
1.85719e+06
1.60984e+06
-1.5968e+06
-22779.7
221160
31526.1
219778
-4.20001e+06
-834640
4.21966e+06
-4.22274e+06
-55856.3
101640
1.87936e+06
-5.65263e+06
5.65451e+06
3.30496e+06
486842
-2683.99
5.52349e+06
-5.52074e+06
-5.7715e+06
-197231
-1.29231e+06
1.29253e+06
-3.22003e+06
-6.89378e+06
6.8982e+06
-299617
-2.51375e+06
-5.58338e+06
-122391
-1.00707e+06
912014
54634.4
1.62859e+06
1.02882e+07
-1.02833e+07
-47282.8
1.26896e+07
-1.26859e+07
1.21972e+06
5.83946e+06
-5.83692e+06
-1.57469e+07
1.57523e+07
-97700.9
-1.60169e+06
1.60159e+06
-935975
936219
63222.9
-3.9638e+06
178330
1.44001e+07
-1.43961e+07
-121261
-384092
-4.89433e+06
4.87886e+06
158479
1.13865e+07
-1.13839e+07
2.02062e+06
-101115
-17317.9
17398
-1.06037e+06
1.06352e+06
-8.49652e+06
6.48046e+06
-6.478e+06
188721
2.8278e+06
-2.83412e+06
3.80875e+06
-3.81146e+06
300790
3.94557e+06
1.00435e+07
-1.00411e+07
-3.82671e+06
3.82745e+06
1.90853e+06
181389
-1.13419e+07
1.13409e+07
698620
196735
-195700
168285
-168296
-3.46053e+06
1.29661e+07
-1.29648e+07
566524
-5.82986e+06
5.83194e+06
-2.99451e+06
-928724
-1.45805e+06
1.45832e+06
-8.65077e+06
8.65293e+06
-1.81547e+06
363514
-173071
3.02501e+06
-208394
-1.23912e+06
3.25799e+06
4.55421e+06
70500.7
-303099
-2.30912e+06
2.30964e+06
593070
-592919
201529
-60725.9
-7943.16
249450
197130
-21804.9
-25288
87422.1
74006.8
2.68571e+06
-2.6834e+06
-1.55412e+07
1.55462e+07
1.06466e+06
34171
-3.94831e+06
-192987
-204018
1.36273e+06
-2.14736e+06
-956729
3.15545e+06
-3.15583e+06
303496
-4.37293e+06
4.37486e+06
-2.07494e+06
-8.20745e+06
8.20945e+06
-6.934e+06
6.9366e+06
-2.2603e+06
-6.91826e+06
6.92221e+06
2.24595e+06
-2.24567e+06
7.25402e+06
-7.2504e+06
1.86485e+07
-1.86434e+07
-47931.3
2.03212e+06
1.12773e+06
-386111
-1.32725e+07
1.32776e+07
-6.98884e+06
6.99275e+06
-62347.6
-417854
-2.09839e+06
243748
-243716
1.30562e+06
202786
-355965
-1.80386e+06
-416075
-93443.3
-389511
4.22911e+06
-4.23157e+06
-415857
-522815
947244
3.03206e+06
-3.03389e+06
107321
641839
1.86759e+06
-1.07317e+06
-184775
127493
-54050.8
1.35201e+07
-1.35174e+07
2.64188e+06
-2.64116e+06
1.21859e+07
-1.21826e+07
-52430.5
106732
-204337
2.17355e+06
-3.09678e+06
119139
-71507.8
257736
1.0813e+06
-1.27992e+06
1.27923e+06
6.64536e+06
-6.64974e+06
704186
2.51392e+06
-1.0444e+06
1.04802e+06
2.01681e+07
-2.01627e+07
60790.7
-60706.9
-2.30013e+06
-101143
151355
689747
-210292
203429
-624783
624976
222690
-1383.57
7.84018e+06
-7.84096e+06
-387115
267925
632057
-296019
-304139
175314
4.7443e+06
-4.80552e+06
1.25768e+07
-1.25725e+07
-271040
2.17361e+06
-2.17316e+06
8.52741e+06
-8.52681e+06
-151404
5.1998e+06
-5.23242e+06
-1.00286e+07
1.00315e+07
-1.88959e+06
-244071
-6.43005e+06
-3.45112e+06
3.45091e+06
-1.09856e+07
1.09846e+07
131632
6.55532e+06
-6.49303e+06
6.49719e+06
169387
-295651
-4.1316e+06
4.13265e+06
-41005.6
154511
-167929
595459
-6.98758e+06
-6.46487e+06
6.46819e+06
3.51345e+06
6.21709e+06
-6.21436e+06
1.21809e+06
2.30584e+06
6.98399e+06
-6.10363e+06
6.10784e+06
-1.75168e+06
3.27634e+06
46273.4
1.54227e+06
-1.54202e+06
905068
1.53301e+06
4.57004e+06
-4.56793e+06
89498.7
-2.10182e+06
2.10796e+06
8.48446e+06
2.18417e+06
-2.13268e+06
2.5018e+06
-2.49971e+06
1.46261e+06
-1.18951e+06
-219611
-248024
182310
-2.15202e+06
-582284
-152386
3.49308e+06
162136
-1.71718e+06
1.11236e+07
-1.11218e+07
-3.86738e+06
4.10846e+06
-4.11178e+06
7.32054e+06
-7.31732e+06
819694
-7.9544e+06
7.95689e+06
1.09485e+06
641191
165897
-2.27315e+06
2.27154e+06
804203
-3.82349e+06
3.82488e+06
-4.26386e+06
13579.5
5.36204e+06
-319483
-142045
-353452
-1.05039e+06
1.05e+06
1.49563e+07
-1.49521e+07
63243.9
160378
2.58729e+06
-7.21056e+06
7.21429e+06
-32303.3
3.31457e+06
-3.3162e+06
298015
-269377
269405
-385847
3.0831e+06
-735344
-1.29788e+06
1.21407e+06
3.09997e+06
-3.09996e+06
-3.27767e+06
208754
345612
-14607.4
-212790
-758919
-31741.5
-825819
381212
-1.3394e+06
3.10388e+06
-3.10694e+06
278006
1.22585e+07
-1.22567e+07
337861
-332612
410058
-325791
340938
-3.01231e+06
5.31435e+06
87161.3
137935
27285.6
-21375.9
924179
-1875.19
-367910
47878.3
-2.15706e+06
2.15887e+06
6.26898e+06
-6.27084e+06
1.60166e+06
-1.02381e+06
2.29902e+06
-3.47656e+06
3.47672e+06
-286731
-16674.3
76473.2
-6.42742e+06
6.43005e+06
2.30758e+06
248825
-309991
142153
-83165.5
-278719
280657
264133
-17662.9
-411946
-2.39367e+06
505378
5.27252e+06
-5.26966e+06
-7.36932e+06
7.3741e+06
3.19177e+06
78652.9
523235
-523139
-7.31539e+06
7.32082e+06
14884.2
2.82319e+06
154154
1.32271e+06
208940
122163
674831
346465
-432525
-2.03289e+07
2.03344e+07
-87016.4
1.51618e+07
-1.51566e+07
2.9071e+06
-2.91688e+06
5.05501e+06
-646653
514259
-2.14722e+06
1.65914e+06
-32263.2
-2.22106e+06
-3.77248e+06
7.49657e+06
-7.50221e+06
-3.86921e+06
3.76969e+06
-3.17688e+06
3.17816e+06
1.62722e+06
-308244
-16511.8
433238
1.39956e+07
-1.39912e+07
438853
-6.5243e+06
6.52678e+06
3.94596e+06
164655
-2.65078e+06
193621
6.56e+06
-6.55501e+06
1.405e+06
203896
37753.8
-211491
211584
-420488
417277
4.50476e+06
-4.79987e+06
-127200
-1.02745e+06
1.11503e+06
322771
10726.8
-145735
249790
-9001.71
-7.21313e+06
7.21763e+06
-212153
336106
-6.34929e+06
6.35244e+06
138545
-6.44271e+06
-38932.5
-2.03001e+06
6.4523e+06
-43501
43667.2
111441
5.19293e+06
-7.76119e+06
7.76615e+06
4.7638e+06
-284087
-2546.63
14301
-13420.3
1.85091e+06
7.90948e+06
-7.90699e+06
-149600
80374.9
33522.8
278128
-84133.6
-328396
-336066
1.44113e+06
-1.43958e+06
274831
-113339
919157
1.0533e+06
-1.05328e+06
5.51279e+06
-5.63822e+06
5.64177e+06
6.52693e+06
-6.52493e+06
-1.99833e+07
1.99887e+07
307959
2.01701e+06
-2.08348e+06
-172558
105309
3.00567e+06
-605325
-3.05812e+06
-4.34718e+06
279839
-259258
-4.11318e+06
4.11468e+06
-404946
-4.45074e+06
463544
2.04281e+06
-191823
-78118.8
-129762
216725
8.24565e+06
-8.24375e+06
-260465
33489.5
-1.62443e+06
1.62246e+06
-336831
-264535
-18503.7
5874.47
-94083.8
93183.2
476612
2.14829e+06
-2.14783e+06
-246497
-7.53343e+06
7.53671e+06
-366982
-5.12595e+06
111933
5.10993e+06
180872
-161679
622360
-2.15097e+06
-725706
-18097
-7.37694e+06
7.38014e+06
455951
-367019
-82600.9
469119
-4.84065e+06
4.84171e+06
1.91307e+07
-1.91245e+07
-3.80742e+06
-616657
-553667
-6.80054e+06
6.80565e+06
136263
-136018
-135407
-295237
4.02324e+06
148188
3.80253e+06
1.57445e+06
-6.12566e+06
6.12947e+06
-908225
105355
-4.44432e+06
-185768
-381797
-3.4029e+06
2.99859e+06
-2.99734e+06
-579947
-267429
267486
402423
-400703
201824
4.6791e+06
-77787.7
-4.83946e+06
-904766
908098
-782184
3.8859e+06
-209675
4.47063e+06
-222714
-1.27543e+06
1.27565e+06
357632
-1.85375e+07
1.85419e+07
-4.63918e+06
4.64051e+06
78450.3
289902
-288361
-10914.4
-176751
176758
-3.75237e+06
3.75378e+06
-1.08241e+07
1.08228e+07
31015.8
1.99167e+06
1.6875e+06
-1.68712e+06
-167117
-163134
5.96704e+06
-5.96338e+06
-1.29557e+06
-18089.8
6.66683e+06
-6.66402e+06
-2.56282e+06
6.35385e+06
-6.35632e+06
159313
96586.3
-1.33767e+06
7.05767e+06
-7.05589e+06
115605
2.4507e+06
-2.44773e+06
-6.42951e+06
6.43252e+06
4.24668e+06
-4.24917e+06
2.5163e+06
-3538.3
-3.40635e+06
3.40454e+06
-3.11742e+06
3.11862e+06
-2.02426e+06
-815488
1.12741e+06
783272
22903.8
1.22737e+06
1.12062e+07
-1.12047e+07
5.67871e+06
-5.67624e+06
-3.68101e+06
3.68164e+06
-131686
-1.82559e+06
1.60569e+06
4.36712e+06
-4.36544e+06
-4.4968e+06
-657327
660285
-132335
-195356
2.57736e+06
-2.56336e+06
-381333
-303821
222613
-39919.5
40085
-150584
-5.31163e+06
5.30175e+06
131913
1.4137e+06
-369271
178266
-9.09297e+06
9.09214e+06
203580
-4.91651e+06
488576
-1.31279e+07
1.31319e+07
640040
5.39376e+06
-5.39151e+06
-240657
-3.48557e+06
-852779
29503.7
-2.64229e+06
-36813.9
-1.07547e+06
1.07575e+06
459390
-461386
565187
-4.10468e+06
4.10567e+06
-2.1059e+06
-1.6437e+06
2.10642e+06
-3.58449e+06
3.58985e+06
2.73439e+06
-1.20333e+06
-36090.9
706902
-2.65562e+06
2.01853e+06
347252
-352054
704908
-4.43043e+06
-261535
-1.74265e+06
-100344
299510
-484534
1.12282e+06
167844
-108965
-3.24446e+06
3.24512e+06
-713733
713876
-285594
1.87378e+06
-1.85678e+06
-975522
-1.76738e+06
2.66759e+06
-269340
1.33542e+06
57741.9
-692567
804519
-1.11036e+06
1.11052e+06
-1.98329e+06
-122159
229866
1.98805e+07
-1.98744e+07
13719.4
189211
988849
70447.7
134594
-1.09551e+06
501004
182859
-2.76962e+06
44443.2
31989.2
-32017.2
1.99849e+06
-2.04166e+06
251415
520415
6.09666e+06
-6.10176e+06
2.33313e+06
261170
1.96697e+06
-5.23925e+06
5.24244e+06
46543.2
239062
5.52454e+06
-2.70939e+06
406922
-157352
437339
-121824
74479.4
91804.5
138191
126953
2.17583e+06
-26483.7
241476
-241313
-2.0627e+06
2.06696e+06
478345
-478643
282388
-286117
3.39436e+06
-9.68732e+06
9.6924e+06
-97159.6
253525
-62229.1
3.17176e+06
-5.28307e+06
-3.99937e+06
239215
-1.16528e+06
1.16233e+06
-3.32485e+06
3.32445e+06
-7.36518e+06
7.36096e+06
69314.9
-6.63342e+06
198903
-164192
-219952
3.95958e+06
-82547.9
-208779
399639
-8028.35
6.6359e+06
-295953
903355
6.54015e+06
-57215.4
63844
-260961
422486
-1.38621e+06
1.52036e+06
-1.52006e+06
5.55754e+06
-5.55479e+06
-3.71191e+06
653855
-394959
-2.57111e+06
2.57098e+06
2.59217e+06
305413
-148021
146269
106014
-123667
-116627
-842728
1.2303e+06
-1.21883e+06
237483
-5.07171e+06
-126961
-211437
-6.4707e+06
6.48202e+06
-731256
4.69415e+06
-4.69176e+06
322023
-321578
-354711
5.54198e+06
-5.53936e+06
-103395
-348542
-145079
-1.1937e+06
-1.00778e+06
1.01098e+06
-5.79116e+06
5.79431e+06
111309
559925
5.1484e+06
7.05751e+06
-7.05498e+06
6.99903e+06
-6.99519e+06
881495
-6.25693e+06
6.25944e+06
3.70872e+06
-186913
-1.88005e+06
1.88042e+06
-2.45376e+06
243976
242735
1.34269e+06
2115.89
-3315.79
-5.08324e+06
5.0862e+06
-3.32201e+06
3.32322e+06
6.09302e+06
-6.09593e+06
120928
3.29535e+06
-3.29723e+06
-284099
-972.173
-12923.2
4.58102e+06
-4.5789e+06
627967
-1836.69
986112
-431215
-111.112
-1.54861e+07
1.54903e+07
-584126
407153
-247634
-7.05557e+06
7.05798e+06
74415.2
411808
-420620
5.2768e+06
-5.27147e+06
-35001
34380.7
3.17658e+06
2.82218e+06
3.08228e+06
108356
4.76661e+06
3.01879e+06
-3.177e+06
-2.58336e+06
1.68435e+06
-1.68404e+06
473506
374096
-373829
360691
-1.87764e+06
1.8795e+06
46009.9
-72419.6
-6.4683e+06
6.47108e+06
-384309
2.31436e+06
6.32068e+06
2.24027e+06
-59157.5
-5.67979e+06
5.68317e+06
1.38842e+06
-1.37566e+06
-1.82206e+06
-36305.4
1001.56
191426
-340003
397442
-424412
-1.86527e+06
-460227
460344
-6.60021e+06
6.60323e+06
-236722
-816082
784156
149166
83467.7
349158
-324262
47986.4
-66794
65360.5
-70903.8
-17075.1
1.34351e+06
-3.74247e+06
-211672
4.7972e+06
-4.79451e+06
699577
-3.9925e+06
3.99367e+06
1.34219e+06
-1.34165e+06
-4.88054e+06
-185283
-1.04835e+06
43069.8
151667
1.36938e+06
-1.3691e+06
-278799
-73399.6
2.12278e+06
-253827
961997
-959967
-71702.6
376113
7.16796e+06
-7.16294e+06
-1.48923e+07
1.4897e+07
-2.70889e+06
2.70795e+06
-6.32385e+06
825578
-219763
6.29836e+06
264553
4.54944e+06
-4.52317e+06
424484
-6.72921e+06
6.73492e+06
-4.29209e+06
-289573
281869
44162.1
3.02925e+06
279278
4.71152e+06
361146
-1.34773e+06
-51238.5
-885177
885307
5.30891e+06
-7.50776e+06
7.51018e+06
-2.44271e+06
2.44324e+06
1.27922e+06
3.72223e+06
-7.28017e+06
7.28561e+06
-154797
19285.8
2.55551e+06
5.05672e+06
-2.99671e+06
345070
9.07303e+06
-9.06817e+06
131556
1.10545e+07
-1.10562e+07
-93073.2
93076.2
-5.26279e+06
-6.09773e+06
-55989.6
-4.55105e+06
6.07238e+06
-269719
1.25771e+06
-1.25562e+06
5.9471e+06
-5.9439e+06
-378959
-2.6052e+06
-514817
323133
-3.60744e+06
255283
-254052
6.72115e+06
76169.2
-33626.5
44561.1
-42.6593
-3.48597e+06
3.48681e+06
76680.2
-274744
274744
1.55623e+06
2.34562e+06
-2.34603e+06
-205471
3.27908e+06
460551
1.6677e+07
-1.66717e+07
103933
-127498
-48380.8
-178406
-889742
121742
434555
-1.16114e+06
-7.57032e+06
7.57292e+06
301013
277270
65185.6
76432.6
-3.2265e+06
160221
269539
-357768
-1.3036e+07
1.30381e+07
-7.00452e+06
-132235
6.98e+06
1.63402e+06
1.83591e+07
-1.83541e+07
223600
-7.36433e+06
-347781
7.29447e+06
1.35165e+06
-1.35241e+06
-1.16033e+06
1.16069e+06
168471
-182521
321898
-127402
4.57799e+06
-4.57552e+06
-86205
-2.66512e+06
-582399
471645
914623
4.96717e+06
-4.97139e+06
-1.38956e+06
-322694
-798072
-7.10148e+06
7.1048e+06
5.25417e+06
-5.25845e+06
-24231.3
8164.14
-2498.83
-129986
-750515
-477354
847172
-847051
80349.1
34828.2
1.08787e+06
129720
182930
-1.74988e+06
1.75027e+06
78261.3
3.30812e+06
-81979.1
-6.00249e+06
6.00723e+06
2.54819e+06
-2.54549e+06
-3.9047e+06
-199954
4.82024e+06
-4.82932e+06
-827027
-3.35038e+06
261827
771377
-2.41611e+06
7.51376e+06
-7.50864e+06
-135443
-3.0149e+06
-1.4639e+06
1.45674e+06
1.3088e+06
-1.30723e+06
319117
7.37772e+06
-7.37167e+06
1.2672e+07
-1.26673e+07
381908
-369953
-3.70658e+06
-1.73073e+06
956212
-231794
6.02343e+06
-6.02592e+06
26871.3
-7.39698e+06
7.40581e+06
331688
491203
-25613.6
2.80837e+06
-2.81598e+06
50911
-572276
-73865
177319
-5154.15
-2.41562e+06
2.4162e+06
-344154
1.04956e+06
2.53285e+06
8.93132e+06
-8.93026e+06
-1.87045e+07
1.87095e+07
-3.93572e+06
-2.52285e+06
-6.60811e+06
6.61445e+06
-1.99395e+07
1.99449e+07
-5.10467e+06
5.10164e+06
-3.63702e+06
3.63801e+06
891253
1.33882e+06
1.64661e+07
-1.64617e+07
105848
1.49251e+06
-1.49218e+06
2.04434e+06
204343
284026
2.00021e+06
-1.9993e+06
5.52044e+06
-3.57136e+06
344090
-171886
5.45469e+06
2.37502e+06
-122920
286878
-1.78946e+06
7.90839e+06
-7.90599e+06
9.96348e+06
-9.96447e+06
3.9107e+06
-3.90943e+06
-5.51944e+06
1.49653e+06
-1.49571e+06
-1.37152e+06
1.3708e+06
42730.7
46870.8
-233010
215512
6.91552e+06
-6.91053e+06
-3.19168e+06
3.19238e+06
2.03272e+07
-2.03217e+07
105936
-628400
-93253.7
408613
-383177
-1.69865e+06
1.69953e+06
-36350
-86777.3
-2.25366e+06
79640.3
-1.4439e+06
-5.45366e+06
-7.04904e+06
7.0525e+06
-2.33489e+06
160990
-70682.2
-5.52761e+06
5.53169e+06
334546
4.45007e+06
-4.44818e+06
-64003.4
-1.16201e+06
-846709
-441118
441154
-455952
1.38552e+07
-1.38513e+07
-3.40631e+06
829014
491123
3.03295e+06
-42177.2
-28627.5
198663
-197785
-1.76103e+06
80568.4
-859422
-1.6137e+06
5.45856e+06
5.71712e+06
267788
2.53447e+06
-2.04932e+06
1.95166e+06
112534
-114484
-6.88236e+06
1.87891e+06
1.27268e+06
57418.8
-260240
1.5963e+07
-1.59585e+07
2.24492e+06
6.85691e+06
695836
-694354
-1.06919e+06
1.00192e+06
-1.00169e+06
-5.40156e+06
5.40485e+06
612907
-1.91507e+07
1.91558e+07
244890
4.18675e+06
83150
42605.4
259454
2.81562e+06
-2.82037e+06
232138
6.12664e+06
-6.12831e+06
-176820
130639
46453.7
-46229.9
-2.34165e+06
-840360
-387646
1.5536e+07
-1.55306e+07
2.35408e+06
-206078
859915
398466
1.52613e+06
-1.52585e+06
8.33152e+06
-8.32925e+06
63236.3
-355579
-1.47586e+06
256364
1.17512e+06
2.25451e+06
456388
-458962
488681
-92206.4
186925
118959
-378371
123458
254519
-408491
730220
1.04706e+07
-1.04659e+07
-60835.3
-5.98825e+06
5.99252e+06
-2.02252e+06
2.02462e+06
105644
-5.63594e+06
5.63923e+06
-2.79566e+06
-3.45474e+06
5.92756e+06
751231
347365
-364688
324460
-7.25971e+06
7.26578e+06
1.85388e+06
81240
-80864.7
1.7825e+07
-1.78192e+07
250.918
-6.87575e+06
6.93692e+06
50698
359352
322677
5.15477e+06
-5.15317e+06
-2.44875e+06
-93273.5
3.40741e+06
-3.40644e+06
-196752
17427.6
-94088.4
1.84349e+06
-7.65406e+06
7.65778e+06
1.77336e+06
231071
13847.4
-1.3704e+06
8.58452e+06
-8.5813e+06
-1485.1
6.39128e+06
-6.28397e+06
-4.08281e+06
8.27954e+06
-8.27728e+06
6.28915e+06
290181
1.32642e+06
-250473
1.71474e+06
-1.71443e+06
1.06485e+06
-740731
6.23269e+06
-6.23029e+06
4.80884e+06
-4.81134e+06
223144