/*--------------------------------*- C++ -*----------------------------------*\
| =========                 |                                                 |
| \\      /  F ield         | OpenFOAM: The Open Source CFD Toolbox           |
|  \\    /   O peration     | Version:  v3.0+                                 |
|   \\  /    A nd           | Web:      www.OpenFOAM.com                      |
|    \\/     M anipulation  |                                                 |
\*---------------------------------------------------------------------------*/
FoamFile
{
    version     2.0;
    format      ascii;
    class       volScalarField;
    location    "6000";
    object      sigmaxz;
}
// * * * * * * * * * * * * * * * * * * * * * * * * * * * * * * * * * * * * * //

dimensions      [1 -1 -2 0 0 0 0];

internalField   nonuniform List<scalar> 
27023
(
1.57756e-13
1.03978e-13
6.86189e-13
5.26558e-13
0
-5.22654e-13
4.34303e-12
-1.07274e-12
-1.01596e-13
-4.78499e-13
-6.50889e-13
-9.24834e-13
-6.59527e-14
3.51155e-14
7.94405e-13
9.73461e-13
-8.81552e-13
0
3.22445e-12
0
-7.00053e-14
1.98272e-15
-2.52114e-12
-8.92947e-13
2.28668e-12
3.68137e-12
1.70977e-12
8.04514e-12
-1.33559e-12
-4.95093e-12
9.51032e-12
3.96564e-13
4.89053e-12
-4.71833e-13
9.67881e-13
-1.04566e-11
1.67185e-12
3.34358e-12
1.87676e-13
-2.71726e-13
-2.0122e-13
-8.90491e-14
-1.05786e-11
-1.09436e-13
1.09416e-13
4.97545e-12
-3.59041e-12
-4.6777e-12
4.67769e-12
-3.16065e-12
3.53277e-12
-1.37931e-12
8.23202e-12
4.47585e-15
9.94181e-14
1.7198e-12
2.78588e-12
1.30204e-11
-2.33663e-12
-1.06773e-12
-7.16666e-13
-1.89836e-11
7.66891e-12
4.35853e-12
-1.13088e-11
-2.2401e-12
1.16676e-12
-5.04935e-12
1.10405e-12
-1.10669e-11
0
-3.37866e-12
-3.23809e-13
-1.88218e-12
-2.02048e-12
-1.21041e-12
1.21231e-14
-6.45819e-14
7.50728e-12
-3.43234e-12
1.20143e-12
4.05076e-12
-3.18582e-12
-5.96909e-13
1.50159e-12
-4.79508e-12
-2.57652e-12
2.82294e-12
5.32527e-12
-4.61902e-12
2.72177e-12
1.36665e-13
-2.73403e-13
-3.84885e-13
-8.38325e-14
-3.69429e-12
-3.89046e-12
3.5196e-12
-5.64474e-12
3.06142e-12
-2.09255e-12
-8.80743e-12
-3.37141e-12
-3.66813e-14
2.07586e-12
1.33151e-11
-1.27803e-12
9.1597e-13
-4.92858e-12
2.74478e-11
-1.24395e-11
-9.46474e-14
9.99334e-13
-4.71116e-12
7.19903e-13
2.11789e-12
5.11841e-12
-3.44392e-13
-1.52083e-12
2.3943e-12
-1.34375e-11
7.96913e-12
-7.52321e-13
2.04226e-12
-3.72021e-12
1.7302e-12
-5.45073e-14
3.19002e-13
3.28404e-13
2.31003e-12
-1.06293e-12
2.43054e-14
-1.19486e-14
1.40516e-13
-9.64332e-12
-7.48447e-12
-1.93767e-13
2.34064e-12
2.43138e-12
2.73226e-13
-6.94107e-13
-5.36163e-12
-2.38048e-12
-2.28278e-12
-1.54744e-12
1.78996e-12
-9.00312e-12
-3.1993e-12
1.15397e-12
2.11743e-13
-2.98095e-13
1.13832e-12
-6.54654e-13
2.85834e-12
2.79555e-12
2.0263e-11
-8.63219e-12
5.8314e-12
6.04194e-12
-2.64968e-12
4.30373e-12
-9.60367e-12
9.19703e-12
9.853e-12
-5.34421e-13
-5.62608e-13
-3.88186e-13
2.07948e-12
-3.31253e-13
-1.60909e-12
1.40176e-12
6.7921e-12
2.31542e-13
-2.23608e-12
0
1.22206e-11
1.28012e-11
-3.17611e-12
-2.34483e-12
3.73047e-13
9.91859e-13
-3.84744e-12
-2.4773e-12
-2.87559e-12
-6.6089e-12
1.87275e-12
1.76626e-12
-1.20423e-12
-6.38968e-12
4.44486e-12
-3.02065e-12
2.03076e-13
-8.1802e-13
-2.27342e-12
1.73539e-12
2.89373e-12
-1.14142e-11
1.07726e-12
6.53438e-13
6.07769e-13
5.04785e-12
1.1534e-12
3.68073e-12
7.12062e-12
0
-7.2972e-13
2.73327e-12
-1.65077e-12
3.24552e-12
3.98775e-12
0
1.28336e-15
-6.92564e-13
2.69773e-12
-3.13816e-13
1.84365e-13
-1.65771e-12
1.7331e-12
3.30233e-12
2.56955e-12
3.5339e-12
1.11897e-11
9.88806e-13
9.64495e-14
-2.98514e-12
-2.08278e-12
4.62244e-12
-6.94735e-13
-2.67509e-12
2.55484e-14
1.74979e-13
-8.40449e-12
-1.40932e-12
-2.36125e-12
-3.15233e-12
3.92812e-12
-1.67431e-12
6.18231e-12
2.84662e-13
4.84185e-12
-4.84244e-12
3.13378e-12
-3.4699e-13
-1.13916e-11
-1.0564e-12
1.2306e-12
1.06389e-11
9.85423e-13
-7.56762e-13
7.31772e-13
-2.97218e-12
4.51943e-12
-7.52125e-12
-1.18543e-12
3.02169e-12
-7.6442e-12
0
-6.43519e-12
-6.34651e-12
2.40004e-12
7.89667e-13
-2.05029e-12
-9.5375e-12
2.95953e-12
-5.70709e-12
-5.46038e-12
-2.67674e-13
-1.0403e-12
-4.65475e-12
-1.91135e-13
1.26952e-13
2.18405e-11
8.21364e-12
1.09769e-12
-5.69852e-12
-2.12166e-12
-5.16274e-14
-3.27716e-14
-6.89041e-12
1.13516e-12
-2.15445e-11
2.21794e-12
2.92708e-11
-4.41245e-12
-1.98119e-14
-2.10601e-14
-5.85999e-12
1.39562e-11
-2.91492e-12
-2.59442e-14
-8.45969e-12
3.7703e-12
-5.93676e-13
2.67421e-12
0
-1.49053e-12
-5.01832e-12
2.84311e-12
2.98794e-12
0
-1.21652e-13
-1.25568e-12
9.2742e-13
0
-1.90983e-13
3.51259e-14
-1.35794e-14
-4.79728e-12
-9.60154e-12
-3.84176e-12
2.59753e-11
4.8637e-14
-4.85839e-14
1.65667e-13
3.99737e-13
4.69754e-12
-1.82908e-12
5.32259e-13
-5.22427e-12
2.05699e-12
-5.33484e-14
-8.35366e-14
1.01031e-12
1.06745e-12
-7.01222e-13
-9.07252e-13
5.66973e-12
-1.52286e-12
-3.84553e-12
5.57127e-13
-1.26095e-13
-2.58991e-12
-7.03301e-12
-3.21478e-13
-9.54113e-12
-5.40719e-13
-9.01575e-13
7.27154e-13
-2.03522e-12
-1.19183e-13
-1.54817e-12
2.4571e-11
-1.33918e-11
0
2.12158e-15
-2.0772e-12
-5.72488e-13
1.21884e-12
-3.01193e-12
2.89092e-12
3.70111e-12
-5.73335e-13
4.20402e-13
-2.58612e-12
2.7585e-14
-2.04315e-14
-7.54191e-13
4.75542e-12
-5.32737e-12
8.4559e-13
1.50324e-12
1.60412e-12
-4.74296e-12
6.77613e-14
1.92989e-12
-9.04083e-12
4.08233e-12
1.14726e-12
-5.34151e-13
5.344e-13
-3.49278e-12
-2.20999e-12
-1.81327e-12
0
-1.69068e-13
9.17838e-12
-5.85955e-12
-2.22543e-12
6.8983e-12
3.87207e-12
4.20322e-12
2.91676e-12
3.21382e-12
1.45792e-12
-3.71838e-13
-1.60588e-12
-1.26102e-12
5.76252e-12
-1.4232e-12
1.39725e-13
-1.71331e-12
2.47449e-11
6.6043e-13
-6.55822e-12
-6.80135e-13
1.17529e-12
6.16763e-13
-1.4852e-11
-9.34238e-12
0
7.63951e-13
-8.88772e-13
-7.04853e-13
-1.80729e-12
-2.30699e-11
3.69619e-13
-8.71369e-13
1.6656e-12
9.90616e-12
2.01415e-12
3.60069e-12
-2.84277e-12
8.23989e-15
-1.0596e-14
5.64672e-12
3.26546e-13
-4.80517e-13
-6.29192e-12
5.31063e-12
-7.37238e-12
0
-7.71659e-12
3.386e-13
-3.78951e-12
1.06019e-11
-6.81457e-12
0
-3.49887e-13
8.9934e-12
2.65282e-13
1.03629e-11
0
2.21032e-12
-4.31733e-12
-1.58148e-12
3.12193e-12
-1.45887e-12
9.34607e-14
1.48649e-13
-3.14965e-13
-8.59211e-12
-2.26007e-11
-3.72289e-13
-5.22698e-12
2.09545e-15
-3.85306e-17
-6.37967e-13
5.41236e-12
7.66048e-13
-4.61479e-15
3.6803e-13
1.8819e-13
-1.87736e-13
-6.89616e-13
1.25968e-12
-2.7664e-12
-5.479e-12
1.22043e-12
1.70804e-12
2.14265e-12
3.20084e-12
-1.42601e-12
-4.51744e-12
-4.30197e-12
-5.30771e-12
-8.81586e-12
-4.18218e-12
2.07899e-12
6.36116e-15
1.10835e-11
2.57859e-11
0
1.22838e-12
-1.28208e-12
1.3339e-12
0
-1.55268e-12
7.03454e-12
1.19827e-11
-4.53375e-13
6.84639e-13
-4.74641e-12
2.20908e-12
-2.48291e-12
4.38855e-12
2.92239e-12
-8.19689e-13
-9.00428e-12
-2.99626e-11
-5.59722e-12
2.53882e-12
3.96923e-12
4.35635e-13
-4.45189e-12
-3.81703e-13
-5.89365e-13
-2.04761e-12
-1.66424e-13
-1.47345e-12
9.50861e-12
2.06657e-12
5.94551e-15
-9.13298e-15
-6.80937e-12
6.30432e-13
2.56962e-12
1.88136e-12
1.28108e-13
1.4923e-12
2.11433e-12
-1.75118e-12
-2.70246e-12
-1.34518e-12
3.05053e-13
1.39586e-12
2.99642e-12
-2.6702e-12
-4.94063e-12
5.037e-12
-5.67099e-13
-6.05552e-12
3.02764e-12
3.11759e-12
-9.80869e-13
2.2911e-12
-9.85905e-12
-4.82544e-12
5.95925e-12
-2.80567e-12
2.54605e-13
9.22349e-12
-1.5905e-12
5.01441e-14
3.02768e-13
4.24229e-13
-4.24528e-13
-4.99564e-12
-4.61909e-12
-7.94249e-13
4.82189e-12
2.02083e-12
1.03677e-11
3.24549e-12
-2.47225e-13
1.12308e-11
3.82257e-13
5.36895e-13
2.39995e-13
-9.27406e-13
-1.0411e-11
-1.3307e-11
5.6042e-12
-8.2122e-13
-1.46435e-12
-1.42789e-12
6.95197e-12
1.15609e-11
3.88101e-12
-2.60848e-13
-1.10005e-11
1.54155e-12
6.42608e-12
2.25378e-12
-5.07218e-12
8.04428e-12
1.02627e-12
0
0
5.70171e-12
5.92785e-12
3.18142e-12
1.10094e-12
1.41018e-13
0
1.6743e-12
1.17888e-12
-3.37489e-13
-6.22519e-13
1.99427e-12
1.14475e-12
-1.20063e-12
-5.82284e-12
9.70845e-13
0
-5.87626e-12
1.97813e-12
8.27453e-14
-6.22789e-12
9.54672e-13
-2.58597e-13
0
-6.30041e-12
1.21637e-12
-2.75627e-12
-6.13643e-12
3.20625e-12
-3.05437e-12
-1.32755e-11
-2.68164e-12
1.68295e-12
-3.93435e-12
4.4001e-12
-2.33944e-12
3.36126e-12
1.133e-12
1.63889e-14
-5.63978e-12
4.51879e-12
-9.79756e-13
4.14409e-12
-4.14423e-12
-6.32224e-12
3.56989e-13
-8.05928e-12
-5.30547e-13
-1.80413e-11
-2.92719e-11
-2.24677e-12
-2.74724e-12
-4.06214e-11
-1.03884e-14
-7.1002e-15
8.92013e-16
7.32659e-16
-5.56442e-12
-6.57883e-14
8.49953e-14
0
-9.76869e-13
-3.13595e-14
3.12387e-14
3.15967e-13
-2.31645e-13
7.81453e-13
-1.2193e-12
3.03102e-12
-1.07125e-12
1.43531e-12
2.00963e-12
-4.90376e-12
-2.31705e-12
-2.42389e-12
-3.18981e-12
3.2362e-12
2.09963e-12
4.96142e-12
-1.70616e-12
-9.50815e-13
2.55013e-12
0
3.7972e-12
-1.32864e-12
3.23555e-12
0
3.99484e-13
1.49989e-12
-3.60493e-12
-2.8094e-12
-1.94655e-15
2.78992e-15
-5.1306e-12
-2.80363e-12
-8.88918e-12
-6.58339e-12
7.57387e-13
9.08168e-12
-2.08169e-12
-6.04323e-13
0
-4.91927e-12
1.75226e-13
-4.66717e-12
-9.28596e-12
-7.05371e-14
6.19121e-12
-1.07646e-11
-1.62079e-12
-1.18902e-11
2.57338e-12
0
5.35399e-12
3.07746e-14
9.76612e-15
-3.65713e-13
3.20629e-12
2.19063e-12
2.52518e-12
-2.23526e-12
-6.15619e-12
2.59122e-11
-4.24286e-12
-7.96304e-13
9.68635e-12
3.42704e-12
-6.63148e-12
-4.47372e-12
-8.20468e-14
-4.80693e-14
-1.59923e-12
-1.79354e-12
1.49538e-14
-1.15969e-11
1.71415e-12
8.56872e-13
3.25952e-12
2.17373e-12
-1.14575e-15
7.17513e-15
-2.13313e-12
-1.79417e-15
-5.73145e-12
5.67763e-13
2.12613e-12
-1.01087e-12
-1.0913e-11
3.71089e-13
9.91498e-14
0
4.67371e-12
-1.64465e-13
-2.10265e-13
2.20374e-12
-2.51178e-13
-1.04873e-11
-7.92227e-13
-6.32322e-12
-2.05415e-12
-4.15865e-12
0
2.92697e-12
-9.80684e-12
8.02564e-13
-2.72888e-12
1.01417e-12
6.19323e-12
-6.98993e-13
-1.39675e-12
6.99483e-13
-6.87185e-13
-4.1579e-13
1.81794e-12
4.53944e-13
2.06047e-12
1.51162e-12
-3.90778e-12
1.65431e-12
3.75083e-12
1.21551e-12
5.32805e-13
-7.82039e-13
-3.87813e-12
-6.94058e-13
-4.63422e-12
5.07831e-13
7.33093e-12
0
7.51913e-12
6.13289e-13
1.3786e-11
2.69581e-12
3.62905e-12
-1.05438e-12
-4.44839e-13
7.78337e-12
-1.71349e-12
-8.35794e-13
-4.20545e-12
-2.87123e-12
-9.59877e-13
2.47174e-12
-6.27372e-14
-4.79584e-12
1.17409e-12
8.38054e-14
-6.91951e-12
3.42768e-12
1.01794e-12
-5.66225e-12
-4.50498e-12
0
1.6998e-13
-7.91345e-13
-9.17603e-12
0
2.76595e-12
5.68496e-13
-3.90878e-12
-9.16079e-12
2.45987e-12
5.11437e-12
-2.17833e-13
0
0
7.98338e-12
-1.25164e-12
3.96883e-12
1.15877e-11
-9.94616e-12
9.94266e-15
0
9.24215e-12
8.91131e-12
2.72575e-13
-7.19357e-13
-1.24684e-12
-6.02518e-13
2.82756e-13
1.85742e-12
6.19262e-12
3.61101e-13
4.7513e-13
6.09389e-14
-1.48767e-13
-3.36355e-13
2.09142e-11
4.84177e-12
-1.07743e-11
-1.76616e-11
-2.16096e-13
-1.23354e-12
-1.53652e-11
-4.3873e-14
-1.29368e-12
0
-1.08171e-11
2.84384e-12
-2.36273e-12
-6.67176e-14
-7.50228e-13
-5.81465e-12
-1.01648e-12
-5.36858e-12
3.01459e-12
-7.78419e-13
3.41714e-12
1.22401e-11
-1.89741e-13
-9.52183e-14
2.86745e-13
-2.45394e-12
1.74416e-12
1.41194e-12
8.19971e-12
0
-6.84724e-12
3.29178e-12
-1.30026e-12
1.19279e-11
-2.40445e-12
-4.65836e-12
5.25387e-13
7.47601e-13
4.44603e-12
-2.61723e-12
1.14027e-14
4.48804e-14
-2.93004e-12
3.41214e-12
-1.32823e-12
-2.42915e-12
1.01551e-12
-1.46494e-12
0
9.25707e-12
8.21972e-12
9.03983e-12
5.78011e-12
-4.78783e-13
3.4542e-14
-2.46295e-14
5.83314e-13
1.29957e-12
9.11724e-12
-9.43062e-13
1.73734e-12
-1.48016e-13
-5.45484e-12
8.65234e-13
7.70585e-12
-2.28638e-13
9.21224e-14
-3.01534e-12
-3.32807e-12
4.74752e-13
2.62401e-11
4.01247e-11
7.39957e-13
2.81064e-12
-1.59095e-13
-1.25746e-12
0
1.62531e-12
1.03227e-11
-6.24267e-13
3.03314e-12
1.95639e-13
-4.3696e-13
-1.23205e-12
8.35579e-13
8.55919e-13
4.98885e-12
3.03001e-12
6.35386e-12
-2.36291e-12
1.92439e-13
-5.85993e-14
4.09053e-12
-3.34075e-13
-4.81515e-13
-4.38372e-12
1.85133e-13
-4.66216e-12
-4.99774e-12
1.82169e-12
-5.76898e-13
1.66242e-12
-1.62808e-12
-2.32706e-11
5.78652e-13
-2.00305e-12
0
-6.16357e-12
3.87188e-13
-3.28968e-12
7.67363e-12
-2.14171e-12
1.53037e-12
2.45541e-12
1.3459e-13
-4.96363e-12
1.10274e-11
-7.4537e-12
-8.94442e-12
0
-1.96866e-13
-1.21103e-12
-2.86555e-13
3.1747e-13
-2.18939e-12
7.57483e-12
5.61184e-13
-1.44335e-12
0
3.4878e-13
7.43139e-14
2.10538e-12
9.88277e-12
1.23377e-13
0
3.55508e-12
1.63336e-13
2.12855e-12
1.7052e-12
-1.83579e-12
3.6344e-12
1.99102e-12
-1.57525e-12
3.47438e-12
1.86134e-12
-2.47965e-13
-6.47916e-15
7.64057e-13
4.00044e-12
1.37177e-11
1.53182e-12
3.2378e-12
-3.99928e-12
-1.84238e-12
4.72792e-12
1.25183e-11
9.68528e-14
-1.37488e-13
0
4.40231e-13
-6.58941e-13
5.68855e-13
3.91593e-12
-3.51839e-12
6.19459e-14
9.41313e-12
1.52513e-12
2.44817e-12
-1.46764e-12
1.54137e-12
3.92815e-12
-1.76739e-14
4.19568e-12
-5.7062e-13
-4.09526e-13
2.02803e-12
-2.30564e-12
6.1755e-12
-9.11419e-13
-1.71554e-13
7.30483e-12
-8.40483e-13
-8.01771e-13
0
3.0477e-12
-1.79948e-12
2.99572e-12
-2.94253e-12
9.35753e-13
1.43222e-13
1.25501e-11
-8.49416e-13
6.83909e-14
-8.85173e-15
-1.55396e-12
-1.15323e-14
-3.71176e-12
2.33427e-12
-1.11989e-12
-8.02023e-12
-1.08105e-12
2.05548e-12
5.49231e-13
-6.22523e-12
2.31361e-12
0
-3.13693e-13
-1.82932e-13
1.53246e-13
-1.04788e-11
-1.24806e-12
-3.48556e-12
-9.86962e-13
2.21035e-12
-2.65841e-13
-2.05988e-12
-1.70025e-12
1.32059e-12
3.11442e-14
-1.28776e-14
1.9751e-13
-2.07779e-12
-5.66301e-13
1.40864e-12
-2.39981e-12
-5.64463e-13
4.11047e-12
1.90451e-12
-3.44151e-13
-5.00502e-13
5.66158e-12
-9.65707e-12
-5.32846e-14
-2.95033e-12
3.55323e-12
1.09661e-12
1.02131e-13
-2.82097e-12
-5.05094e-12
-1.15028e-13
-2.30634e-12
-4.58859e-12
1.56031e-12
1.3643e-12
-7.15114e-12
1.12022e-12
1.68715e-13
-7.68988e-14
-6.74628e-12
6.44486e-12
6.55283e-13
8.85078e-13
-1.15728e-11
1.03759e-12
4.76491e-12
-1.39254e-12
2.30924e-12
2.47721e-13
-3.34366e-12
-3.30563e-12
2.61714e-12
-7.39396e-13
-6.14388e-12
-1.37452e-12
-2.55553e-12
6.30694e-12
-8.90774e-12
1.17049e-12
2.70437e-12
-5.81539e-13
4.77972e-12
9.45677e-13
-4.14794e-12
-9.09622e-12
2.60182e-13
2.08761e-12
5.86109e-12
9.12139e-12
2.20987e-12
4.10422e-12
-8.74621e-13
-1.04806e-11
-1.5761e-12
3.77806e-13
1.59981e-12
4.54537e-14
-6.06179e-12
-6.06632e-12
1.0132e-12
-1.79737e-12
2.1888e-13
-4.19706e-13
8.54767e-14
2.68013e-13
1.11284e-13
-2.26151e-11
-2.40237e-11
3.33208e-12
-2.45018e-13
1.84098e-12
-1.16059e-13
-2.51939e-13
5.18388e-13
2.20955e-12
-4.18676e-12
4.3864e-12
-1.96826e-11
5.85424e-13
-2.47423e-15
1.16599e-15
4.04366e-13
4.07119e-12
6.29005e-12
2.39598e-11
2.88901e-12
-3.08131e-12
1.50883e-12
1.72561e-11
9.87347e-12
-3.98737e-12
-5.95599e-12
1.98413e-12
2.27699e-13
-1.81161e-12
-7.21267e-12
-1.78843e-12
1.10886e-12
8.84322e-13
0
2.75248e-12
-2.10587e-12
-8.16803e-13
2.10127e-12
5.44668e-12
-7.04176e-13
8.62846e-13
9.93708e-13
-2.76842e-13
8.93708e-14
8.41667e-13
-1.12972e-12
-3.38037e-13
-3.38312e-13
-1.37981e-11
-1.21311e-12
7.30352e-12
-2.59659e-12
2.15328e-12
1.06444e-11
-1.43754e-12
-2.0115e-13
-1.82858e-11
-1.60744e-12
1.49975e-12
8.88699e-12
1.47525e-12
-3.08463e-13
5.65462e-13
5.47523e-12
-3.53835e-11
-1.31232e-12
1.25068e-12
3.27905e-12
1.05116e-11
8.09407e-12
-1.97494e-12
2.80059e-12
-1.75356e-13
9.91713e-14
-9.89816e-14
-9.24852e-12
-2.33421e-13
-6.67434e-13
2.87901e-13
-9.07777e-13
3.64196e-11
-1.81208e-12
2.69201e-12
-9.26481e-13
1.65544e-12
-2.54379e-12
6.15066e-14
-2.30822e-13
3.37164e-12
-2.63672e-12
5.67916e-12
-4.7305e-12
1.90798e-13
4.32905e-12
7.83043e-13
-8.7962e-12
1.57377e-12
-5.84299e-12
1.17393e-13
-1.09909e-12
1.95089e-12
8.42375e-13
-2.82029e-12
7.37062e-13
-5.32342e-12
3.90756e-13
4.39604e-13
-2.10981e-13
-4.11657e-12
-2.13298e-13
2.23087e-13
9.525e-13
5.91635e-13
-6.99856e-13
3.51683e-12
-1.12619e-12
-1.57634e-13
1.4064e-12
-1.56484e-13
-3.63642e-12
-1.79923e-11
4.69535e-11
-3.26756e-11
-2.03901e-12
-3.95703e-12
-3.96152e-12
1.35943e-12
-2.2805e-12
1.70853e-11
-7.74694e-13
-3.39929e-12
-1.03316e-12
-2.21593e-12
1.12146e-11
-5.17161e-13
-3.79149e-12
5.44884e-12
-1.26957e-12
-8.86967e-13
9.89192e-13
8.64893e-12
2.5031e-12
-6.28702e-12
9.27254e-12
1.77311e-13
-6.2441e-12
1.95428e-12
2.03527e-12
5.41416e-12
-3.39696e-12
7.75895e-13
0
-1.6499e-12
2.7061e-13
2.09743e-12
4.1663e-13
-5.59582e-12
1.02189e-11
-1.53275e-12
-2.27713e-12
3.22436e-13
2.75037e-12
-1.3635e-11
6.62405e-15
0
-2.08976e-11
0
2.95175e-12
1.45443e-14
-8.03829e-14
-3.31267e-12
2.10858e-13
3.44102e-12
6.34368e-12
-4.19215e-13
0
0
8.23327e-13
-5.3867e-13
1.75084e-12
2.03294e-12
-1.68778e-11
-3.11012e-12
4.36362e-12
-2.20465e-11
-7.30466e-12
-9.82663e-12
8.62761e-13
6.9749e-13
-2.17762e-12
1.27837e-12
0
9.38454e-13
-2.39495e-12
2.95957e-12
0
-7.40869e-15
9.72571e-15
-4.28955e-12
1.27144e-12
7.46458e-13
3.01486e-13
-3.64601e-12
2.83681e-12
2.00827e-12
3.59835e-12
-2.30979e-12
4.20212e-13
1.93257e-12
-1.27559e-11
4.48522e-14
-3.93418e-14
0
2.28107e-14
4.05514e-13
-4.98744e-12
0
-1.93307e-12
-3.11429e-12
-8.17332e-13
1.34172e-12
-7.70416e-13
6.86349e-13
-1.03717e-11
-1.67571e-12
1.59765e-12
1.549e-12
1.91363e-13
1.74028e-12
1.27013e-12
0
-2.59313e-12
8.44134e-12
2.08661e-12
-9.01052e-13
-2.8786e-12
9.73107e-13
-1.55629e-12
4.29769e-12
7.59067e-12
5.02032e-13
-1.31241e-12
-1.3535e-12
-3.19224e-12
2.6481e-12
2.10598e-12
-2.72236e-12
-2.69574e-12
0
1.41552e-12
5.64502e-12
4.22439e-12
5.86479e-12
-1.81289e-12
-7.65632e-14
-3.68708e-12
5.80577e-13
3.09438e-12
6.39015e-12
9.53371e-13
-4.82303e-12
-1.50867e-15
-1.16564e-15
-3.2944e-13
-1.36013e-12
-1.00319e-11
3.25907e-12
1.0503e-12
-1.57777e-14
5.17108e-12
-4.52188e-14
3.34904e-13
-4.94917e-12
-1.07413e-11
-2.46324e-13
1.67865e-13
5.14455e-12
-1.42828e-11
-4.14332e-12
1.27558e-12
5.89528e-13
-5.23705e-13
5.20804e-12
-1.49858e-13
1.30616e-14
2.26402e-14
4.87299e-12
1.08189e-12
8.34621e-12
-2.10214e-12
-1.57505e-12
5.06613e-13
-1.78698e-13
-1.1469e-13
9.57534e-12
5.27626e-12
-4.90082e-12
8.39884e-13
-1.12192e-12
6.52433e-13
9.35739e-12
2.87475e-12
3.83953e-13
1.5016e-12
3.28045e-13
-7.56602e-13
-1.48642e-12
-3.66715e-12
2.43351e-12
-1.53527e-12
-1.04906e-12
-6.83551e-12
1.66956e-12
1.21844e-12
1.54976e-11
8.28105e-13
2.4422e-13
3.13889e-12
-4.63205e-13
1.65544e-12
0
-2.85018e-12
1.51582e-12
-1.51471e-12
-6.19812e-13
2.38016e-12
1.91792e-12
-4.44952e-13
-2.08991e-13
3.84996e-12
-2.229e-13
2.11903e-13
-1.4927e-12
-9.17676e-12
1.72044e-12
-2.70684e-12
-4.66236e-12
5.90353e-13
-3.5771e-13
-8.50161e-12
5.01756e-12
0
-3.43066e-13
-3.91878e-12
-1.91387e-13
1.22068e-12
-1.96353e-12
-1.25033e-12
-5.32963e-12
7.019e-12
-2.70673e-14
0
2.92854e-13
-1.04645e-13
8.48125e-13
-4.78387e-12
-1.01641e-11
4.28289e-12
6.64869e-13
-3.44131e-13
1.63493e-13
-4.87001e-12
1.79009e-12
-4.1381e-13
1.70703e-12
2.25585e-12
-1.00133e-13
3.35062e-12
6.34983e-14
3.09636e-13
3.02361e-12
3.59121e-16
-1.38012e-15
4.42273e-12
-2.43576e-12
2.70289e-12
0
-9.90757e-14
-1.2067e-11
-9.80407e-13
-2.08796e-13
7.06047e-13
1.11538e-12
1.78554e-12
3.45814e-12
-2.98347e-13
-2.9873e-13
0
-2.01866e-13
-3.81615e-13
1.29357e-12
3.5839e-12
6.41982e-12
1.19974e-13
-3.0119e-13
-1.55809e-11
1.05981e-11
-3.08381e-12
1.62187e-12
3.94234e-12
3.94218e-12
1.11001e-11
5.13234e-12
5.93637e-12
-2.2279e-12
-2.91464e-13
-1.0749e-11
3.77345e-12
-7.76243e-12
-4.79072e-12
-1.24727e-12
2.68588e-12
-4.28749e-13
1.02509e-12
0
-2.91603e-12
-2.43134e-12
1.43293e-12
4.33161e-13
-1.78051e-12
2.34171e-12
-6.44854e-12
4.30099e-12
-5.60897e-12
2.51879e-12
-2.93597e-12
5.70718e-13
-2.39775e-13
-1.00205e-13
-1.02759e-13
2.4068e-12
2.22012e-12
2.94615e-12
-1.32811e-12
-9.50641e-13
-3.46112e-12
-8.662e-13
-3.67033e-12
1.68826e-12
1.74914e-12
2.42946e-14
1.4752e-12
1.54261e-13
2.917e-12
-3.84619e-12
-4.37851e-13
8.62431e-13
-2.8577e-12
-1.49906e-12
8.86759e-12
-9.2002e-12
0
-1.88537e-12
-1.88531e-12
-3.66808e-12
-7.95405e-12
7.13665e-12
-6.26269e-13
2.10608e-12
4.41646e-12
-8.38992e-12
-6.02055e-13
5.36971e-13
-5.13227e-12
-1.44164e-11
7.9461e-12
3.95038e-13
-1.69411e-14
2.21194e-12
2.4675e-13
-9.65273e-13
0
9.45455e-12
-2.79431e-12
-5.2856e-12
-2.84372e-13
5.72695e-13
1.94282e-12
1.54282e-12
6.5108e-13
-1.27249e-12
2.80044e-12
-5.70917e-12
-3.21076e-14
-2.04447e-12
-6.62572e-13
1.88292e-12
1.98623e-11
4.41097e-12
2.678e-12
-5.57559e-12
5.57536e-12
2.47748e-13
-2.84514e-13
-2.98076e-12
-2.5904e-12
-1.38602e-12
5.90557e-12
-9.37764e-13
-1.87574e-13
2.13607e-12
-2.17252e-13
-3.95945e-13
-2.31436e-11
1.47536e-11
5.15356e-12
2.27243e-11
1.26655e-11
-1.11975e-11
7.96828e-12
9.77944e-13
-9.1116e-12
-1.76048e-13
1.75646e-13
3.57703e-13
0
-3.25528e-12
-2.12189e-12
2.00937e-12
-1.62746e-11
-1.09513e-12
4.00843e-12
5.39565e-13
-7.83207e-13
-7.82834e-13
3.92624e-12
-1.26238e-12
-1.04318e-13
1.12024e-13
-2.34976e-12
-1.92809e-12
1.07225e-12
8.23717e-13
-8.86572e-13
-2.21287e-13
1.27467e-11
1.22689e-12
-3.737e-12
-2.24862e-12
9.91576e-14
3.22508e-13
1.00537e-12
-5.4312e-13
-3.29878e-12
0
-4.56766e-12
-1.99167e-11
1.18739e-12
1.08446e-12
5.46933e-12
8.41411e-13
3.343e-13
-8.24741e-12
-3.02789e-13
2.60149e-12
-8.53977e-13
-1.37e-12
-1.1321e-13
3.93053e-12
-1.11835e-13
3.54553e-12
6.30073e-13
1.16813e-12
1.35994e-12
8.44008e-13
-2.62533e-12
1.23481e-12
0
2.66191e-12
-1.71088e-12
-4.85452e-13
3.78203e-12
-1.32451e-12
-7.7089e-12
-1.52872e-12
2.43091e-12
-4.27846e-14
6.01246e-14
-1.574e-13
3.44059e-12
3.6061e-12
-1.09017e-12
-1.38018e-12
5.57374e-12
-1.80599e-12
-1.7898e-13
-1.03747e-12
-1.29014e-11
-3.16968e-12
-1.58237e-12
-7.84995e-12
1.13314e-12
-3.91978e-13
2.02421e-12
-7.274e-13
2.24174e-13
-1.14942e-13
2.45424e-12
-4.88168e-13
-1.32217e-11
-8.82481e-13
-7.07553e-13
5.51425e-12
-1.04151e-11
1.04279e-11
-2.53912e-13
3.2081e-13
-1.80996e-12
-6.24497e-13
2.73021e-12
-2.25189e-12
-1.1114e-11
1.46727e-12
3.21685e-13
3.07894e-12
1.18147e-11
-1.17613e-12
4.37579e-13
-1.59871e-13
1.18027e-12
-5.7714e-12
2.46072e-15
-6.70818e-13
-2.54876e-12
3.47439e-12
8.71321e-12
-6.40797e-15
2.88951e-13
2.41518e-12
3.94458e-12
2.07667e-12
-2.32506e-12
1.44484e-12
0
4.11468e-11
2.11731e-12
2.80866e-12
-2.80917e-12
-2.6738e-12
0
-1.13971e-11
-2.20275e-12
-9.70541e-12
-2.68907e-12
-4.00017e-12
-9.21474e-12
-4.77033e-12
-1.98271e-12
2.97185e-12
-1.27948e-12
-1.61964e-12
5.46897e-13
-2.65004e-13
3.66319e-12
5.08494e-12
2.93423e-12
6.73564e-12
-8.97623e-12
-3.35812e-13
-4.99252e-13
6.66531e-13
0
-6.25777e-13
-9.58402e-12
-4.34899e-13
7.61085e-12
0
6.247e-12
-4.50475e-12
-4.54386e-12
-2.11457e-12
3.68976e-13
5.95432e-12
5.52749e-12
5.22693e-13
-1.93725e-12
6.83456e-14
-2.02734e-11
1.10788e-11
0
-4.4643e-12
-2.17786e-12
-1.07564e-12
1.21522e-11
-3.2068e-12
1.01666e-12
-6.55166e-12
-1.46107e-15
1.93744e-15
2.85499e-12
1.56599e-11
2.97676e-12
-4.21311e-12
-6.02051e-12
-4.50978e-13
-1.58731e-12
-1.10572e-12
-1.97383e-12
2.28816e-12
5.18399e-13
-3.22766e-13
2.64706e-12
0
-2.18368e-12
1.05795e-12
-1.59434e-12
-2.48921e-12
4.90882e-13
-4.77508e-12
1.44315e-11
2.06525e-12
8.01622e-12
3.51153e-12
1.11701e-12
-5.21205e-13
4.20933e-12
1.55341e-12
-4.59551e-13
3.36426e-13
0
7.01683e-13
6.18452e-12
2.68006e-11
-2.34104e-12
-3.64463e-12
-5.72717e-13
1.58718e-12
-6.2282e-12
0
0
5.89376e-13
3.25262e-12
2.00676e-12
4.29907e-12
3.9736e-12
-6.92557e-12
1.48977e-12
3.10441e-12
-8.7992e-13
1.02405e-12
-3.26523e-12
4.31579e-12
-4.31621e-12
-7.96607e-13
-8.30927e-12
1.69335e-12
1.54921e-11
-3.21563e-14
-7.19659e-13
5.03684e-13
-7.15991e-12
-2.26663e-11
-1.40775e-13
1.23154e-12
3.0903e-12
-7.23527e-12
3.39568e-12
-3.03503e-12
-1.57311e-11
-1.22805e-12
0
2.38643e-12
-1.04285e-11
-1.92521e-12
8.53251e-12
-7.58273e-12
-5.23401e-13
6.47799e-13
6.30797e-12
7.32877e-12
-4.39373e-13
0
7.15814e-12
-2.85763e-12
3.49494e-12
-1.3676e-13
1.59897e-12
-1.66289e-12
2.16183e-12
3.56171e-12
-5.78478e-13
0
6.97343e-13
-2.28396e-12
4.57766e-12
-6.99055e-13
-2.00406e-13
-1.39626e-14
-1.36589e-13
3.15282e-13
-4.06112e-13
4.01031e-12
-1.07561e-12
-7.88412e-12
1.50576e-13
-1.64516e-11
-5.05766e-12
2.14351e-12
2.32086e-13
2.2316e-15
-1.68362e-12
-4.84604e-12
-6.36875e-12
-1.13226e-13
1.47386e-13
1.07992e-12
-1.9346e-12
4.39603e-13
1.38747e-12
2.52722e-13
-4.62098e-13
-1.06352e-12
-4.72052e-12
-1.04409e-13
-8.87593e-14
-3.66648e-12
8.79969e-12
-2.05479e-12
1.09865e-11
-8.62235e-13
-2.91612e-12
-4.50949e-12
0
3.27821e-12
-2.26683e-12
-3.34439e-11
9.37726e-13
-2.54297e-12
1.49488e-12
-1.48035e-12
4.57025e-12
7.42598e-12
-5.91721e-12
8.21002e-13
-1.87693e-12
-9.43386e-12
1.706e-11
1.28966e-12
-3.53931e-12
1.13939e-11
-3.42578e-13
-1.32554e-12
5.33739e-12
1.73932e-14
-7.92651e-14
-6.34316e-12
5.81298e-14
-1.73461e-13
3.37697e-12
0
0
-1.91706e-12
-3.22751e-12
8.81143e-13
0
8.57613e-12
-1.61742e-12
-1.09405e-12
2.31524e-12
1.99638e-11
-7.61848e-12
1.25343e-13
-1.12692e-12
9.14783e-13
-1.99527e-11
4.97248e-12
2.20952e-12
-2.74816e-13
1.80101e-12
-5.67705e-13
1.79805e-13
3.39471e-12
7.49227e-12
1.64538e-11
0
-1.36802e-12
-4.88271e-12
-1.26899e-12
-3.74066e-12
1.46121e-12
8.72578e-13
-2.77177e-12
-1.58845e-13
-2.01745e-12
1.72758e-13
3.1836e-12
-1.60777e-12
-5.60484e-12
3.6069e-13
9.11978e-12
-5.1756e-12
1.42613e-13
2.7695e-12
2.16595e-13
5.43719e-12
4.95884e-12
-9.35275e-13
0
1.14513e-15
2.83894e-12
-1.51074e-12
8.73998e-12
9.38299e-13
3.01174e-12
2.22912e-12
5.24247e-14
-5.02664e-13
-5.85308e-13
-2.04811e-12
6.99879e-12
1.38261e-12
2.6602e-12
-3.36792e-12
-7.33728e-13
1.0731e-13
4.17303e-12
-3.1586e-12
-6.0142e-14
2.79259e-15
-4.0118e-15
-4.97488e-12
-7.78905e-12
8.72915e-13
-1.1433e-12
1.33593e-12
3.42058e-13
1.21068e-13
0
3.0783e-12
-2.50485e-12
-2.56051e-12
5.33973e-13
-9.13996e-12
1.57116e-12
-1.71134e-12
-3.17407e-13
8.17047e-13
-2.54854e-12
7.7914e-13
-5.13444e-13
-3.87626e-13
-2.07678e-13
-1.02592e-12
2.16834e-12
1.1133e-13
2.92059e-12
-1.12578e-12
-1.20289e-12
-3.31475e-12
-7.90296e-13
4.09443e-13
-1.66343e-13
2.27097e-13
-4.53915e-13
0
2.78757e-12
1.48625e-13
-3.62818e-13
-4.92377e-12
3.22576e-12
0
0
-9.76583e-13
-4.34944e-12
2.01257e-11
2.99856e-12
-8.24876e-13
8.24872e-13
2.19505e-12
-1.30096e-12
-4.74952e-13
3.9388e-12
5.42321e-12
5.277e-12
3.46944e-12
-1.03829e-12
4.52918e-12
6.00936e-13
1.19962e-15
2.10838e-15
-3.98973e-12
-1.40358e-13
-2.83249e-12
-2.86358e-12
-2.33086e-12
7.05648e-12
-2.62917e-12
5.60805e-12
7.02605e-13
-3.46087e-12
-5.18864e-13
-2.82814e-13
-1.40017e-11
8.09534e-13
4.56529e-11
-1.11332e-11
-7.33216e-13
1.72184e-12
6.36789e-12
1.48502e-12
-7.32539e-12
-9.05751e-13
2.28846e-13
-3.59188e-12
-6.88741e-13
-1.31905e-12
-8.64656e-12
7.93174e-13
3.74559e-12
-4.80206e-12
1.80275e-12
-8.2608e-12
-1.5363e-13
2.46432e-12
3.79415e-12
2.2093e-12
3.0592e-11
3.03132e-12
3.5571e-12
3.98247e-14
-4.78394e-14
1.97363e-13
3.28644e-14
-2.84483e-13
2.95488e-12
8.4898e-13
2.58668e-12
4.16084e-11
3.48241e-13
-1.95338e-12
4.2275e-12
9.65267e-12
8.05418e-13
-1.96261e-12
-6.36525e-12
9.36505e-13
2.904e-12
-1.09471e-12
1.37298e-11
-2.05126e-12
8.74718e-12
2.76139e-12
-4.03674e-12
8.6807e-13
6.05647e-12
-1.25475e-12
-8.92034e-12
-2.08308e-14
3.677e-14
-1.52567e-12
1.63169e-12
-7.93079e-13
-3.40889e-12
2.56232e-12
3.77332e-13
-2.82107e-12
-1.94212e-11
0
1.74755e-12
1.33524e-12
1.19004e-13
1.00486e-11
0
-1.77373e-12
3.47014e-14
-1.58508e-12
-2.192e-12
3.76806e-12
3.53637e-12
7.67563e-12
-2.04671e-12
-6.15684e-12
-4.07338e-12
1.11772e-12
2.3541e-12
-2.06981e-12
1.68507e-13
1.05458e-13
7.17533e-13
-6.08475e-12
1.20662e-13
1.47206e-12
-1.4168e-12
4.25831e-13
-1.19173e-12
2.18929e-12
4.68006e-12
1.18025e-11
-4.19548e-12
1.22121e-12
-1.7667e-12
-2.86018e-12
-8.9866e-12
-2.73889e-12
-2.11082e-13
4.41801e-12
-5.64005e-12
0
6.49523e-12
-1.82354e-13
-2.01041e-12
-6.38929e-12
-8.12873e-14
7.23795e-12
2.49449e-12
1.79165e-11
1.43497e-11
3.84381e-12
-7.90276e-12
-3.71381e-13
7.70447e-13
1.17113e-14
5.12059e-12
3.31683e-12
6.64185e-13
-1.2818e-12
1.36308e-13
4.15028e-12
-1.11512e-12
4.56553e-14
-5.33019e-14
-2.10975e-12
5.02703e-12
-1.69331e-13
8.99641e-14
-3.20055e-12
8.36004e-13
1.63512e-12
1.35295e-12
-3.65926e-12
-2.27857e-13
2.6911e-12
-1.69391e-12
1.73547e-12
5.07433e-12
9.99279e-13
-1.64821e-12
2.27075e-12
-3.12963e-12
-6.60534e-12
-7.30423e-12
4.65447e-12
-2.72317e-13
2.76985e-12
-3.33896e-12
0
7.63784e-13
-3.7727e-12
1.80489e-12
-1.62822e-11
-4.19271e-12
0
3.03178e-12
-3.42741e-12
3.95896e-12
-4.33847e-12
1.41455e-12
3.51509e-11
3.64577e-11
7.05946e-12
7.25327e-13
2.34524e-14
-1.69815e-14
-7.17761e-12
-8.62157e-13
1.56943e-12
-1.52361e-12
-9.30234e-13
7.54885e-13
1.748e-12
2.49391e-12
8.8303e-13
0
2.92126e-15
6.05151e-12
3.58399e-12
3.99887e-13
7.02989e-12
1.92231e-12
2.91246e-13
-1.81744e-13
-1.13514e-11
-2.17692e-11
4.84768e-12
-2.99465e-12
2.32845e-12
-3.53324e-12
-7.6193e-13
-1.51291e-12
-9.57965e-13
-8.00993e-14
-1.26294e-12
-1.64929e-12
2.32847e-12
8.92297e-13
1.65464e-12
1.24072e-11
2.53785e-12
-2.64105e-13
1.62383e-13
1.96754e-12
-5.04518e-13
1.35991e-12
-1.29768e-14
-1.12797e-14
5.458e-12
-4.34267e-12
-1.13926e-12
-3.07432e-12
1.10345e-13
-2.27226e-13
2.87066e-12
-5.65983e-14
1.73755e-13
-4.78104e-12
-2.67055e-12
8.90929e-13
6.84885e-12
0
2.04034e-12
-7.08784e-12
3.21964e-13
2.31827e-12
7.61694e-12
2.22847e-13
2.31085e-13
-4.48909e-12
2.58653e-11
-5.78167e-12
-5.30594e-12
4.91586e-12
2.61019e-12
1.83403e-12
-1.60327e-12
-3.48599e-12
1.68684e-12
5.046e-15
8.52853e-15
-5.54986e-13
-2.01042e-13
1.19173e-12
6.97112e-12
-1.83786e-13
5.30604e-13
-4.3068e-12
-2.17667e-12
4.39062e-12
4.54219e-12
-2.92929e-12
4.37096e-12
-3.39811e-12
2.0776e-12
-2.19154e-12
-2.63962e-12
-8.72795e-12
-6.90914e-12
-4.28799e-12
3.45433e-12
-1.07921e-11
-1.91781e-12
2.62677e-12
6.07059e-13
-2.06973e-11
3.58839e-12
-2.102e-13
5.12193e-13
-3.09545e-13
2.55316e-12
-6.66159e-13
-5.67436e-12
-3.96612e-12
-2.07108e-12
6.23301e-12
1.22412e-11
5.74713e-12
-4.64796e-12
2.88729e-12
-2.17123e-12
0
1.13459e-11
2.04893e-11
0
-5.59204e-12
1.54321e-12
2.26084e-12
2.07273e-12
3.82612e-13
1.21854e-11
-1.40933e-12
1.95498e-12
5.37526e-15
2.01861e-13
-8.22091e-13
-2.18586e-14
4.61918e-13
-2.63955e-13
1.36e-14
-1.95689e-12
4.43456e-13
-6.03972e-12
2.19646e-12
-2.85933e-13
4.81723e-12
1.51569e-12
2.06539e-12
-5.63832e-12
-2.45361e-12
-1.31287e-12
1.12523e-11
-1.48666e-12
-2.53473e-13
4.14689e-12
-1.19336e-13
9.52958e-14
-9.54306e-12
2.54824e-11
0
-3.07705e-12
6.02129e-14
-6.01782e-14
-1.83837e-14
1.81358e-14
-1.04147e-13
1.02789e-11
-1.45245e-11
0
0
-4.09568e-13
-1.87571e-12