/*--------------------------------*- C++ -*----------------------------------*\
| =========                 |                                                 |
| \\      /  F ield         | OpenFOAM: The Open Source CFD Toolbox           |
|  \\    /   O peration     | Version:  v3.0+                                 |
|   \\  /    A nd           | Web:      www.OpenFOAM.com                      |
|    \\/     M anipulation  |                                                 |
\*---------------------------------------------------------------------------*/
FoamFile
{
    version     2.0;
    format      ascii;
    class       volScalarField;
    location    "6000";
    object      sigmaxy;
}
// * * * * * * * * * * * * * * * * * * * * * * * * * * * * * * * * * * * * * //

dimensions      [1 -1 -2 0 0 0 0];

internalField   nonuniform List<scalar> 
27023
(
-1.55607e+07
-1.5566e+07
-1.15011e+07
-1.14974e+07
-1.48257e+07
-1.48309e+07
-1.4506e+07
-1.4502e+07
-5.79511e+06
-5.79379e+06
-1.42127e+07
-1.42068e+07
-1.35327e+06
-1.36025e+06
-2.50272e+06
1.12228e+07
1.07265e+07
-2.50256e+06
-2.5048e+06
-1.99848e+06
-1.99629e+06
-1.305e+07
-1.30462e+07
-1.34036e+06
-1.33636e+06
-336655
3.79942e+06
-1.38719e+06
3.49167e+06
-3.05276e+06
-706711
-2.44328e+06
-2.44191e+06
-2.11262e+06
-1.62154e+06
-1.82844e+06
-1.07985e+06
-1.07648e+06
-5.78252e+06
-5.78206e+06
-1.15148e+07
-1.15185e+07
-1.95932e+06
-1.50177e+07
-1.5023e+07
-2.4255e+06
-2.4233e+06
-1.60363e+06
-1.60154e+06
-2.64419e+06
-779784
-777570
-2.31773e+06
-85406.4
-85174.2
-2.14193e+06
-1.75245e+06
-1.55964e+06
-2.93305e+06
-1.18922e+07
-1.18886e+07
-1.63918e+06
-2.0136e+06
-864406
-3.15766e+06
-327883
-1.77979e+06
60924.6
3.98139e+06
-2.83796e+06
-1.44382e+06
-1.44032e+06
-4.25325e+06
-4.24924e+06
-1.49448e+06
-1.49428e+06
-349198
-346973
-5.9198e+06
-5.92094e+06
1.45821e+06
-1.34769e+07
-1.34709e+07
-4.69806e+06
-4.69412e+06
-761279
-761212
-1.77865e+06
-2.98079e+06
-2.84556e+06
-2.73415e+06
-1.522e+07
-1.52144e+07
8.33637e+06
-2.13172e+06
-433379
-433816
2.02741e+06
-3.17525e+06
-3.44587e+06
-1.8685e+06
-188610
-98519
-9.06104e+06
-9.05596e+06
-2.06946e+06
-9.25873e+06
-9.25499e+06
-2.25718e+06
-1.84804e+06
-3.56559e+06
-9.69119e+06
-9.68738e+06
-414454
-411160
-878277
-878025
2.88051e+06
481901
-1.24919e+06
-2.05091e+06
-1.46606e+06
-2.93646e+07
-2.93712e+07
-1.39311e+07
-1.39285e+07
-1.4686e+07
-1.46804e+07
-9.78781e+06
-9.78245e+06
-1.73454e+06
-1.52313e+06
-1.51769e+06
-1.1631e+06
-2.52477e+06
60182.5
60211.7
3.63605e+06
-2.85379e+06
-2.85183e+06
-1.60754e+07
-1.6081e+07
3.5192e+06
-1.41729e+07
-1.41685e+07
-593382
-2.10649e+06
179838
-2.51014e+06
-2.31032e+07
-2.30968e+07
-1.96393e+07
-1.96338e+07
-3.0808e+06
-871916
-649632
-638219
-2.00747e+06
-2.9406e+06
-2.93869e+06
-1.79839e+06
-2.87919e+06
-1.40393e+06
-3.23501e+06
-2.07124e+07
-2.07156e+07
-1.44519e+07
-1.44582e+07
2.4898e+06
2.69082e+06
-3.91087e+06
-7.37126e+06
-7.37252e+06
-3.00319e+06
-2.74515e+06
-2.54589e+06
-2.04232e+06
3.28098e+06
-3.19185e+06
4.54075e+06
-2.51318e+06
-1.49915e+07
-1.4997e+07
-2.1085e+06
-2.09916e+06
-1.68588e+06
-416575
-416087
-1.55953e+06
-3.08597e+06
-1.57849e+07
-1.57914e+07
3.21996e+06
-2.70346e+06
-1.4141e+07
-1.41383e+07
-600171
-1.64852e+07
-1.64918e+07
849448
-2.59713e+06
3.59906e+06
-981367
-980560
-1.4126e+07
-1.41311e+07
28296.7
-1.85654e+06
-385001
-384253
-185203
-184237
9.36305e+06
-735728
-5.54694e+06
-5.54377e+06
2.81246e+06
3.4154e+06
-3.62369e+06
-3.11382e+06
-3.11449e+06
-1.50263e+06
-2.85341e+07
-2.85405e+07
-1.47262e+06
-4.29856e+06
-4.29715e+06
-4.822e+06
-4.81728e+06
-2.7861e+06
-2.78717e+06
-2.78637e+06
-3.38681e+06
-3.38554e+06
-1.628e+06
-2.4426e+06
-2.44189e+06
-213971
-2.04933e+06
-1.66372e+07
-1.66406e+07
3.06252e+06
-2.00246e+06
-2.07995e+06
-2.57667e+06
8.20826e+06
-3.83588e+06
5.1395e+06
-835728
-2.06689e+06
-7.33938e+06
-7.34162e+06
-2.92441e+06
7.69571e+06
-356935
-1.12016e+06
-1.50319e+06
-595235
-2.759e+06
-2.75796e+06
3.83738e+06
6.10373e+06
497489
-1.76663e+06
-1.76592e+06
-1.39587e+07
-1.39545e+07
-1.72237e+06
8.31221e+06
-2.57643e+07
-2.57589e+07
-1.14575e+06
-1.80434e+06
-1.60556e+06
-1.84903e+06
-2.56182e+06
-2.00004e+07
-2.00034e+07
-2.0059e+06
-2.00821e+06
-2.61015e+06
-2.13097e+06
-3.14898e+06
-3.01569e+06
-73466.7
-72877.9
-2.32438e+06
-1.99206e+06
1.10657e+07
-4.36716e+06
-1.50501e+06
-2.95287e+06
-5.14331e+06
-5.14522e+06
-1.09479e+06
-1.09489e+06
-2.13881e+06
-2.07554e+06
-969332
-969600
-1.64363e+06
1.04901e+07
-1.23981e+07
-1.24039e+07
-362742
-7.05974e+06
-7.05529e+06
2.40412e+06
-2.6176e+06
-3.77834e+06
-1.91732e+06
21194.5
20231.5
-2.43734e+06
-2.43875e+06
-2.54039e+06
-2.35725e+06
-2.36062e+06
193694
-2.86912e+06
-2.35967e+06
-2.36917e+06
2.29624e+06
5.67711e+06
1.41465e+06
-2.9894e+06
-423815
-2.42191e+06
1.63933e+06
-3.40717e+06
5.6622e+06
-3.32612e+06
-866168
-2.09289e+06
-1.72947e+06
-2.19022e+07
-2.19084e+07
-849591
9.92039e+06
-7.41271e+06
-7.40831e+06
-678012
-658445
-173841
-172935
4.85125e+06
-1.76126e+07
-1.76069e+07
-1.15675e+06
-1.54261e+06
-2.54175e+06
-2.55928e+06
-3.69548e+06
-3.6943e+06
-6367.51
-6301.48
1.21307e+07
-6.41875e+06
-6.42033e+06
-2.16005e+06
-131893
-576700
-577316
-2.16438e+07
-2.16499e+07
-3.29527e+06
-2.75531e+06
1.03235e+07
-1.77015e+07
-1.7707e+07
-5.85879e+06
-5.85995e+06
9.09817e+06
-2.27084e+06
1.6539e+06
-1.80265e+06
-1.87118e+06
1.39932e+06
-604582
-837195
-1.927e+06
-836424
-1.31483e+07
-1.31447e+07
4.80376e+06
2.57624e+06
-2.01178e+06
-2.37081e+06
-750138
3.99657e+06
6.07763e+06
-2.53016e+06
-161179
-3.71379e+06
1.11679e+07
-3.28774e+06
-1.81477e+06
-1.69564e+06
-670184
-1.66819e+06
-5.34196e+06
-5.33725e+06
7.66842e+06
3.18485e+06
-1.53708e+06
-1.73893e+07
-1.73946e+07
1.41022e+06
-2.46286e+06
303840
-248430
489619
-399653
-397845
-3.39571e+06
-1.67566e+06
-4.60867e+06
-2.23639e+06
-1.71072e+06
-1.73813e+06
4.06576e+06
-1.19571e+06
4.49671e+06
3.30305e+06
-1.5217e+06
-904169
-1.31366e+06
-1.31426e+06
-246778
-3.41365e+06
-1.69196e+06
2.85307e+06
-1.31307e+06
-1.31252e+06
-3.37397e+06
-3.3773e+06
-1.50086e+06
4.03714e+06
-7.49401e+06
-7.49334e+06
-91815.5
-93768.3
-2.71298e+06
-2.71027e+06
-210926
-212030
3.74147e+06
-2.6243e+06
-2.40118e+06
1.01091e+07
8.5574e+06
-1.95517e+07
-1.95581e+07
-2.00608e+07
-2.0067e+07
-1.85627e+06
-1.852e+06
-2.35814e+07
-2.35749e+07
4.83942e+06
3.9616e+06
-1.08931e+06
-2.63598e+06
5.11585e+06
-211282
-2.51648e+06
-1.4874e+07
-1.48772e+07
-1.43894e+06
-1.61932e+06
-3.01804e+06
-1.83289e+06
-2.03267e+06
2.51362e+06
-410514
-5.22769e+06
-5.22534e+06
-397556
-717436
-9.77164e+06
-9.76781e+06
-4.10749e+06
-4.10623e+06
-1.19185e+06
5.88221e+06
-114525
4.39563e+06
142683
-3.10715e+06
-1.62855e+07
-1.62908e+07
-2.34284e+06
-4.50865e+06
-742754
-1.69778e+06
-1.70139e+06
-1.89563e+07
-1.89504e+07
6.0967e+06
-431377
-2.68789e+06
-9.92119e+06
-9.92638e+06
-2.31391e+06
1.05259e+07
-603537
-604506
1.88742e+06
-2.4343e+07
-2.43373e+07
-1.45977e+07
-1.45915e+07
-95143
-2.76694e+07
-2.76748e+07
-1.92632e+06
-1.50129e+06
-1.60218e+06
-1.60122e+06
-2.29561e+06
-1.563e+06
-1.56328e+06
-989934
-6.02186e+06
-6.02479e+06
-2.6579e+06
-2.66099e+06
-933927
-3.06888e+07
-3.06819e+07
-1.77713e+06
-2.18026e+06
-1.25682e+06
2.4245e+06
-3.55025e+06
-3.54411e+06
-6.87878e+06
-6.88043e+06
-2.58255e+06
-2.12624e+06
1.42864e+06
-1.45476e+06
1.15858e+06
2.53287e+06
-3.26242e+06
-7.30352e+06
-7.30416e+06
-1.03684e+06
-415063
-415233
-2.88385e+06
-642591
-6.8268e+06
-6.83118e+06
-1.0515e+06
-1.53251e+06
-1.55011e+06
1.27447e+06
4.81069e+06
-2.1708e+06
3.84785e+06
-2.77024e+06
-621064
-621386
-1.9798e+06
1.17152e+07
-3.16366e+06
-3.16185e+06
-2.69368e+06
-2.56878e+06
-2.56858e+06
-1.85441e+06
-2.19655e+07
-2.19592e+07
-1.59383e+07
-1.5945e+07
-2.54861e+07
-2.5493e+07
-1.37385e+06
2.14423e+06
2.10106e+06
-2.53294e+06
-2.40021e+07
-2.40086e+07
-1.81648e+06
8.32306e+06
1.73359e+06
-2.4855e+06
1.13359e+07
-1.78571e+06
1.01034e+07
-192503
-501261
-497428
-3.13976e+06
-321042
-316192
-3.0956e+06
-3.93201e+06
-3.93612e+06
-1.82595e+06
-3.16245e+06
-1.81633e+06
-1.8169e+06
-1.57705e+06
-1.57631e+06
-987957
4.09081e+06
2.8549e+06
-4.38189e+06
-4.37936e+06
-2.69968e+06
-2.69884e+06
-3.34066e+06
-2.98174e+06
-836377
-899078
189161
191628
46478
-11628.6
-125166
-125818
-11703.5
-2.13764e+06
-1.23471e+06
-1.23996e+06
-2.09399e+07
-2.09459e+07
-1.48899e+07
-1.48954e+07
-2.25336e+07
-2.25271e+07
7.37307e+06
-3.01803e+06
-3.01332e+06
-1.91083e+06
-3.98987e+06
-2.71455e+06
-2.71924e+06
-2.24622e+06
-3.63117e+06
-3.62829e+06
-1.78029e+06
-1.9483e+06
-1.07942e+06
-2.46068e+07
-2.46135e+07
-2.33873e+06
-3.14039e+06
3.22887e+06
-3.76956e+06
-5.63847e+06
-5.64145e+06
1.13043e+07
661013
-5.59584e+06
-5.59723e+06
-237164
-238384
-2.71828e+06
-2.71376e+06
-1.96919e+06
-1.60995e+06
-916588
-916422
1.63058e+06
-613043
6.55528e+06
-132409
-1.15211e+06
-2.63135e+06
-2.12971e+06
-1.69317e+06
3.1577e+06
-2.19306e+06
-1.92145e+06
-1.67536e+06
-1.33248e+06
5.4339e+06
-3.08391e+06
-106210
-107023
-3.99939e+06
-3.9954e+06
1.23569e+06
896277
-2.48093e+06
-1.34098e+06
-282527
-1.48732e+06
150801
-1.79885e+06
-213395
183790
4.0632e+06
-1.25498e+07
-1.25442e+07
2.44045e+06
-1.53524e+06
-2.95207e+06
-3.08842e+06
-5.66601e+06
-5.66382e+06
-396381
-396755
-12995.7
-13021.7
-1.69702e+06
9.60794e+06
-1.58276e+06
5.18925e+06
268490
265865
-1.8428e+06
-5.80157e+06
-5.8018e+06
-2.16682e+06
-2.1675e+06
-1.19399e+06
-5.19421e+06
-5.19098e+06
9.13739e+06
-1.6799e+06
-2.16717e+06
-3.3333e+06
-2.43385e+06
-2.21679e+06
-2.34814e+06
-2.34715e+06
-1.943e+06
1.28528e+06
-2.03001e+07
-2.02943e+07
-1.55321e+06
-721715
5.25447e+06
-716192
-2.06294e+06
-2.02152e+06
-2.10321e+06
2.62774e+06
-2.49513e+06
1.08108e+07
-2.46719e+06
2.6235e+06
-310531
-197563
-8.42703e+06
-8.4217e+06
-724351
-724528
-3.04182e+06
-2.02293e+06
-5.36719e+06
-5.36987e+06
-1.9059e+06
-1.55628e+06
-3.10595e+06
-1.34971e+06
-2.82209e+06
-1.75834e+07
-1.75777e+07
-2.42485e+06
-591830
-590485
-1.0853e+06
-1.08568e+06
-1.22581e+06
-2.80484e+06
-2.71489e+06
-322742
-1.46103e+07
-1.46062e+07
-2.42809e+06
5.76474e+06
-3.19667e+06
-1.75845e+06
-1.81328e+06
4.52438e+06
4.62621e+06
5.11055e+06
-2.71103e+06
-1.66446e+06
-1.66416e+06
-1.69883e+07
-1.69826e+07
-2.64102e+06
-2.56353e+06
-797224
8.34389e+06
-2.15153e+06
-2.15104e+06
-1.91611e+06
-2.19072e+06
-1.55954e+06
-1.51542e+06
-1.57178e+06
-3.29331e+06
-3.29297e+06
-1.81056e+06
-1.66407e+06
-1.51649e+07
-1.51603e+07
2.83471e+06
-3.49612e+06
5.30375e+06
-4.31021e+06
-4.3095e+06
-7.38861e+06
-7.3909e+06
2.69319e+06
-1.24813e+07
-1.24867e+07
-1.75898e+06
-2.17681e+06
-3.50134e+06
-3.78228e+06
-2.17932e+06
-2.17852e+06
-3.54051e+06
-2.26722e+06
-2.27143e+06
-195545
-195271
3.21788e+06
3.06918e+06
-2.47228e+07
-2.47161e+07
-1.78157e+07
-1.78214e+07
-545238
-1.29281e+06
-1.70867e+07
-1.70817e+07
-1.41017e+06
2.90693e+06
-1.9922e+07
-1.99158e+07
-1.89581e+06
-1.8943e+06
-5.67953e+06
-6.02402e+06
-6.02663e+06
-66861
-66867.6
-5.68388e+06
-2.81588e+06
-1.79881e+06
-2.09647e+06
-2.44214e+06
-2.44031e+06
-555227
3.74766e+06
-2.75685e+06
-550464
1.29e+06
1.55076e+06
-2.88157e+06
109181
110474
3.84402e+06
3.6492e+06
-1.6951e+06
-39504.1
-44649.3
-3.30086e+06
355809
-132093
-132358
4.53801e+06
3.50444e+06
-3.22859e+06
-1.52138e+07
-1.52092e+07
-4.90332e+06
-1.31007e+06
-5.37806e+06
-1.24356e+06
-2.57749e+07
-2.5768e+07
-1.67692e+06
5.18922e+06
-4.86777e+06
-2.77598e+06
-2.71458e+06
-5.38128e+06
-2.05294e+06
-1.93136e+07
-1.93076e+07
-1.27514e+06
-1.27628e+06
-1.56323e+06
2.20241e+06
-1.802e+06
-1.54541e+07
-1.54477e+07
-3.70258e+06
-3.70453e+06
9.53965e+06
-1.48806e+06
-2.87254e+06
-2.87065e+06
-2.66842e+06
-5.93588e+06
-5.93534e+06
-2.53385e+06
-3.88356e+06
-686012
-2.58327e+06
-2.49562e+06
-1.91648e+06
-1.67894e+06
-1.77305e+06
-1.91278e+06
-2.72064e+06
-2.71999e+06
-3.45872e+06
8.06453e+06
-568500
-1.99661e+06
-3.55059e+06
1.15198e+07
2.20735e+06
-3.15427e+06
-3.41694e+06
1.01434e+07
4.79524e+06
5.18933e+06
1.74401e+06
191717
-3.28682e+06
-2.31546e+06
-7.64618e+06
-7.64695e+06
5.02731e+06
-5.67488e+06
-5.6724e+06
-2.44015e+06
-394774
-3.11143e+06
-3.10509e+06
2.58277e+06
-4.54786e+06
-4.54574e+06
6.1337e+06
-2.57605e+06
-3.89975e+06
-5.76238e+06
5328.59
5.742e+06
362627
1.90939e+06
-3.22519e+06
-1.98745e+06
-1.68205e+07
-1.68149e+07
-2.1173e+06
4.67332e+06
-974693
-975996
-1.60393e+06
-2.4987e+06
-1.07471e+06
-2.30667e+06
-1.87016e+06
-1.86618e+06
-1.54024e+06
1.37706e+06
-2.83288e+06
-274763
-274275
-486603
-1.99318e+06
9.65227e+06
-1.99504e+06
7.19092e+06
-2.26055e+06
5.2956e+06
-2.86304e+06
-1.34291e+06
-1.34237e+06
-2.03858e+06
-1.42611e+06
7.73693e+06
7.71186e+06
-2.87107e+06
-1.53599e+07
-1.53633e+07
4.18596e+06
-1.43827e+06
-1.86732e+06
-7.96671e+06
-7.96759e+06
-3.18097e+06
1.00991e+07
-3.28303e+06
-4.65301e+06
-4.65492e+06
-671889
1.25973e+06
1.24716e+06
-1.54198e+07
-1.54191e+07
-2.72464e+06
-2.44508e+06
-349352
-349009
2.75297e+06
-1.48134e+06
-3.03063e+06
-1.67822e+06
-1.67757e+06
-3.13679e+06
-2.48781e+07
-2.48729e+07
-3.84086e+06
-3.09019e+06
-791196
-1.11149e+07
2.31987e+06
-3.16948e+06
-1.11197e+07
-604972
319731
-1.35961e+06
-1.72518e+06
-1.729e+06
1.3989e+06
1.30428e+06
-1.35279e+06
3.43798e+06
-2.53667e+06
-2.00713e+06
-3.39713e+06
-2.45624e+06
2.43264e+06
-2.8315e+06
-2.9826e+06
9.69051e+06
1.33838e+06
7.14092e+06
-128784
-1.40517e+06
-1.15982e+06
-1.43219e+06
8.27443e+06
-1.78605e+06
-1.90441e+06
-3.05054e+07
-3.05123e+07
1.02212e+07
-3.89936e+06
-1.24973e+06
-1.24541e+06
-3.56974e+06
-3.56785e+06
-690444
-2.53615e+06
-1.15353e+06
-3.83366e+06
-3.8362e+06
-1.99685e+06
-1.99645e+06
-2.98826e+06
9.23172e+06
-3.05143e+06
9.28957e+06
-1.89911e+06
1.20543e+07
3.9827e+06
5.07938e+06
-1.23229e+06
-2.23137e+06
-2.22657e+06
2.77284e+06
2.85048e+06
5.60892e+06
-1.68289e+06
-1.13138e+06
-1.13096e+06
9.89152e+06
1.6029e+06
4.72427e+06
-2.26184e+06
-1.36876e+06
-3.03914e+06
-893630
-1.75785e+06
-1.76244e+06
-2.29615e+06
-3.34685e+06
-1.60275e+06
-3.48457e+06
-3.47969e+06
-2.02111e+06
4.33453e+06
-3.35333e+06
-1.59422e+06
-1.12582e+06
-53452.5
-53930
5.17164e+06
81638.4
-4.80898e+06
-4.80981e+06
-6.2933e+06
-6.29284e+06
8.79838e+06
-3.57851e+06
-3.29402e+06
-29801.6
-2.10951e+07
-2.11012e+07
-7.16391e+06
-7.1612e+06
8.83132e+06
-2.09025e+06
-2.08959e+06
-1.09706e+06
-819848
-428098
-153018
-152166
5.73652e+06
7.15937e+06
756878
-1.94252e+06
-1.31568e+07
-1.31628e+07
4.7013e+06
-2.05847e+06
-2.34887e+06
-2.85276e+06
-2.90887e+06
-804552
2.85123e+06
2.86015e+06
-2.30562e+06
-2.30628e+06
-270272
1.02786e+06
1.02244e+06
-4.58725e+06
-4.58902e+06
75236.8
-2.30439e+06
-1.49468e+06
-2.40654e+06
-9.23878e+06
-9.23688e+06
3.7772e+06
8.13043e+06
-567973
-2.88953e+06
-1.79297e+07
-1.79353e+07
-1.77448e+06
-981782
-432740
-4.19231e+06
-4.19062e+06
-2.21382e+06
1.68867e+06
-2.61988e+06
-3.96096e+06
-2.14295e+07
-2.14241e+07
-2.78306e+06
-3.47091e+06
-3.46785e+06
-2.62569e+06
-854151
-716560
-503337
4.04784e+06
-2.28318e+06
-2.98621e+06
-1.83212e+06
-1.61983e+06
5.5581e+06
3.54294e+06
-124601
-124165
-853438
-6.57597e+06
-6.57503e+06
-1.63534e+07
-1.6347e+07
-2.69904e+06
-1.99882e+07
-1.99821e+07
-2.56014e+07
-2.56062e+07
-29020.5
-29012.6
-2.03662e+06
-1.06932e+06
-1.06895e+06
-1.82092e+06
-1.89445e+06
-1.65367e+06
-1.43462e+06
-2.97032e+06
-3.48124e+06
-1.43735e+06
-1.42726e+06
-8.44102e+06
-8.44731e+06
-1.40639e+06
-1.29318e+06
5.64386e+06
-1.02562e+06
-1.99243e+06
-1.721e+06
-2.08777e+06
1.09318e+07
-1.96179e+06
-3.78015e+06
-3.78052e+06
-1.11553e+06
2.68185e+06
-1.19431e+06
-1.50839e+06
3.94792e+06
6.47297e+06
87097.2
88106
3.43284e+06
-1.59492e+06
1.12805e+06
1.0597e+06
-2.18212e+06
-2.08489e+06
166739
-781721
-786111
-2.3759e+06
4.94233e+06
1090.34
-8.89865e+06
255671
170014
-8.90528e+06
-2.23749e+06
-1.81827e+06
1.60126e+06
-1.94097e+06
3.9832e+06
-2.38444e+06
-2.45805e+06
-2.72016e+06
-3.25401e+06
-2.62401e+06
-1.41252e+06
1882.6
-2.02854e+06
-2.10408e+06
-2.10265e+06
-1.49626e+06
1.01669e+07
3.18848e+06
5.52026e+06
-1.38066e+06
-7.36478e+06
149228
757934
-1.96467e+06
-2.24294e+06
-7.37537e+06
-3.41211e+06
-2.66422e+06
-2.23588e+06
-3.31687e+06
-129104
-268103
-2.21037e+06
-264016
-262177
-1.30876e+06
-1.50188e+07
-1.50238e+07
4.00185e+06
-1.29842e+07
-1.29772e+07
1.06812e+07
-1.67761e+07
-1.67706e+07
-1.63671e+06
-597022
-1.42859e+06
247587
248090
-3.69209e+06
-1.69652e+06
-729817
-1.89162e+06
-1.53623e+07
-1.53556e+07
-5.66797e+06
3.38063e+06
4.66288e+06
-1.74098e+06
-1.74477e+06
-1.7331e+06
-35398
-35283
4.22454e+06
-2.07977e+06
-2.51963e+07
-2.51895e+07
-6.44555e+06
-6.4417e+06
-1.03045e+06
-1.71249e+06
-1.06297e+06
-6.62688e+06
-6.62164e+06
-3.16174e+06
-230740
-230320
-2.06505e+06
-2.06296e+06
-6.36358e+06
-6.36662e+06
-870142
-1.70437e+06
-1.7037e+06
-1.50127e+07
-1.50117e+07
-2.69415e+06
-2.80051e+06
-18421.6
-803955
4.74397e+06
3.70172e+06
-808074
2.33912e+06
1.30993e+06
-2.50959e+06
-2.66932e+06
-2.32831e+06
-2.0116e+06
-2.01097e+06
1.37956e+06
-2.61222e+07
-2.61271e+07
-8.67473e+06
-8.6715e+06
3.8923e+06
-3.2364e+06
-3.24006e+06
-1.10977e+06
-1.10204e+06
-1.79467e+06
-960683
-941426
-3.16122e+06
-406835
-406946
-2.43744e+06
-1.40805e+06
-1.83921e+06
1.05324e+07
2.48641e+06
2.56878e+06
-2.03696e+06
-1.75377e+06
4.98462e+06
-2.90012e+06
13673.8
13642
-8.80016e+06
-8.80248e+06
-2.05898e+06
-1.69345e+06
-2.24792e+07
-2.24733e+07
-2.07887e+06
297271
-3.16368e+06
710675
442408
3.52229e+06
3.54607e+06
-1.40507e+06
-3.35468e+06
-1.94264e+07
-1.94319e+07
-1.71985e+06
-1.72268e+06
-2.7748e+06
-2.77669e+06
-1.31768e+06
-1.31216e+06
-2.67007e+06
-1.57786e+06
-2.00317e+06
-2.7229e+06
298173
9.54414e+06
-2.09598e+06
-2.09724e+06
-2.46226e+06
-1.91023e+06
-2.09954e+06
-1.00574e+07
-1.00623e+07
6.2688e+06
-2.85249e+06
-1.02845e+06
-3.57956e+06
-3.57675e+06
1.71882e+06
1.15368e+07
-2.53352e+06
-2.53561e+06
6.98221e+06
-3.46818e+06
-3.4727e+06
-1.67672e+06
-791587
2.60154e+06
-1.23123e+06
-1.40321e+06
-1.37737e+06
-571611
-320637
-1.80864e+07
-1.8081e+07
-2.56751e+06
-1.89611e+07
-1.89556e+07
3.78265e+06
-4.63042e+06
-4.62729e+06
-1.75645e+07
-1.75702e+07
-2.17595e+06
-6.20057e+06
-6.2085e+06
-2.43757e+06
-2.4391e+06
-949858
3.32469e+06
-1.43452e+06
-2.17394e+07
-2.17334e+07
-1.53893e+06
-1.83417e+06
1.06134e+06
1.06642e+06
-3.21578e+06
-2.84601e+07
-2.84533e+07
4.10891e+06
-2.52426e+06
-1.50623e+06
-1.50598e+06
-266116
-264397
-5.14773e+06
-6.65922e+06
-6.65538e+06
-1.21534e+06
-806229
-800558
-3.96176e+06
-3.96199e+06
8.03123e+06
-137166
-2.75006e+07
-2.7494e+07
-1.11823e+07
-1.11849e+07
2.91243e+06
7.31094e+06
-6.8595e+06
-6.8599e+06
-1.61245e+06
-106101
-105471
-1.09969e+06
-1.09974e+06
5.83287e+06
-9.86286e+06
-9.86071e+06
-1.5025e+06
-5.70047e+06
-5.70369e+06
1.4316e+06
1.01477e+07
-2.93479e+06
-2.93586e+06
-2.05666e+07
-2.05728e+07
-1.06457e+06
9.82498e+06
-1.1194e+06
7.10788e+06
-2.00911e+06
2.0705e+06
5.70851e+06
4.1565e+06
-3.04555e+06
-3.09114e+06
-3.05236e+06
-3.05403e+06
-1.47132e+06
-1.47079e+06
-1.77341e+06
-2.56507e+06
-3.49876e+06
1.16304e+07
-569452
-2.50163e+06
-1.57228e+06
-1.22649e+06
-2.32107e+06
-2.56873e+06
-2.56553e+06
-2.05427e+07
-2.05486e+07
3.84565e+06
-3.10387e+06
-135415
7.92088e+06
9.36538e+06
-1.64023e+06
1.99076e+06
-1.20351e+06
-1.66578e+06
-1.6596e+06
6.12289e+06
-987465
-988783
75421.4
-2.73786e+07
-2.7385e+07
-1.41994e+07
-1.42052e+07
8.42217e+06
-4.26036e+06
-4.2644e+06
-9.19613e+06
-9.19452e+06
-6.48448e+06
-6.47929e+06
-2.49922e+07
-2.49854e+07
-1.29298e+06
749767
-1.54557e+06
-2.25629e+06
-1.73868e+07
-1.7392e+07
-4.52455e+06
-4.52876e+06
-1.2759e+06
-1.23337e+06
1.4364e+06
-978908
-978626
-2.59406e+06
-2.29335e+06
-2.12004e+06
3.86025e+06
-2.42691e+06
-2.63283e+06
-1.6189e+06
750158
744774
-2.84289e+06
-2.96974e+06
-2.90797e+06
-1.6969e+06
-1.69927e+06
-629960
-1.90314e+06
4.49558e+06
-1.99637e+06
-1.74137e+06
-1.40636e+06
-2.1309e+06
-1.20545e+07
-1.20506e+07
-3.6721e+06
-3.67037e+06
-1.86962e+07
-1.86906e+07
-1.9873e+06
-3.31008e+06
-926439
6.41061e+06
3.06419e+06
-1.29151e+06
-1.49736e+06
-3.31385e+06
278337
-70612.8
-71264.6
-2.72688e+06
-2.72827e+06
-1.55591e+06
5.69518e+06
-2.68055e+06
-2.68542e+06
-2.69757e+07
-2.69684e+07
-793870
-793514
212433
-1.03409e+06
-998498
1.31917e+06
1.3729e+06
1.15678e+06
-1.78185e+06
-1.7826e+06
-2.57989e+06
-2.01627e+06
-1.30327e+07
-1.3029e+07
-816072
-902868
-1.9802e+06
-3.37841e+06
-2.71171e+06
-1.77861e+06
3.32593e+06
3.35919e+06
-2.25392e+07
-2.25336e+07
-2.12647e+06
-3.46651e+06
-3.46512e+06
-1.56752e+07
-1.56697e+07
-235589
2.02857e+06
2.07612e+06
-1.2798e+07
-1.28037e+07
2.55549e+06
-1.63002e+06
722241
-726225
-729901
-6.79015e+06
-6.79047e+06
1.19283e+07
512961
-2.50684e+06
-2.51047e+06
-1.37727e+06
-2.25062e+06
-1.02059e+07
-1.02087e+07
-2.75167e+06
-1.19803e+06
-1.33016e+06
-3.0837e+06
-6.59138e+06
-4.86123e+06
-4.86493e+06
4.94481e+06
-5.29744e+06
-5.294e+06
1.03736e+07
200853
-6.59632e+06
-2.23086e+06
-2.23397e+06
-1.48599e+06
-113576
2.77857e+06
-3.5658e+06
-3.56474e+06
4.3089e+06
-2.73701e+06
-2.18018e+06
-2.17799e+06
-560993
-1.87858e+06
-1.84387e+06
-5.15026e+06
-2.27956e+06
-2.25165e+06
-2.18575e+06
-2.18292e+06
9.72221e+06
-733553
-1.82337e+06
-1.48671e+06
-2.20127e+06
1.91176e+06
-482441
-3.30597e+06
5.23154e+06
-1.5323e+06
-1.01335e+06
-2.43257e+07
-2.43207e+07
-6.32927e+06
-1.94887e+06
-1.9502e+06
-1.15883e+07
-1.15812e+07
-528127
-1.48947e+07
-1.49015e+07
-1.57959e+06
69372.2
-3.24042e+06
-450682
-449975
5.16447e+06
-3.43718e+06
-3.43941e+06
681692
-2.23519e+06
1.26125e+06
1.1046e+07
-1.7722e+06
-3.01872e+06
-5.71343e+06
-5.72254e+06
-2.20554e+07
-2.20492e+07
-2.36715e+06
-3.51665e+06
-3.74443e+06
-7.32385e+06
-7.32955e+06
-3.39805e+06
-4.54068e+06
-4.53987e+06
-1.36597e+06
-1.92158e+06
-1.92194e+06
-2.80736e+06
2.00408e+06
-2.67487e+06
-2.41234e+06
-2.42437e+06
-1.33628e+06
-1.33103e+06
-99662.5
-3.02073e+06
-2.20162e+06
-2.07263e+06
-2.38325e+06
-2.54478e+06
-2.36303e+06
-2.70633e+06
-1.5287e+06
9.64674e+06
-1.37622e+06
-1.36754e+06
4.67598e+06
-1.18215e+07
-1.18175e+07
-1.32646e+06
-1.31259e+06
-1.39399e+06
25723
-1.49958e+06
742062
3.49839e+06
3.73868e+06
-531883
-2.02922e+06
-2.11155e+06
3.5928e+06
-2.4596e+06
-3.50672e+06
-2.56024e+06
-2.64445e+06
-2.6448e+06
-18070.3
-15115.9
-111441
-78453.8
7.23273e+06
-1.99881e+06
-2.0028e+06
-3.05344e+06
-2.26118e+06
-1.22639e+06
-5.46366e+06
-5.46734e+06
971268
-2.50984e+06
-1.89379e+06
-2.88548e+06
-956269
5940.33
5876.01
-1.33918e+06
-4.03578e+06
-1.87399e+06
1.4485e+06
-2.20148e+06
-8.99625e+06
-8.9934e+06
-4.12059e+06
-4.12596e+06
5.22217e+06
-1.31023e+06
-1.44884e+06
-1.44836e+06
-2.37212e+06
-2.37695e+06
-1.95808e+06
7.94181e+06
-2.8972e+06
-2.04203e+06
-3.30758e+06
-2.925e+06
-1.64415e+06
-1.45441e+06
-1.56972e+06
-2.53386e+07
-2.53454e+07
-2.3287e+06
-1.69682e+07
-1.69626e+07
-707560
-698129
201907
-818866
-858544
2.3162e+06
9.30313e+06
-2.91915e+06
8.39275e+06
244775
-5.02286e+06
-5.0218e+06
3.03668e+06
240913
-2.82517e+06
-2.82781e+06
-681001
-3.46345e+06
-1.55768e+06
-2.41292e+06
-1.95789e+07
-1.95734e+07
-1.37622e+06
-1.69845e+07
-1.69904e+07
527829
-2.64307e+06
1.74986e+06
-1.69421e+06
-1.95197e+06
-1.9487e+06
-927500
-1.21427e+06
-2.66634e+06
-1.42149e+06
-1.42267e+06
-2.92232e+06
-2.91882e+06
3.16034e+06
3.234e+06
-2.25506e+06
8.9552e+06
-2.26147e+06
-2.76956e+06
-2.56921e+06
-2.49813e+06
-1.90046e+06
-3.20783e+06
-3.83986e+06
-3.84429e+06
-3.09202e+06
10699.3
-4.07349e+06
-4.0772e+06
-2.12025e+06
986278
-1.75214e+06
4.69814e+06
1.0153e+06
-1.31795e+06
-1.31889e+06
-1.9302e+06
-433807
-5.49357e+06
-5.50046e+06
3.98396e+06
-1.76795e+06
-2.37929e+06
-47153.8
-46542.5
2.10436e+06
-1.42173e+07
-1.42103e+07
-3.31908e+06
6.13877e+06
-1.87704e+06
-1.20813e+06
-1.26179e+06
1.14603e+06
10418
-319990
-320860
-3.57719e+06
-2.66971e+06
-1.59846e+06
-273351
-272523
1.70877e+06
-2.6489e+06
-2.65179e+06
-1.69571e+07
-1.6952e+07
-2.47377e+07
-2.47444e+07
-2.80012e+06
-1.76592e+06
-1.76213e+06
-2.87745e+06
-3.65916e+06
7.51045e+06
-2.15709e+06
3.54038e+06
5.33319e+06
-1.08095e+06
-1.05501e+06
-3.79369e+06
-3.79596e+06
-2.96519e+06
4.5034e+06
259795
-572485
-1.91616e+06
382132
-1.20258e+06
-2.55479e+06
-2.59385e+07
-2.59324e+07
-1.44733e+06
-3.06483e+06
-2.72823e+06
-2.72968e+06
-2.39266e+06
-477549
1.37399e+06
-2.86373e+06
19981
19691.2
-2.98923e+06
-4.99296e+06
-4.99279e+06
4.99503e+06
-1.19134e+07
-1.19193e+07
-960990
368301
-2.54779e+06
368010
327790
342673
-1.32812e+06
7.95437e+06
-1.29321e+06
-2.88625e+06
-1.24995e+07
-1.25056e+07
-872034
-640962
685483
-1.16486e+06
-1.67008e+07
-1.67046e+07
-1.8448e+07
-1.84421e+07
-426862
-1.47168e+06
-3.11217e+06
-1.40067e+06
-1.40512e+06
-724554
-724413
-1.99517e+06
-3.76055e+06
-3.51062e+06
-190423
-432324
-907161
-3.46347e+06
-3.46688e+06
-504733
-1.83983e+06
2.43191e+06
-1.0338e+06
-968373
2.73851e+06
-2.99173e+06
-2.98912e+06
-1.6385e+06
-2.09435e+06
-2.09484e+06
-429160
-427148
-1.657e+06
3.97698e+06
-847719
-2.85188e+06
-1.91865e+06
-1.9236e+06
-2.04248e+06
-6.35923e+06
-877220
4.60418e+06
-2.82313e+06
-2.85769e+06
-2.85856e+06
-1.35951e+06
-3.00128e+07
-3.002e+07
-1.51428e+07
-1.51466e+07
-848536
-90334.4
-89777.4
-1.46795e+06
-1.88048e+06
-1.8808e+06
-2.23169e+06
-2.23426e+06
-6.33355e+06
-6.33349e+06
-2.58398e+06
4.20805e+06
-2.84884e+06
-2.84727e+06
-2.67324e+06
-3.45465e+06
-3.48107e+06
-3.47799e+06
-2.17038e+06
-1.14751e+06
-7.40131e+06
-7.39666e+06
-3.69037e+06
-7.46504e+06
-7.46345e+06
-1.23021e+06
6.62176e+06
-2.11422e+06
-2.44129e+07
-2.44072e+07
-304376
-2.44647e+06
-2.44376e+06
-1.01417e+07
-1.01453e+07
-4.14323e+06
-4.14326e+06
5.17993e+06
-2.07853e+06
-4.8053e+06
-4.80605e+06
-3.06039e+06
-3.0629e+06
754601
-4.40169e+06
6.10964e+06
-2.0491e+06
-609670
1.36913e+06
-2.49809e+07
-2.4976e+07
-4.80589e+06
-4.80301e+06
-1.5115e+07
-1.51179e+07
-2.98116e+06
-1.45997e+06
-1.30641e+06
-4.24213e+06
-4.23984e+06
3.01845e+06
-580542
-583300
-3.10828e+06
-1.76981e+06
-1.80973e+06
-1.8047e+06
879365
-1.85415e+06
-2.12746e+06
-1.19597e+06
-1.19609e+06
-2.26234e+06
2.17905e+06
2.19878e+06
-2.6403e+06
-1.775e+06
-2.24257e+06
-1.76556e+06
-1.49792e+07
-1.49823e+07
-1.86016e+06
3.57467e+06
-16683.3
-2.17009e+07
-2.17072e+07
-2.07698e+06
-4.32683e+06
-4.32393e+06
-3.8707e+06
5.59079e+06
-2.21354e+06
-1.63415e+06
6.03166e+06
-2.89125e+06
-2.3414e+06
-2.34301e+06
-2.19771e+06
-2.19638e+06
-954963
-5.75558e+06
-5.75754e+06
-3.78479e+06
-2.73744e+06
-3.79052e+06
-7.0988e+06
-7.10642e+06
-989416
6.21229e+06
-2.92974e+06
-631288
-5.02772e+06
8.27348e+06
-1.32267e+06
-1.32082e+06
8.37328e+06
1.33499e+06
-2.18037e+06
-1.00825e+06
-1.14536e+06
-1.57745e+06
-1.22203e+06
9.92281e+06
-2.0041e+06
-2.91371e+06
-5.792e+06
-5.79378e+06
-2.56635e+06
-2.56707e+06
-1.97002e+06
-1.85581e+06
-1.85806e+06
-2.09596e+06
8.9737e+06
-5.03686e+06
1.02627e+06
4.861e+06
-1.64328e+06
2.36867e+06
-1.33345e+06
-3.51083e+06
-3.5117e+06
8.78949e+06
1.11081e+07
186605
-2.00598e+07
-2.00536e+07
-1.59936e+06
-64470.6
-1.51645e+06
-2.49974e+06
-2.46569e+06
-417553
4.33653e+06
-1.97698e+06
6.61512e+06
1.15232e+07
-1.51353e+06
-1.51382e+06
-2.02428e+06
-2.03543e+06
-2.06117e+06
-1.07836e+06
-7.00712e+06
-7.00427e+06
-281494
9.65769e+06
8.32016e+06
-3.09981e+06
-3.10219e+06
-1.65169e+06
-2.29605e+06
-111515
-1.02292e+06
4.57411e+06
-1.40696e+06
6.38809e+06
-2.07951e+06
-1.82455e+06
-1.54867e+06
-1.92645e+06
-2.17304e+06
146048
-2.28862e+06
148676
148588
-1.75554e+06
-1.75563e+06
-572707
-355987
-4.28689e+06
-1.75437e+06
-2.96456e+06
-1.49464e+07
-1.4951e+07
-970032
-2.05402e+06
-1.8212e+06
486388
3.02004e+06
3.05359e+06
-3.42768e+06
-1.7976e+06
-1.78776e+06
-700207
-703939
-4.80878e+06
-4.80958e+06
-1.38185e+06
-3.54385e+06
7.14122e+06
1.01161e+07
-1.58751e+06
5.13632e+06
-152450
38738
-1.06172e+06
-2.46512e+06
-3.41355e+06
6.61115e+06
-367472
261204
-1.9237e+06
-1.92867e+06
-2.79331e+06
8.00472e+06
1.61554e+06
-2.7497e+06
-2.74825e+06
-4.27962e+06
-4.27684e+06
-296111
-2.39483e+06
-2.50128e+06
-1.20442e+06
-1.22669e+06
-564308
-2.83552e+06
-2.44822e+06
-2.86871e+06
-2.67839e+06
-2.51727e+06
-1.7442e+06
1.07612e+07
-1.19708e+06
-1.18592e+06
-2.12806e+06
235742
-1.30812e+06
-2.37366e+06
643137
665021
-109248
-1.67995e+06
-1.67794e+06
-794029
-789842
-3.50032e+06
-4.29394e+06
-4.29084e+06
-3.40202e+06
-2.27067e+06
1.17652e+07
5.57222e+06
-165596
-120990
-3.07645e+06
-3.07942e+06
-3.20478e+06
4.01117e+06
134963
-1.69806e+07
-1.69743e+07
-5.34537e+06
-5.34045e+06
4.80618e+06
13695.4
1502.88
-299285
-1.37452e+06
-3.47879e+06
-3.48014e+06
-427257
-2.32126e+06
-2.96225e+06
2.36825e+06
-2327.57
-2299.22
-2.25558e+06
-2.25794e+06
-1.88722e+06
-1.89113e+06
-4.1843e+06
-4.18439e+06
-1.89266e+06
-1.80359e+06
-1.80623e+06
-1.14321e+06
-302716
-3.26256e+06
-2.18455e+06
-2.18235e+06
-844462
-2.45307e+06
2.61387e+06
1.02844e+07
-2.16876e+06
-2.30876e+07
-2.3094e+07
-1.86899e+06
-3.54795e+06
-1.65937e+06
-1.97845e+07
-1.97906e+07
-2.11354e+06
-1.38161e+06
-1.38147e+06
-599084
-596411
80.4429
72.4778
406198
3.97375e+06
3.46859e+06
869861
3.68737e+06
-2.36849e+06
418084
-660547
-3.88107e+06
-3.87993e+06
1.14733e+07
-1.53488e+06
-1.53384e+06
-1.4975e+06
-1.84341e+06
-1.84185e+06
-476534
-1.31376e+06
-5.85997e+06
-5.86366e+06
-480114
-2.66803e+06
-473720
7.30594e+06
-1.42032e+06
-3.34542e+06
-3.34832e+06
-3.76402e+06
-3.76276e+06
9.64848e+06
-2.29759e+06
-1.39934e+06
-3.25672e+06
-1.78317e+06
-2.94279e+06
-2.99677e+06
5.71544e+06
-1.30027e+06
-1.30067e+06
-5.20663e+06
-5.2105e+06
-2.67142e+06
-138928
-131479
54312.9
-1.93785e+06
-1.79101e+06
-2.12305e+06
-1.23915e+06
-1.02102e+06
-104056
-3.33229e+06
-2.01057e+06
9.92025e+06
3.63518e+06
-1.27218e+06
-2.40733e+06
-2.40534e+06
684864
-1.67885e+07
-1.67922e+07
-1.90949e+06
-1.90518e+06
3.73498e+06
-2.41299e+06
-165090
-4.61226e+06
-1.83682e+06
-2.60614e+06
-2.60501e+06
-2.09008e+06
-1.75633e+06
7.2717e+06
-1.78392e+06
-312507
-310593
-979282
-2.33878e+06
-2.97192e+06
-2.96658e+06
-1.52457e+07
-1.52508e+07
-7.30508e+06
-7.31228e+06
-5.74479e+06
-2.62675e+06
-2.572e+06
-5.75746e+06
-2.49188e+06
848909
834615
-2.59969e+06
-1.13012e+07
-1.13061e+07
1.81521e+06
-2.14515e+06
-2.15549e+06
-2.55162e+06
7.15459e+06
-299348
3.32031e+06
1.01239e+07
2.46346e+06
3.93525e+06
-2.32376e+06
-2.32449e+06