/*--------------------------------*- C++ -*----------------------------------*\
| =========                 |                                                 |
| \\      /  F ield         | OpenFOAM: The Open Source CFD Toolbox           |
|  \\    /   O peration     | Version:  v3.0+                                 |
|   \\  /    A nd           | Web:      www.OpenFOAM.com                      |
|    \\/     M anipulation  |                                                 |
\*---------------------------------------------------------------------------*/
FoamFile
{
    version     2.0;
    format      ascii;
    class       volScalarField;
    location    "6000";
    object      sigmazz;
}
// * * * * * * * * * * * * * * * * * * * * * * * * * * * * * * * * * * * * * //

dimensions      [1 -1 -2 0 0 0 0];

internalField   nonuniform List<scalar> 
27023
(
-8.43408e+06
8.43667e+06
6.00095e+06
-5.99948e+06
-8.25529e+06
8.25779e+06
2.68001e+07
-2.67958e+07
3.2279e+06
-3.22754e+06
2.05095e+07
-2.0505e+07
759051
-763555
-7.5618e+06
632973
521322
-1.61286e+07
1.61321e+07
1.21085e+07
-1.21043e+07
2.64577e+07
-2.64534e+07
1.46687e+07
-1.46651e+07
2.23165e+06
-1.02827e+07
952153
-1.02793e+07
8.74441e+06
4.47386e+06
1.21159e+07
-1.21125e+07
-1.17983e+07
-7.50475e+06
9.18277e+06
1.1457e+07
-1.14531e+07
3.04287e+06
-3.04296e+06
-6.17154e+06
6.17317e+06
-5.99879e+06
-7.96772e+06
7.97026e+06
1.59007e+07
-1.58972e+07
1.35832e+07
-1.3579e+07
8.06571e+06
1.30751e+07
-1.3071e+07
-1.15027e+07
141910
-141159
1.2987e+07
5.47533e+06
9.5994e+06
-4.37676e+06
6.15601e+06
-6.1545e+06
7.98984e+06
1.29546e+06
1.38545e+06
-5.80082e+06
4.02136e+06
1.06475e+07
2.73425e+06
-1.02132e+07
-5.60339e+06
1.10551e+07
-1.1051e+07
1.92688e+07
-1.9265e+07
2.35076e+07
-2.35045e+07
283659
-282941
-2.8061e+07
2.80646e+07
-7.78506e+06
1.97793e+07
-1.97748e+07
1.89062e+07
-1.89025e+07
-2.49177e+07
2.49208e+07
-1.06032e+07
1.0356e+06
-4.6203e+06
4.48942e+06
8.9707e+06
-8.96794e+06
5.70379e+06
-2.21095e+06
-1.45959e+07
1.45977e+07
-7.80157e+06
-4.66941e+06
212645
-7.55807e+06
-4.75896e+06
4.91357e+06
2.23574e+07
-2.23534e+07
796441
2.43864e+07
-2.43824e+07
1.28781e+07
9.08293e+06
5.45409e+06
2.46964e+07
-2.46925e+07
1.44017e+07
-1.43987e+07
2.37184e+07
-2.37153e+07
5.37697e+06
-9.96444e+06
-7.55221e+06
5.74646e+06
602060
-2.23092e+07
2.23145e+07
2.79981e+07
-2.7994e+07
8.67732e+06
-8.67452e+06
2.28362e+07
-2.28321e+07
-4.28741e+06
-803169
786766
-4.26201e+06
4.94139e+06
-2.50309e+07
2.5034e+07
2.74145e+06
1.66994e+07
-1.66958e+07
-2.55378e+07
2.55425e+07
-1.87456e+06
2.60501e+07
-2.60458e+07
-4.20361e+06
-4.36574e+06
1.32448e+07
1.08404e+07
1.39961e+07
-1.39924e+07
1.54177e+07
-1.54141e+07
-7.12158e+06
-8.05709e+06
-7.87662e+06
7.93547e+06
7.62697e+06
1.6511e+07
-1.65074e+07
-1.44609e+07
-6.01947e+06
-1.25484e+07
967003
-1.76022e+07
1.76064e+07
-2.33265e+07
2.33312e+07
-5.59271e+06
570426
1.44427e+06
-2.82916e+07
2.82951e+07
-5.06798e+06
5.1654e+06
-8.07416e+06
683652
-1.86608e+06
-5.18248e+06
2.97668e+06
-1.08807e+07
-2.42446e+07
2.42491e+07
-7.84828e+06
-1.44753e+07
-1.54365e+07
-1.395e+07
1.39526e+07
-1.3176e+07
-4.69442e+06
-2.35591e+07
2.35637e+07
-7.48957e+06
1.11621e+06
2.85002e+07
-2.84961e+07
-1.6282e+07
-2.27938e+07
2.27986e+07
-9.42543e+06
8.0436e+06
-1.04104e+07
2.30179e+07
-2.30147e+07
-7.5529e+06
7.55527e+06
-6.41191e+06
-1.6081e+07
2.30001e+07
-2.29969e+07
33250.7
-33075.7
5.40999e+06
-6.85506e+06
-3.10903e+06
3.10992e+06
-8.74237e+06
723736
1.65549e+06
-2.47154e+07
2.47186e+07
-4.29102e+06
-2.20783e+07
2.20834e+07
-7.40964e+06
2.22089e+07
-2.22055e+07
1.95185e+07
-1.95147e+07
1.59853e+06
-1.59928e+06
1.05503e+06
2.27532e+07
-2.27498e+07
-1.48274e+07
2.17594e+07
-2.17562e+07
2.38498e+07
9.00031e+06
-2.7849e+07
2.78532e+07
1.07849e+07
1.5317e+07
1.51935e+07
-1.22097e+07
5.93165e+06
197392
-9.35521e+06
1.2606e+07
-1.19224e+07
-2.65286e+07
2.65324e+07
-5.45877e+06
-4.68596e+06
-1.61415e+07
-1.63696e+07
1.96492e+07
-1.49988e+07
1.35123e+07
-1.35085e+07
4.70147e+06
1.07849e+06
1.39143e+07
2.2358e+07
-2.23548e+07
2.56777e+07
-2.56734e+07
1.9029e+06
-3.90497e+06
2.19169e+07
-2.19119e+07
9.75341e+06
-5.798e+06
-1.03784e+07
2.48771e+06
1.40461e+06
-1.76106e+07
1.76147e+07
-1.33303e+07
1.33333e+07
1.08809e+07
-1.34785e+07
2.66008e+06
-2.63207e+06
-209524
210347
-5.60087e+06
-7.00045e+06
3.31386e+06
1.22344e+07
535625
-5.41211e+06
-2.21459e+07
2.21495e+07
-2.4556e+07
2.45591e+07
-1.1903e+07
1.59071e+07
-2.2976e+07
2.29792e+07
924091
2.20274e+06
-2.29068e+07
2.29111e+07
-2.58828e+06
4.29628e+06
-4.29571e+06
8.96015e+06
8.07168e+06
-1.44577e+06
89776.9
120221
-119752
1.83012e+06
-1.83131e+06
1.08094e+07
-1.29361e+07
1.29399e+07
374960
7.84506e+06
1.16003e+06
-1.16197e+06
-1.12329e+07
-6.53502e+06
-4.62673e+06
8.10086e+06
-1.87283e+07
2.49824e+06
1.22128e+07
-1.45865e+07
-5.24735e+06
1.45632e+07
-2.11822e+07
2.33057e+06
9.15956e+06
-1.22404e+07
1.22438e+07
-4.58114e+06
2.95176e+06
2.1753e+07
-2.17493e+07
-1.55285e+07
1.55972e+07
47936.3
-47693.5
-9.46399e+06
8.85795e+06
-8.85512e+06
-6.5861e+06
3.21634e+06
-1.21828e+07
1.21775e+07
2.33692e+07
-2.33658e+07
25058.2
-24753.2
1.47654e+06
-2.74616e+07
2.74652e+07
-1.41276e+06
-1.1337e+07
-2.2326e+07
2.23292e+07
-2.54353e+07
2.54404e+07
4.45201e+06
-9.65346e+06
-1.74765e+06
-1.01109e+07
1.0114e+07
-2.68866e+07
2.689e+07
-4.66927e+06
-1.50121e+07
-5.1389e+06
-1.50889e+07
-1.51512e+07
-1.02779e+07
-9.88801e+06
1.09467e+07
7.57146e+06
-1.09424e+07
2.72151e+07
-2.72109e+07
-9.08732e+06
3.60637e+06
4.33048e+06
-1.54262e+07
-1.39707e+07
-584729
-8.73181e+06
2.93233e+06
1.1407e+07
1.13128e+06
501369
-2.27624e+06
9.7282e+06
5.32966e+06
-2.19625e+07
-1.04252e+07
1.94723e+07
-1.94685e+07
7.08981e+06
-7.45215e+06
2.98057e+06
-1.01633e+07
1.01665e+07
223180
5.34602e+06
-1.3409e+07
726359
1.33938e+07
236697
-235703
-4.60032e+06
1.27906e+07
1.05264e+07
1.57969e+07
8.39594e+06
-1.12302e+07
5.50843e+06
-1.38866e+07
3.23783e+06
1.89198e+06
1.18634e+06
-2.08801e+07
-2.24172e+07
2.24203e+07
-1.9534e+07
1.83186e+06
1.47475e+07
-8.73828e+06
2.16772e+07
-2.1674e+07
-1.69442e+07
1.6948e+07
1.55661e+07
961834
4.14484e+06
-4.14481e+06
-1.96327e+07
1.96275e+07
1.45959e+07
-1.45922e+07
-69927.6
70255.9
-5.48436e+06
-3.43843e+06
-1.25226e+07
-1.21098e+06
-3.08981e+06
-2.35655e+07
2.35706e+07
-2.28354e+07
2.28405e+07
1.38932e+07
-1.38893e+07
1.52004e+07
-1.51966e+07
-3.45786e+06
200829
-3.15042e+06
-1.20225e+07
6.33164e+06
1.46765e+07
-5.04041e+06
-2.74966e+07
2.7501e+07
-1.31885e+07
6.71324e+06
3.4115e+06
1.76052e+07
1.51927e+07
-1.16635e+07
-4.04055e+06
2.25446e+07
-2.25409e+07
-5.96818e+06
6.04137e+06
5.53019e+06
-5.5289e+06
2.25092e+07
-2.25059e+07
591014
3.69599e+06
-4.10493e+06
4.26929e+06
2.12892e+07
2.13597e+06
-2.0611e+07
2.06156e+07
-8.62702e+06
1.16881e+07
713879
-1.29941e+07
1.29979e+07
1.02101e+07
-1.0207e+07
8.74903e+06
-1.84033e+07
-1.07014e+07
-8.725e+06
8.7281e+06
-1.17778e+07
-2.13645e+06
1.18376e+07
-1.18333e+07
-1.02553e+07
2.63351e+07
-2.63293e+07
2.05395e+07
-2.05349e+07
-1.37597e+07
-2.01476e+07
2.01521e+07
-6.22471e+06
-8.81941e+06
2.05072e+07
-2.05039e+07
-1.57874e+07
-2.25193e+07
2.25224e+07
1.29607e+07
-2.17999e+07
2.18035e+07
-1.335e+07
1.3354e+07
-3.33459e+06
1.75268e+07
-1.75229e+07
-1.06163e+07
-2.11717e+06
-2.66108e+06
-3.84915e+06
1.6897e+07
-1.68932e+07
-2.62102e+07
2.62137e+07
-9.58081e+06
-1.60477e+07
1.02801e+07
970706
-1.23282e+07
-1.13561e+07
5.44235e+06
-4.18059e+06
4.1807e+06
-1.86327e+07
-2.47595e+07
2.47626e+07
9.50552e+06
967888
-2.21541e+07
2.2158e+07
-1.13027e+07
-1.26938e+07
1.26942e+07
188709
1.27449e+06
-3.67015e+06
-9.77141e+06
-8.18061e+06
1.17758e+07
-1.17714e+07
-1.13434e+07
-238399
1.86015e+07
-1.8598e+07
4.19434e+06
-1.18529e+07
1.18568e+07
-3.40415e+06
1.15508e+07
-1.15475e+07
-2.22007e+07
2.22053e+07
-1.30566e+07
1.30602e+07
1.25474e+07
-9.64837e+06
9.62527e+06
1.24827e+07
-1.42005e+07
1.42043e+07
-8.77931e+06
4.66585e+06
-5.37234e+06
-1.31775e+07
952482
-2.40717e+06
-4.79623e+06
-2.0907e+07
1.38313e+07
-1.38272e+07
9.63696e+06
1.40399e+07
-1.40363e+07
-9.07467e+06
-1.85736e+07
1.85774e+07
-3.41684e+06
-868643
-1.20622e+07
1.20655e+07
2.13084e+07
-2.13052e+07
1.62049e+07
6.80662e+06
1.10001e+07
1.88827e+07
-1.8879e+07
2.42786e+07
-2.42754e+07
7.58279e+06
-6.04899e+06
3.12393e+06
-3.18086e+06
9.53846e+06
-9.53325e+06
-9.88173e+06
-56337.1
-126000
126651
56632.2
-6.08956e+06
684045
-684584
-1.3495e+07
1.34986e+07
-8.2321e+06
8.23481e+06
1.14843e+07
-1.14811e+07
1.8598e+06
1.70039e+07
-1.70003e+07
-1.25153e+07
-5.92574e+06
-1.62232e+07
1.62269e+07
-7.5128e+06
1.809e+07
-1.80863e+07
-9.74308e+06
-7.72969e+06
1.52622e+07
-1.2498e+07
1.25014e+07
1.4998e+07
1.10438e+06
-44903.2
-7.10299e+06
-2.23303e+07
2.2334e+07
-1.88567e+06
1.33301e+07
-2.74321e+07
2.74357e+07
-64870.5
65160.4
1.36547e+07
-1.36519e+07
1.18078e+07
-1.82075e+06
2.67617e+07
-2.67586e+07
-8.94295e+06
-1.33969e+07
1.91982e+06
5.09847e+06
1.12287e+07
9.00708e+06
4.83441e+06
-935335
-3.91168e+06
-1.45714e+07
1.00665e+07
1.38236e+07
-1.32366e+07
-6.86011e+06
-5.40971e+06
167711
-167347
1.85245e+07
-1.85208e+07
1.08089e+07
-931793
-5.90352e+06
-2.10073e+06
1.20861e+07
1.28883e+07
-1.35075e+07
-1.35795e+06
8.51733e+06
-9.20365e+06
-3.52462e+06
7.64257e+06
-7.64014e+06
1.21341e+07
1.69805e+07
-1.61503e+06
-8.46348e+06
2.25167e+07
-2.25132e+07
-2.32525e+07
2.32557e+07
128335
-127775
-1.1046e+06
-1.75892e+06
-6.90219e+06
-990747
-1.25569e+07
1.25616e+07
7.40804e+06
3.27362e+06
-3.27416e+06
-2.48203e+07
2.48236e+07
-1.94193e+07
2.0397e+07
-2.03934e+07
-3.07039e+06
1.53298e+07
-9.63807e+06
-5.53628e+06
1.52155e+07
1.71737e+06
2.03758e+07
-2.03725e+07
8.12875e+06
-2.69164e+06
2.50639e+07
-2.50587e+07
-8.16016e+06
-2.18114e+07
-7.35515e+06
2.18152e+07
5.52553e+06
-5.4991e+06
1.10442e+07
8.29362e+06
-1.15305e+07
-456016
-1.15618e+07
-6.09303e+06
2.02302e+07
-4.02376e+06
8.05148e+06
-8.04779e+06
-2.31597e+07
2.31628e+07
5.84959e+06
1.72195e+06
-2.17102e+07
2.17138e+07
-1.27265e+07
1.03838e+07
8.42707e+06
4.28285e+06
9.44572e+06
9.18172e+06
-9.17883e+06
-3.38076e+06
1.29772e+07
-1.2973e+07
-2.29523e+07
2.29555e+07
307918
-8.76011e+06
-1.8528e+06
-2.02182e+07
1.91499e+07
-1.91455e+07
8.57242e+06
1.07273e+06
-6.08867e+06
-1.37099e+07
-5.58165e+06
-9.32331e+06
-3.61072e+06
-8.65178e+06
9.79607e+06
2.33252e+07
-2.33221e+07
2.09733e+07
-2.09686e+07
1.52878e+07
-1.50528e+07
-3.51451e+06
1.36838e+06
2.27664e+07
-2.27632e+07
-1.58958e+07
-1.43977e+07
418969
-5.8719e+06
1.88509e+06
1.49141e+06
-1.49076e+06
-6.3999e+06
-2.5138e+06
2.59915e+07
-2.59869e+07
-778204
6.6022e+06
-1.05779e+06
2.7819e+07
-2.78156e+07
-9.15289e+06
9.15749e+06
-1.09551e+07
-7.09756e+06
7.0999e+06
-3.36562e+06
-1.57143e+06
771551
1.42019e+06
2.13047e+07
-2.13015e+07
-2.949e+06
-1.27351e+07
1.27388e+07
2.37191e+07
-2.37159e+07
-9.07238e+06
9.05725e+06
1.53777e+07
-1.53739e+07
-2.51811e+07
2.5186e+07
2.94117e+06
-1.49938e+07
2.55294e+07
-2.55247e+07
-1.56713e+07
-1.3251e+06
1.45706e+07
-1.45671e+07
1.90555e+07
-1.90522e+07
-1.49156e+07
-2.23956e+07
2.23992e+07
-2.60515e+07
2.60546e+07
1.49164e+07
6.4807e+06
9.27696e+06
4.06697e+06
1.69306e+07
-1.69271e+07
-2.0846e+07
1.39162e+06
1.85893e+06
2.08491e+07
7.58442e+06
1.21433e+07
-9.30038e+06
1.28614e+07
-1.28578e+07
251650
3.57996e+06
-1.12275e+07
1.68257e+07
-1.68318e+07
6.4839e+06
-805548
206591
-206047
-9.45764e+06
-1.09071e+07
-7.8049e+06
2.56228e+07
-2.56185e+07
-1.56483e+07
-1.16165e+07
-1.52627e+07
7.1157e+06
1.5061e+07
-1.50571e+07
-1.48225e+07
6.42025e+06
1.56575e+07
-8.25884e+06
8.32498e+06
1.52664e+07
-1.37038e+07
1.46166e+07
-1.46129e+07
-2.0781e+07
2.07842e+07
1.3481e+07
-5.36216e+06
8.746e+06
2.11426e+07
-2.11378e+07
-1.97288e+07
1.97324e+07
-9620.59
-7.04731e+06
1.70327e+07
-1.70292e+07
-9.6691e+06
2.85798e+06
-2.85803e+06
-7.7247e+06
-8.17016e+06
2.09696e+07
-1.26018e+07
-1.31267e+07
-1.58288e+07
8.76084e+06
-9.39969e+06
-3.0358e+06
2.39837e+07
-2.39805e+07
-1.40986e+06
446276
4.41826e+06
-9.33781e+06
-3.9308e+06
-2.33284e+06
-1.50472e+06
8.71722e+06
-6.8524e+06
745487
4.15039e+06
-9.32962e+06
7.62699e+06
-1.91852e+07
4.69581e+06
-4.95853e+06
-4.32106e+06
4.32128e+06
9.15824e+06
-3.08877e+06
3.08811e+06
-6.80768e+06
-4.08268e+06
1.71868e+07
-1.7183e+07
8.69183e+06
2.34883e+06
-2.3489e+06
-7.84684e+06
-4.13202e+06
8.1694e+06
-1.12101e+07
1.31157e+07
8.28491e+06
-2.22713e+07
1.02506e+07
7.56076e+06
1.25818e+07
8.95161e+06
-8.94878e+06
3.1469e+06
-3.49172e+06
801265
-801937
1.38615e+07
-324984
9.28687e+06
6.90328e+06
-9.69148e+06
9.69555e+06
-1.54346e+07
-3.09854e+06
7.74132e+06
-426417
426446
-8.7946e+06
-5.99799e+06
-82238.9
1.04402e+06
-4.92335e+06
1.50863e+07
8.78737e+06
-1.12821e+07
-9.9887e+06
9.99143e+06
-1.76912e+07
-1.38587e+07
434092
1.82983e+06
-1.02771e+07
-1.81605e+07
1.8165e+07
794482
-7.38904e+06
-1.69894e+07
-4.48909e+06
4.48942e+06
-9.03891e+06
4.41682e+06
9.12524e+06
-2.20991e+07
2.21026e+07
-4.23437e+06
-1.2718e+07
1.27348e+07
1.70443e+07
-1.70396e+07
6.90842e+06
-9.48492e+06
310162
-309483
-8.54076e+06
856456
2.64108e+06
2.33451e+07
-2.33418e+07
-2.85257e+06
2.66947e+07
-2.66892e+07
1.33058e+06
1.10285e+07
-4.07263e+06
-1.82967e+07
-7.94139e+06
-2.36976e+06
1.83009e+07
1.67982e+07
2.09292e+06
-7.39372e+06
-1.05623e+07
1.05659e+07
1.05116e+07
-1.0857e+07
1.50112e+07
8.47281e+06
1.01651e+07
-2.24523e+06
1.69265e+06
-3.54207e+06
-6.41089e+06
599844
2.18164e+06
-3.18407e+06
-2.59995e+06
79073.3
9.6674e+06
5.86328e+06
-1.26446e+07
-9.21149e+06
-4.6143e+06
-1.54095e+07
1.45326e+07
-1.79045e+07
1.79085e+07
3.02177e+06
-1.30326e+06
-9.45547e+06
9.45783e+06
1.88392e+07
-1.88357e+07
-6.20787e+06
-2.48744e+06
1.2497e+07
-1.85425e+06
1.8547e+06
2.26461e+07
-2.26429e+07
1.58358e+06
448820
-8.02715e+06
-2.54186e+06
-1.97107e+06
-521987
-2.25688e+06
-412578
1.54047e+07
1.66507e+07
-1.6647e+07
9.84766e+06
-9.80388e+06
4.42656e+06
3.84571e+06
2.27369e+07
-2.27336e+07
2.26589e+06
4.39557e+06
9.86614e+06
-3.27308e+06
-1.41567e+07
-5.95345e+06
5.51502e+06
-4.66558e+06
1.68101e+07
-2.65656e+06
-5.28482e+06
1.99749e+07
1.72802e+07
-1.72764e+07
-1.78889e+07
3.39921e+06
1.06922e+07
-7.42303e+06
7.65478e+06
1.99844e+07
-1.99685e+07
-8.71805e+06
-2.04849e+07
-2.53973e+06
2.53944e+06
3.42022e+06
-3.42049e+06
5.91362e+06
8.08214e+06
-7.46877e+06
2.34812e+07
-2.32745e+07
2.32798e+07
4.08173e+06
-4.08128e+06
-3.36502e+06
2.40154e+07
-2.40121e+07
-9.72442e+06
9.51624e+06
-2.82898e+06
56111.2
-55821.1
-8.8574e+06
-4.33185e+06
1.90637e+07
-5.18538e+06
-2.36316e+07
2.36362e+07
9.51533e+06
1.81036e+07
-1.7973e+07
6.80976e+06
4.57009e+06
-648535
1.01969e+07
-1.01904e+07
-2.25688e+07
2.2572e+07
-4.4684e+06
-1.18553e+07
1.18609e+07
-2.18445e+07
2.1848e+07
5.1648e+06
-1.13696e+07
9.67485e+06
-3.71032e+06
9.54911e+06
-9.54545e+06
-7.53428e+06
2.914e+06
1.63789e+07
-159221
-1.0374e+07
1.03772e+07
-9.71692e+06
4.93869e+06
1.94789e+07
2.03137e+07
-2.03102e+07
1.45192e+07
-2.24849e+06
-7.44592e+06
7.29122e+06
2.55526e+07
-2.55474e+07
-1.03475e+07
1.78354e+07
-1.78316e+07
1.01388e+07
-1.62325e+07
-1.29079e+07
1.29061e+07
9.89747e+06
6.1149e+06
479892
-833767
-1.20802e+07
4.31784e+06
-3.55752e+06
122558
-121867
1.62532e+07
3.43047e+06
-3.43042e+06
2.15371e+07
-2.15324e+07
-2540.97
2.56384e+07
-2.56334e+07
-1.90049e+07
1.90091e+07
-2.55829e+07
2.55859e+07
6.61486e+06
2.36488e+07
-2.36456e+07
1.78901e+06
-7.77373e+06
-884779
-7.66527e+06
5.06723e+06
-6.94621e+06
1.83216e+07
-1.83183e+07
-5.82664e+06
5.82868e+06
5.08367e+06
-697750
410726
1.49767e+07
2.51453e+06
1.09142e+07
-1.61884e+07
2.34103e+06
-3.21546e+06
2.14248e+06
-2.14324e+06
1.50693e+07
-1.16421e+07
1.48246e+07
-9.66722e+06
-5.38506e+06
1.29366e+06
1.13238e+07
-1.13184e+07
1.10202e+07
5.3931e+06
-8.94072e+06
8.971e+06
-3.77096e+06
-1.14792e+07
-2.28761e+07
-1.3807e+07
1.38107e+07
1.61201e+07
-8.12816e+06
1.04551e+07
-1.13524e+07
1.36634e+07
2.28802e+07
1.13524e+07
1.26776e+07
1.05179e+07
6.87505e+06
1.03059e+07
-3.59015e+06
8.64922e+06
6.33017e+06
4.79126e+06
-1.50645e+06
-5.14276e+06
8.89276e+06
-1.04502e+07
-5.77957e+06
1.86387e+07
-1.86353e+07
-1.33232e+07
4.02637e+06
-3.88214e+06
-4.55399e+06
1.59619e+07
-1.72631e+07
2.08266e+06
-1.91062e+07
-6.57235e+06
2.94317e+06
1.72671e+07
8.53647e+06
-1.26148e+07
5.49731e+06
-2.3417e+06
1.45149e+07
-1.42952e+07
9.77958e+06
215429
-215323
-1.61168e+07
-1.95029e+07
1.95075e+07
897259
2.21173e+07
-2.21129e+07
2.60587e+06
8.68407e+06
-8.68131e+06
-1.04515e+07
119738
2.30086e+06
2.46875e+07
-2.46842e+07
-1.07733e+06
-1.89155e+07
2.04937e+07
-7.63969e+06
2.1597e+07
-2.15926e+07
-1.19666e+07
3.43272e+06
2.21939e+06
-1.75914e+07
9.97186e+06
-9.97119e+06
146567
-145892
1.43493e+06
5.76477e+06
1.51428e+07
-1.5139e+07
2.23477e+07
-2.23439e+07
-1.73117e+07
3.91871e+06
8.1651e+06
2.09773e+07
-2.09733e+07
896560
-269321
269982
-1.81028e+07
1.80997e+07
-2.22343e+07
2.22379e+07
-1.9216e+07
2.26988e+07
-2.26955e+07
1.64624e+07
-1.64582e+07
1.05536e+07
-5.0003e+06
-2.12411e+07
2.05472e+07
9.70049e+06
749822
-2.05439e+07
4.2655e+06
1.20823e+07
1.13609e+07
1.26209e+07
7.28889e+06
2.15969e+07
-2.15937e+07
-6.21616e+06
-1.9533e+07
1.95372e+07
2.45425e+07
-2.45387e+07
-8.44477e+06
-1.71056e+07
1.71094e+07
9.86955e+06
-9.86653e+06
-9.42441e+06
9.53528e+06
-9.52847e+06
9.20749e+06
-2.32997e+07
2.33029e+07
5.88556e+06
-4.08947e+06
-9.4419e+06
-1.69551e+06
9.19073e+06
-9.18844e+06
3.59856e+06
-8.85789e+06
3.65077e+06
-7.13166e+06
-73003.3
73475.2
-2.63542e+07
2.63578e+07
-3.58242e+06
6.58013e+06
2.64261e+07
-2.64209e+07
-9.82921e+06
9.55764e+06
4.70606e+06
-1.55222e+07
1.556e+07
1.05286e+07
-677743
-1.59357e+07
2.08943e+06
-2.59599e+07
2.59647e+07
-1.06263e+07
1.06301e+07
-1.51573e+07
1.51609e+07
772589
-772867
4.13127e+06
-1.44429e+07
-2.91038e+06
-8.07919e+06
-9.55233e+06
-1.96124e+06
1.30586e+06
-1.30675e+06
-4.19018e+06
-528331
8.4619e+06
-1.05684e+07
1.05714e+07
8.01434e+06
-423825
-1.11337e+07
1.74815e+07
-1.74778e+07
-1.1261e+07
1.50733e+06
-1.66538e+07
1.66572e+07
-7.60783e+06
-1.79509e+07
1.79547e+07
-1.34856e+07
-7.99783e+06
-1.06074e+07
-4.89763e+06
5.2408e+06
-5.2852e+06
2.08105e+07
5.05534e+06
1.45276e+07
-1.45239e+07
539324
1.27565e+07
-1.2753e+07
1.93035e+06
1.92778e+07
-1.92742e+07
-9.61025e+06
9.61322e+06
-1.02251e+06
-5.78902e+06
5.79158e+06
-1.81283e+07
1.81316e+07
1.10806e+07
-7.48567e+06
-1.09658e+07
1.29938e+07
-1.29902e+07
1.09294e+07
-3.75239e+06
-1.09836e+07
1.09842e+07
2.45894e+06
2.36552e+07
-2.36496e+07
3.41508e+06
1.40709e+07
2.2691e+07
-2.26879e+07
-310779
311975
-3.01641e+06
2.17196e+07
-2.17159e+07
2.54693e+06
1.00556e+07
-1.00532e+07
1.88913e+06
-1.88964e+06
-209546
1.01383e+07
2.32027e+07
-2.31972e+07
-2.72941e+07
2.72979e+07
8.94776e+06
1.03474e+06
-4.02581e+06
4.02575e+06
6.27526e+06
42929.5
-42692.9
-2.42219e+07
2.4225e+07
-7.37654e+06
5.1595e+06
-5.15869e+06
3.05761e+06
-2.22181e+07
2.22219e+07
-6.16695e+06
-3.06507e+06
-2.32439e+07
2.32473e+07
-2.29439e+07
2.2949e+07
-6.82948e+06
662008
-1.52263e+07
7.86381e+06
-4.74191e+06
-2.73019e+06
8.65649e+06
9.80236e+06
-9.89646e+06
9.8552e+06
-1.91659e+07
1.91694e+07
2.29491e+07
-2.29459e+07
1.82727e+07
-9.60379e+06
-2.14183e+06
849401
-2.14264e+07
-9.39314e+06
1.48151e+07
1.38106e+07
-1.49466e+07
1.31693e+07
-1.31655e+07
-1.13203e+07
1.13236e+07
2.11845e+06
-2.6132e+06
-1.01338e+07
395083
-992394
7.97888e+06
-8.92396e+06
-3.78446e+06
1.08006e+07
-1.07972e+07
297719
-1.22911e+07
1.22953e+07
-5.15054e+06
-2.54875e+07
2.54934e+07
-2.36956e+07
2.37e+07
-3.8926e+06
-1.82051e+07
1.82089e+07
2.84016e+07
-2.8398e+07
2.01929e+07
-2.01891e+07
1.35093e+07
-1.35056e+07
2.02308e+07
5.41288e+06
6.67901e+06
-3.08885e+06
-1.10886e+07
1.10919e+07
-1.84905e+07
1.84942e+07
-5.80518e+06
5.58118e+06
-5.43611e+06
2.63044e+07
-2.63012e+07
1.01108e+07
-1.33145e+07
1.32774e+07
-8.11563e+06
-9.67293e+06
1.40144e+07
-4.35351e+06
9.95339e+06
-9.94096e+06
1.18984e+06
-1.01165e+07
9.43851e+06
946308
-946827
1.71824e+07
3.6967e+06
3.96931e+06
-5.29376e+06
-1.22018e+07
-1.97689e+07
4.73926e+06
6.42427e+06
-6.42253e+06
2.044e+07
-2.04364e+07
1.31168e+07
-1.31133e+07
-5.55341e+06
4.79048e+06
4.54777e+06
3.21495e+06
-5.64444e+06
-1.67402e+07
6.14307e+06
6.79249e+06
3.21215e+06
-1.94442e+07
1.94374e+07
1.97376e+06
-1.97502e+06
5.40003e+06
4.82072e+06
-1.3292e+07
1.32956e+07
1.40217e+07
-1.40179e+07
2.43357e+07
-2.43324e+07
-6.80565e+06
-3.20096e+06
3.18966e+06
1.73823e+06
-1.77505e+07
1.79674e+07
-2.19e+07
2.19033e+07
9.88199e+06
-376523
1.82449e+07
-1.82407e+07
-1.05825e+07
1.04905e+07
7.92708e+06
-3.1658e+06
-1.0141e+07
-4.9233e+06
9.48843e+06
-9.48833e+06
1.58389e+07
-1.58351e+07
-1.47165e+07
2.21572e+07
-2.21538e+07
2.06701e+07
-2.06656e+07
1.98889e+07
9.91509e+06
-9.91384e+06
-7.94284e+06
7.94528e+06
2.63156e+06
-5.81887e+06
-1.33186e+07
-9.98955e+06
9.99356e+06
-3.78894e+06
3.78879e+06
556418
1.32068e+07
-1.65411e+07
1.65448e+07
1.18346e+07
5.10518e+06
-2.70774e+07
2.70814e+07
4.98024e+06
1.39249e+07
-1.76449e+07
5.65134e+06
-1.72881e+07
-1.96415e+07
1.96453e+07
7.10953e+06
2.07698e+07
-2.0766e+07
3.92971e+06
6.81084e+06
1.72899e+07
-1.54582e+07
1.5462e+07
-7.597e+06
8.42635e+06
-77041.6
2.27961e+07
-2.27928e+07
2.21122e+06
-2.98975e+06
1.40437e+07
-1.40398e+07
8.11949e+06
-8.91246e+06
8.85714e+06
3.01507e+06
1.15396e+06
-1.10206e+06
1.29801e+07
-1.29764e+07
2.95207e+06
-4.09418e+06
-8.46082e+06
1.56394e+07
-1.14223e+06
-4.82115e+06
-1.58039e+06
556245
8.95594e+06
1.90229e+07
-6.96796e+06
2.08739e+07
-2.0869e+07
-9.53498e+06
1.30143e+06
-1.30233e+06
2.12702e+07
-2.12658e+07
6.84332e+06
-2.26572e+07
2.2662e+07
8.63172e+06
1.88954e+07
-2.61412e+06
-584807
584376
1.52338e+06
-1.77049e+07
1.77085e+07
-1.18451e+07
1.16825e+06
1.24614e+07
-213982
-1.82439e+07
8.49544e+06
-6.00508e+06
6.0073e+06
1.38075e+07
-1.38038e+07
-9.55217e+06
4.38155e+06
8.92115e+06
-2.05621e+07
2.0566e+07
-2.16296e+06
2.06545e+06
-2.06554e+06
-151184
-2.29117e+07
2.29148e+07
-3.32876e+06
6.35871e+06
-7.78283e+06
6.27691e+06
-6.31575e+06
1.13128e+07
-1.13092e+07
-8.42394e+06
8.36403e+06
-1.09183e+07
1.10281e+07
1.34235e+07
-9.44112e+06
-1.3891e+07
843565
-1.70696e+07
-3.96308e+06
9.60941e+06
-9.60497e+06
-193792
6.47057e+06
-6.46893e+06
1.86803e+07
-1.86775e+07
1.54624e+07
2.09039e+07
1.4756e+06
2.53912e+06
1.02939e+07
751847
-1.7398e+07
-1.67842e+07
1.155e+07
7.4189e+06
-9.59038e+06
-3.28244e+06
9.51487e+06
-1.25956e+07
1.25991e+07
1.37996e+07
-1.37976e+07
1.56547e+07
-1.56667e+07
7.39714e+06
-1.23293e+07
1.23329e+07
1.1392e+06
-1.27208e+07
1.2785e+07
-2.05463e+07
2.055e+07
5.35359e+06
1.30581e+07
-2.86922e+06
-9.50801e+06
-1.714e+07
-67009
67474.6
8.38994e+06
-4.50753e+06
5.36454e+06
-5.35325e+06
2.67268e+06
1.02272e+07
-1.02236e+07
-1.75648e+07
1.75685e+07
9.33909e+06
-1.81487e+07
2.35875e+07
-2.35844e+07
-1.58354e+07
1.5839e+07
7.48451e+06
5.98366e+06
6.0428e+06
8.09216e+06
1.34605e+07
-1.34074e+07
5.5562e+06
-1.19114e+07
1.18901e+07
-1.32955e+07
1.32991e+07
1.26977e+07
9.07241e+06
-9.06957e+06
9.57111e+06
-9.568e+06
1.27564e+07
-7.00898e+06
6.9511e+06
-4.73519e+06
4.10437e+06
418007
-5.33985e+06
-9.46148e+06
2.73927e+06
-2.73975e+06
-8.10085e+06
9.46663e+06
-1.54809e+07
1.54846e+07
6.16677e+06
7.55956e+06
8.08146e+06
9.48777e+06
1.15375e+07
-1.15342e+07
1.00873e+07
-2.41477e+07
2.41526e+07
1.07675e+07
9.5953e+06
-5.41803e+06
-1.49407e+07
1.49955e+07
-1.49917e+07
5.05299e+06
1.12382e+07
9.15419e+06
-2.09576e+07
2.09608e+07
1.35786e+07
-1.35752e+07
8.17894e+06
-8.67601e+06
-6.22631e+06
-1.91101e+06
6.64295e+06
5.62421e+06
7.42637e+06
-6.93842e+06
869133
-961412
-1.76476e+07
1.76513e+07
1.9002e+06
2.40209e+07
-1.87534e+07
1.8757e+07
1.54179e+07
-1.25559e+07
9.15494e+06
-8.09857e+06
1.25656e+07
-2.21479e+07
2.2151e+07
3.19976e+06
1.27007e+07
-1.84643e+07
1.84682e+07
1.06526e+07
-8.23249e+06
1.31779e+07
5422.34
-5174.98
8.59252e+06
2.17704e+07
-2.17659e+07
7.8595e+06
-529510
6.75486e+06
1.58361e+07
-1.2787e+07
-657620
-2.40164e+07
371284
-370941
-5.10456e+06
1.11616e+07
3.91016e+06
282229
-281816
1.17483e+07
-1.6378e+07
1.63818e+07
2.6282e+07
-2.62773e+07
-1.28425e+07
1.2846e+07
9.27071e+06
956550
-969402
-9.36133e+06
-4.56177e+06
7.27875e+06
550678
-9.08307e+06
-8.89805e+06
1.76804e+07
-1.7676e+07
-1.78212e+07
1.78249e+07
-2.28192e+06
-9.74887e+06
-2.1298e+07
6.12881e+06
-1.07444e+07
-340704
1.0027e+07
1.05138e+07
2.67043e+07
-2.66986e+07
-1.68823e+07
-6.0913e+06
-1.33226e+07
1.33263e+07
-2.87182e+06
-842194
241292
7.48486e+06
-20282.3
20077.7
-3.99694e+06
2.6287e+06
-2.62842e+06
-224137
-2.36213e+07
2.36257e+07
-3.79202e+06
-1.07342e+07
1.25351e+07
1.07362e+07
-1.74346e+07
1.74306e+07
4.23081e+06
-5.4244e+06
-8.97517e+06
1.17862e+06
-2.33841e+07
2.33885e+07
1.1463e+07
-1.14599e+07
-2.18429e+07
3.62471e+06
-2.72785e+07
2.72828e+07
9.51813e+06
-9.51513e+06
-9.3053e+06
1.722e+07
-2.51043e+06
-1.56631e+07
1.56665e+07
2.37616e+07
-2.37584e+07
-270459
-1.42377e+06
1.11222e+07
2.05929e+07
9.30829e+06
5.61802e+06
-1.75549e+07
1.75588e+07
-4.1432e+06
6.60317e+06
-1.10709e+07
-1.53319e+07
-3.98324e+06
-1.04454e+07
1.53008e+07
-1.5297e+07
1.91584e+07
-2.34683e+07
2.34715e+07
128393
-127878
1.13184e+07
1.02759e+07
2.39793e+07
-1.23269e+07
-1.30333e+07
1.30368e+07
-1.31814e+07
9.54794e+06
-1.79429e+07
9.28485e+06
-4.21024e+06
-2.53217e+07
2.5325e+07
-1.62896e+07
-1.67747e+07
1.67787e+07
-2.75206e+07
2.75251e+07
-2.39739e+07
68912.6
-68538.8
7.76187e+06
-2.58232e+07
2.58263e+07
-1.45787e+07
1.45825e+07
-3.59818e+06
3.59787e+06
1.26257e+07
4.58976e+06
1.92064e+07
-1.92029e+07
-3.56666e+06
-5.27188e+06
1.72294e+07
-1.72256e+07
-1.00468e+07
-7.1245e+06
2.15308e+07
-2.15271e+07
-8.89223e+06
3.91861e+06
-3.91825e+06
1.35128e+07
51351.4
-7.4536e+06
2.71045e+07
-2.70988e+07
1.82207e+07
1.31376e+07
-1.31336e+07
-1.10078e+07
1.10116e+07
1.92008e+06
-1.92064e+06
4.84303e+06
1.60235e+07
-2.37662e+06
2.37639e+06
-1.53379e+07
1.53416e+07
-5.4193e+06
1.49212e+06
6.78658e+06
1.31841e+07
3.76951e+06
3.14579e+06
2.07193e+07
-2.07146e+07
1.95873e+07
-1.95836e+07
-2.85666e+07
2.85707e+07
-7.58239e+06
-8.99956e+06
8.86771e+06
1.86814e+07
-1.86777e+07
-8.06743e+06
-229260
230211
-3.68446e+06
-1.37893e+07
9.74167e+06
-9.73684e+06
-2.12172e+07
5.32394e+06
-1.10069e+07
-2.33205e+07
2.33236e+07
-7.32345e+06
-1.03254e+07
1.03301e+07
521520
6.9731e+06
-676838
-1.31514e+07
-1.86204e+07
1.86247e+07
-1.94315e+06
-8.708e+06
2.31931e+07
-1.39391e+07
1.39427e+07
4.5364e+06
1.95454e+07
-1.95418e+07
199071
-6.3666e+06
-5.78235e+06
1.51911e+06
-4.57866e+06
1.68505e+06
-1.84162e+07
1.84196e+07
1.76286e+07
-1.76251e+07
-2.93425e+06
-2.34279e+07
2.34315e+07
-2.10088e+06
2.9221e+06
2.09893e+06
-7.93645e+06
7.93869e+06
8.74345e+06
-7.29607e+06
4.06057e+06
1.57383e+06
-8.42503e+06
6.52478e+06
1.75384e+07
-1.75358e+07
-4.28968e+06
-9.14872e+06
1.44272e+07
-6.34953e+06
-2.0089e+07
-1.61127e+07
-5.82751e+06
4.01676e+06
1.77212e+06
3.17833e+06
-2.52519e+07
2.52555e+07
-2.39976e+07
2.40009e+07
589018
1.0767e+06
-1.07618e+06
-1.021e+07
-4.90369e+06
8.43476e+06
-1.05578e+06
2.3004e+06
-1.79601e+07
-1.88378e+06
976675
-2.46193e+07
2.46226e+07
-5.69686e+06
1.60827e+06
1.92769e+07
9.98813e+06
-9.98506e+06
-1.64542e+07
2.00335e+07
4.88475e+06
1.4069e+07
5.90032e+06
-1.28567e+07
1.53251e+06
-1.4647e+06
-5.38626e+06
135005
-2.5226e+07
2.52291e+07
1.20828e+06
-1.21529e+06
6.67497e+06
1.28794e+06
1.43158e+07
-1.43088e+07
6.33904e+06
-4.4765e+06
6.23299e+06
-1.58661e+07
1.58701e+07
1.92683e+07
-1.39581e+06
1.31172e+07
-8.7359e+06
381510
-1.54633e+07
611615
-9.24726e+06
-134349
816656
6.34267e+06
668603
6.42507e+06
-1.13686e+07
2.42244e+07
-2.42211e+07
-1.13822e+07
1.13853e+07
6.8104e+06
-6.81532e+06
2.62044e+06
-1.34184e+07
1.07889e+07
-1.00602e+07
1.00636e+07
-1.89718e+07
7.55083e+06
-627603
1.0815e+07
-1.06661e+07
-7.07629e+06
-3.32164e+06
-854093
858427
-1.04277e+07
1.04317e+07
-2.72991e+06
2.7289e+06
1.4314e+07
-1.47046e+07
6.21102e+06
-3.77088e+06
-7.60906e+06
7.01972e+06
164419
-787267
-1.20489e+06
-6.71399e+06
1.46392e+07
-622133
3.13374e+06
1.34992e+07
1.73706e+07
-1.73713e+07
1.08604e+07
-745318
-3.07284e+06
1.89415e+07
-1.8938e+07
1.82759e+07
-1.82721e+07
-9.49663e+06
-3.43385e+06
-6.47644e+06
-8.54641e+06
8.60245e+06
8.10021e+06
-7.07477e+06
-2.15773e+06
-7.00925e+06
-4.43026e+06
4.32702e+06
-2.36003e+06
-2.23445e+06
618682
-616885
3.05801e+06
-1.27178e+07
1.46482e+07
-3.46685e+06
-1.31193e+07
1.31228e+07
-2.15285e+07
1.39512e+07
-1.39473e+07
178898
-178546
8.05211e+06
1.94124e+07
-1.94087e+07
10565.2
-9.32191e+06
176089
244206
-5.31011e+06
5.30491e+06
-1.7009e+07
1.70127e+07
-4.86737e+06
1.47504e+06
1.27411e+07
2.29203e+07
-2.29154e+07
2.0063e+07
-2.00592e+07
1.07335e+06
-1.31907e+07
1.31934e+07
9.50118e+06
6.914e+06
-2.10327e+07
2.10361e+07
2.56735e+06
-7.2725e+06
-8.34301e+06
3.17747e+06
-8306.89
7977.42
-1.52838e+07
1.52876e+07
-1.26389e+07
1.26427e+07
2.24813e+06
-2.24887e+06
-5.96689e+06
1.07492e+06
-1.07547e+06
-1.27604e+07
-1.76187e+07
8.12374e+06
1.41974e+07
-1.41935e+07
1.68788e+06
-1.47946e+07
1.64556e+06
-1.47959e+06
-1.6183e+07
-1.4045e+07
1.40487e+07
-7.37933e+06
-4.21463e+06
-1.61127e+07
-2.47233e+07
2.47286e+07
1.46497e+07
1.71586e+07
-1.71567e+07
1.28169e+07
-1.28127e+07
-15292
15115.4
8.39882e+06
9.58135e+06
5.79169e+06
2.29376e+07
9.69461e+06
9.88493e+06
-8.39278e+06
-8.12314e+06
2.31082e+07
-2.31049e+07
1.14454e+06
2.04395e+07
-2.04362e+07
-9.03795e+06
-1.17564e+07
1.17593e+07
-1.97646e+07
8.78874e+06
-2.13505e+07
2.13543e+07
-1.79706e+07
9.4335e+06
1.44298e+07
6.9496e+06
7.13799e+06
-1.7149e+07
1.71528e+07
7.41713e+06
-7.41087e+06
-4.22745e+06
-660751
1.93565e+07
7.30385e+06
-1.94867e+06
-1.03296e+07
1.03553e+07
-3.86734e+06
-2.61339e+07
2.61371e+07
-2.06821e+07
2.06859e+07
1.72144e+06
-4.22854e+06
4.23249e+06
2.27549e+07
-1.58666e+07
1.10258e+07
-1.96134e+06
-2.05685e+07
7.90616e+06
2.17451e+07
363026
2.01361e+06
-570030
-7.93035e+06
-1.18753e+07
1.41218e+07
-1.41177e+07
1.88056e+06
-2.74777e+07
2.74823e+07
1.41964e+07
-1.41926e+07
-1.02935e+07
-6.19785e+06
-3.68745e+06
-2.34219e+06
1.3351e+07
2.18184e+07
-2.1815e+07
1.40369e+07
-4.89886e+06
3.56195e+06
-3.21093e+06
264265
-263731
-2.21772e+07
-291508
1.74258e+07
-1.74221e+07
-7.93156e+06
7.93405e+06
-5.29968e+06
5.30189e+06
-1.41659e+07
1.21096e+07