/*--------------------------------*- C++ -*----------------------------------*\
| =========                 |                                                 |
| \\      /  F ield         | OpenFOAM: The Open Source CFD Toolbox           |
|  \\    /   O peration     | Version:  v3.0+                                 |
|   \\  /    A nd           | Web:      www.OpenFOAM.com                      |
|    \\/     M anipulation  |                                                 |
\*---------------------------------------------------------------------------*/
FoamFile
{
    version     2.0;
    format      ascii;
    class       volScalarField;
    location    "6000";
    object      sigmaEq;
}
// * * * * * * * * * * * * * * * * * * * * * * * * * * * * * * * * * * * * * //

dimensions      [1 -1 -2 0 0 0 0];

internalField   nonuniform List<scalar> 
27023
(
2.84601e+07
2.84697e+07
2.08313e+07
2.08248e+07
2.73306e+07
2.73402e+07
9.19365e+07
9.19221e+07
1.10818e+07
1.10823e+07
6.54905e+07
6.54723e+07
2.75477e+06
2.75951e+06
2.6526e+07
1.95506e+07
1.86144e+07
5.64915e+07
5.65042e+07
4.05881e+07
4.05809e+07
9.13346e+07
9.13202e+07
4.1972e+07
4.19665e+07
6.83411e+06
2.99629e+07
4.25967e+06
2.90997e+07
3.24523e+07
1.46544e+07
4.07107e+07
4.07031e+07
4.28778e+07
2.60019e+07
3.33146e+07
3.56431e+07
3.56286e+07
1.0915e+07
1.09157e+07
2.09127e+07
2.09192e+07
2.17419e+07
2.74796e+07
2.74892e+07
5.5804e+07
5.57915e+07
4.05937e+07
4.05862e+07
2.99334e+07
3.91928e+07
3.91858e+07
4.18822e+07
535850
533119
4.70313e+07
1.96929e+07
3.5071e+07
1.67564e+07
2.15741e+07
2.15678e+07
2.9065e+07
5.53008e+06
5.51633e+06
2.16422e+07
1.28302e+07
3.6505e+07
8.52769e+06
3.10319e+07
2.06089e+07
3.39245e+07
3.39097e+07
5.96489e+07
5.96401e+07
8.52705e+07
8.52592e+07
963685
961811
9.99205e+07
9.99332e+07
2.2407e+07
6.32195e+07
6.32014e+07
5.78388e+07
5.78302e+07
9.0611e+07
9.06221e+07
3.64066e+07
6.21091e+06
1.76215e+07
1.67124e+07
2.9494e+07
2.94839e+07
2.23112e+07
8.12898e+06
4.23509e+07
4.23516e+07
2.23856e+07
1.75415e+07
6.02633e+06
2.76476e+07
1.71109e+07
1.7174e+07
7.1738e+07
7.17265e+07
4.76744e+06
8.16702e+07
8.16577e+07
4.62624e+07
3.25387e+07
2.10338e+07
8.13974e+07
8.13852e+07
4.18021e+07
4.17965e+07
8.59539e+07
8.59426e+07
2.22549e+07
3.21244e+07
2.36753e+07
2.06195e+07
3.3177e+06
7.89651e+07
7.89836e+07
1.00818e+08
1.00803e+08
2.86848e+07
2.86746e+07
7.28301e+07
7.28185e+07
1.55938e+07
2.84932e+06
2.86662e+06
1.36569e+07
1.81322e+07
9.0696e+07
9.07072e+07
9.99199e+06
5.75393e+07
5.75269e+07
8.58938e+07
8.59092e+07
8.22188e+06
8.86131e+07
8.85987e+07
1.38616e+07
1.62986e+07
3.84074e+07
3.73151e+07
4.70741e+07
4.70613e+07
4.98556e+07
4.98449e+07
2.642e+07
2.566e+07
2.80652e+07
2.78296e+07
2.64644e+07
5.68403e+07
5.6828e+07
5.29999e+07
2.23949e+07
4.56062e+07
6.28428e+06
5.8066e+07
5.80781e+07
7.75146e+07
7.75299e+07
1.64405e+07
4.95445e+06
8.40181e+06
1.00618e+08
1.00631e+08
1.93912e+07
1.88825e+07
2.88627e+07
4.18159e+06
7.44475e+06
1.986e+07
1.1145e+07
3.74388e+07
8.21779e+07
8.21928e+07
2.91194e+07
5.23247e+07
5.55736e+07
3.97637e+07
3.97639e+07
4.79213e+07
1.79123e+07
7.76101e+07
7.76255e+07
2.20728e+07
6.17878e+06
1.00567e+08
1.00553e+08
5.91548e+07
7.57317e+07
7.57488e+07
2.9996e+07
2.82032e+07
3.12058e+07
8.37086e+07
8.36971e+07
2.60767e+07
2.60861e+07
1.99048e+07
5.83073e+07
8.34209e+07
8.34093e+07
330693
328984
2.34426e+07
2.1214e+07
1.27477e+07
1.27473e+07
2.55895e+07
6.18458e+06
8.64397e+06
8.88589e+07
8.88705e+07
1.56924e+07
7.91429e+07
7.91614e+07
2.69777e+07
7.72046e+07
7.71929e+07
6.00602e+07
6.00516e+07
5.61419e+06
5.61706e+06
6.63561e+06
7.97012e+07
7.96894e+07
5.3834e+07
7.81499e+07
7.81382e+07
8.65067e+07
3.24183e+07
9.83696e+07
9.83847e+07
3.11652e+07
5.56479e+07
5.50798e+07
4.35835e+07
2.38826e+07
6.64984e+06
2.81965e+07
4.59908e+07
4.26753e+07
9.10037e+07
9.10163e+07
2.06959e+07
1.86465e+07
5.86793e+07
5.92731e+07
7.14536e+07
5.42699e+07
4.58935e+07
4.58819e+07
2.10266e+07
1.08866e+07
4.98686e+07
8.0296e+07
8.02844e+07
8.82534e+07
8.82391e+07
7.1853e+06
1.84803e+07
7.4981e+07
7.49632e+07
3.44113e+07
1.97025e+07
3.79332e+07
9.31251e+06
6.90274e+06
5.82918e+07
5.83041e+07
4.61956e+07
4.62133e+07
4.02669e+07
4.91119e+07
1.13363e+07
1.09479e+07
735125
738751
2.06427e+07
2.5396e+07
2.22542e+07
3.74335e+07
3.59427e+06
2.00179e+07
7.44055e+07
7.4417e+07
8.93104e+07
8.93215e+07
4.35658e+07
5.77708e+07
8.36737e+07
8.36848e+07
3.08466e+06
1.94815e+07
7.51607e+07
7.51739e+07
1.3745e+07
1.66378e+07
1.66237e+07
2.52873e+07
2.91929e+07
8.83106e+06
3.38648e+06
440018
438210
6.66797e+06
6.67217e+06
3.92635e+07
4.12253e+07
4.12381e+07
1.18244e+06
2.87245e+07
4.32518e+06
4.34195e+06
3.13164e+07
2.58771e+07
2.10852e+07
2.99806e+07
6.7896e+07
9.9759e+06
3.60022e+07
4.36723e+07
1.7785e+07
4.37218e+07
7.77749e+07
8.15947e+06
3.30423e+07
4.16278e+07
4.16394e+07
1.44192e+07
1.95327e+07
6.94247e+07
6.94141e+07
5.72794e+07
5.75644e+07
310020
308418
2.92595e+07
3.18197e+07
3.18094e+07
2.46723e+07
1.14412e+07
4.386e+07
4.39192e+07
8.22245e+07
8.22128e+07
150456
149370
2.17527e+07
9.54955e+07
9.5508e+07
6.26889e+06
3.55004e+07
8.08336e+07
8.08448e+07
8.80236e+07
8.80417e+07
1.75169e+07
3.57325e+07
1.86419e+07
3.44637e+07
3.44739e+07
9.52249e+07
9.52371e+07
2.20074e+07
5.3961e+07
2.11714e+07
5.52248e+07
5.44976e+07
2.89444e+07
3.58289e+07
3.28873e+07
2.76123e+07
3.28707e+07
9.34335e+07
9.34193e+07
2.68749e+07
1.08012e+07
1.59053e+07
5.62976e+07
4.05367e+07
8.03597e+06
2.76823e+07
1.14538e+07
3.54862e+07
7.50232e+06
1.94126e+07
1.01577e+07
3.48247e+07
1.88968e+07
7.97957e+07
3.7408e+07
5.93854e+07
5.93769e+07
2.61492e+07
2.10268e+07
1.18334e+07
3.47483e+07
3.47583e+07
2.66363e+06
1.89696e+07
3.83893e+07
2.55509e+06
3.83222e+07
986144
981279
1.69601e+07
4.65202e+07
3.30054e+07
5.6918e+07
3.10221e+07
4.01727e+07
1.67813e+07
5.04805e+07
1.84942e+07
8.16281e+06
4.96429e+06
7.62827e+07
8.11802e+07
8.11913e+07
7.04979e+07
8.92938e+06
5.53087e+07
2.43584e+07
7.81068e+07
7.80953e+07
5.17401e+07
5.17483e+07
5.6771e+07
9.77192e+06
1.46536e+07
1.4653e+07
7.16673e+07
7.16409e+07
4.82554e+07
4.82436e+07
458733
461038
1.6837e+07
1.34076e+07
4.50414e+07
1.81897e+07
1.952e+07
7.87708e+07
7.87892e+07
7.8524e+07
7.8542e+07
4.93542e+07
4.93481e+07
5.15691e+07
5.15559e+07
1.25377e+07
6.86647e+06
1.07548e+07
4.35842e+07
1.93849e+07
5.29166e+07
1.85693e+07
9.818e+07
9.81953e+07
4.78056e+07
2.43223e+07
1.31936e+07
6.42829e+07
5.51321e+07
3.367e+07
1.26687e+07
7.4951e+07
7.49397e+07
2.20677e+07
2.19602e+07
1.84477e+07
1.84397e+07
7.88507e+07
7.8839e+07
2.89289e+06
1.41889e+07
1.22739e+07
2.08643e+07
7.74412e+07
1.03866e+07
6.62183e+07
6.62366e+07
3.11032e+07
3.60746e+07
2.68845e+06
4.17137e+07
4.17264e+07
3.49513e+07
3.49405e+07
2.77964e+07
6.63689e+07
3.86816e+07
2.82905e+07
2.82974e+07
4.30574e+07
1.92739e+07
3.55922e+07
3.55837e+07
2.9443e+07
9.4433e+07
9.44124e+07
6.72666e+07
6.72487e+07
3.96222e+07
6.97071e+07
6.97223e+07
2.24188e+07
3.17793e+07
7.36485e+07
7.36368e+07
5.69044e+07
8.2199e+07
8.22101e+07
4.8199e+07
7.05547e+07
7.05655e+07
4.63089e+07
4.63265e+07
1.07445e+07
6.34241e+07
6.34099e+07
3.81426e+07
8.63213e+06
8.838e+06
1.19872e+07
4.93508e+07
4.9346e+07
9.09482e+07
9.09604e+07
3.49403e+07
5.88088e+07
2.89402e+07
4.38191e+06
3.52936e+07
3.2587e+07
2.07797e+07
1.4608e+07
1.46086e+07
6.80396e+07
8.96856e+07
8.96967e+07
3.4841e+07
3.69563e+06
7.04565e+07
7.04671e+07
3.42313e+07
4.58696e+07
4.58949e+07
2.22405e+06
1.03704e+07
1.42161e+07
2.82706e+07
2.9777e+07
3.45267e+07
3.452e+07
4.12545e+07
2.03178e+07
6.41334e+07
6.41214e+07
1.56087e+07
4.01438e+07
4.01498e+07
1.22811e+07
4.05062e+07
4.04946e+07
7.30386e+07
7.30551e+07
4.7253e+07
4.72658e+07
4.61435e+07
2.70186e+07
2.69817e+07
4.52681e+07
4.88523e+07
4.88654e+07
3.22677e+07
1.99232e+07
1.58593e+07
4.80629e+07
1.9958e+07
9.57897e+06
2.36365e+07
7.58576e+07
3.92117e+07
3.92038e+07
3.57531e+07
4.01221e+07
4.01163e+07
3.39675e+07
5.68506e+07
5.68588e+07
1.20156e+07
6.37049e+06
4.08263e+07
4.08343e+07
7.6636e+07
7.66244e+07
5.87681e+07
2.02714e+07
3.1351e+07
6.11497e+07
6.11392e+07
8.655e+07
8.65383e+07
2.87788e+07
2.22404e+07
1.11228e+07
1.14976e+07
2.82787e+07
2.82559e+07
3.53198e+07
212272
385690
387688
213379
2.19455e+07
2.47531e+06
2.47915e+06
4.53139e+07
4.53264e+07
2.82263e+07
2.82362e+07
4.12554e+07
4.12436e+07
1.35887e+07
5.07084e+07
5.0702e+07
4.5305e+07
2.26855e+07
4.73408e+07
4.73465e+07
2.72998e+07
5.69952e+07
5.69857e+07
3.57964e+07
2.57454e+07
5.54802e+07
4.52327e+07
4.52451e+07
5.46175e+07
6.83294e+06
5.59334e+06
2.69222e+07
7.27831e+07
7.2794e+07
2.12316e+07
3.91273e+07
9.49659e+07
9.49783e+07
485200
487589
4.86574e+07
4.86522e+07
4.23662e+07
7.44683e+06
9.70456e+07
9.70343e+07
2.5304e+07
3.94181e+07
1.44614e+07
1.97988e+07
3.41103e+07
3.12978e+07
1.81081e+07
3.09882e+06
1.24783e+07
5.32196e+07
3.19324e+07
5.00006e+07
4.76519e+07
2.55394e+07
2.12235e+07
559583
558356
5.66058e+07
5.65974e+07
3.40793e+07
3.04986e+06
2.1889e+07
8.22294e+06
4.37792e+07
4.70217e+07
3.92421e+07
5.55718e+06
3.01156e+07
3.34889e+07
1.23447e+07
2.56297e+07
2.56193e+07
3.52997e+07
6.16331e+07
7.76452e+06
3.11307e+07
7.48919e+07
7.48805e+07
8.43351e+07
8.43465e+07
496739
494085
5.21422e+06
1.73855e+07
2.39308e+07
9.32731e+06
3.60645e+07
3.6063e+07
2.65998e+07
1.17057e+07
1.1707e+07
8.90037e+07
8.90154e+07
7.00974e+07
6.51783e+07
6.51682e+07
2.07051e+07
5.58737e+07
3.51544e+07
2.12669e+07
5.54638e+07
7.19317e+06
7.3002e+07
7.29904e+07
2.99684e+07
7.84749e+06
8.76693e+07
8.76511e+07
2.96384e+07
7.94556e+07
2.23048e+07
7.94661e+07
2.19275e+07
2.19321e+07
4.00375e+07
2.86724e+07
4.22142e+07
1.88036e+07
4.20615e+07
1.79343e+07
7.37548e+07
1.27455e+07
2.70759e+07
2.70701e+07
8.40964e+07
8.41076e+07
2.17175e+07
6.48052e+06
7.11384e+07
7.11494e+07
4.61692e+07
3.84842e+07
3.18626e+07
1.41152e+07
3.49315e+07
3.18508e+07
3.18404e+07
1.24003e+07
3.73315e+07
3.73273e+07
8.30364e+07
8.30479e+07
2.2737e+06
3.2034e+07
6.8568e+06
7.36984e+07
6.03961e+07
6.03782e+07
3.17939e+07
1.05266e+07
2.3235e+07
5.00674e+07
2.08402e+07
2.74689e+07
1.29325e+07
2.93821e+07
3.52896e+07
8.46886e+07
8.46772e+07
6.82091e+07
6.8191e+07
5.55021e+07
5.45582e+07
1.18476e+07
1.56189e+07
8.20687e+07
8.20571e+07
5.79325e+07
5.26604e+07
3.11523e+06
2.16919e+07
6.82732e+06
5.91924e+06
5.91777e+06
2.1785e+07
9.0794e+06
8.95764e+07
8.95611e+07
5.28057e+06
2.46605e+07
1.0589e+07
9.9002e+07
9.899e+07
2.94439e+07
2.94495e+07
3.18029e+07
2.43894e+07
2.43996e+07
1.28913e+07
6.72632e+06
6.77829e+06
8.5809e+06
7.64273e+07
7.64158e+07
1.27655e+07
4.11145e+07
4.11269e+07
8.61869e+07
8.61753e+07
2.61719e+07
2.58352e+07
5.29299e+07
5.29167e+07
8.67612e+07
8.6778e+07
9.31819e+06
5.41585e+07
8.92373e+07
8.92211e+07
5.67785e+07
6.22411e+06
4.78055e+07
4.77935e+07
6.7671e+07
6.76591e+07
4.4334e+07
7.33785e+07
7.33896e+07
9.41526e+07
9.41638e+07
4.43364e+07
2.35631e+07
3.34387e+07
1.5933e+07
5.91644e+07
5.9152e+07
7.58609e+07
7.7274e+06
6.90486e+06
7.58689e+07
2.14116e+07
3.44275e+07
3.38873e+07
3.73158e+07
3.73108e+07
6.70717e+06
1.14128e+07
4.08861e+07
6.04024e+07
6.04238e+07
2.43493e+07
2.55005e+06
684392
684923
2.80393e+07
3.13661e+07
2.84632e+07
8.76622e+07
8.76475e+07
4.65426e+07
4.17538e+07
4.58966e+07
2.63171e+07
5.29545e+07
5.29407e+07
5.4267e+07
2.00666e+07
4.65775e+07
3.01785e+07
3.03223e+07
4.58968e+07
5.02989e+07
4.83027e+07
4.82912e+07
7.50715e+07
7.50829e+07
4.89911e+07
1.60263e+07
3.18668e+07
6.97306e+07
6.97131e+07
6.67079e+07
6.67196e+07
1.65246e+07
2.63278e+07
5.95873e+07
5.95749e+07
3.53069e+07
1.09662e+07
1.09644e+07
2.77073e+07
2.77842e+07
7.60116e+07
4.59332e+07
4.82721e+07
5.74133e+07
3.03962e+07
3.22702e+07
1.16232e+07
8.64619e+07
8.64504e+07
7.47696e+06
1.39878e+07
1.45748e+07
3.36272e+07
1.574e+07
2.13417e+07
5.62375e+06
3.25312e+07
2.63366e+07
1.76684e+07
1.37546e+07
2.82877e+07
2.23383e+07
6.94327e+07
1.83507e+07
1.81072e+07
1.52738e+07
1.52748e+07
2.77221e+07
1.22619e+07
1.22599e+07
2.3461e+07
1.23012e+07
5.0872e+07
5.08666e+07
2.9429e+07
9.31464e+06
9.31198e+06
2.49254e+07
1.55247e+07
2.77734e+07
3.51135e+07
3.77796e+07
2.6223e+07
8.06746e+07
2.94308e+07
2.76478e+07
4.56073e+07
3.07764e+07
3.07662e+07
1.1216e+07
1.28135e+07
2.9842e+06
2.98696e+06
4.0485e+07
4.58224e+06
3.31582e+07
2.48807e+07
3.11762e+07
3.11784e+07
5.61263e+07
9.65721e+06
2.92782e+07
1.5046e+06
1.50473e+06
3.15896e+07
2.20346e+07
1.67474e+07
5.12767e+06
1.88449e+07
5.51341e+07
2.68089e+07
4.15702e+07
3.24753e+07
3.24818e+07
6.44191e+07
5.00646e+07
1.3418e+07
1.4534e+07
3.77324e+07
5.83067e+07
5.8324e+07
7.52739e+06
2.41035e+07
6.19254e+07
1.58401e+07
1.58414e+07
3.33162e+07
2.24654e+07
3.40085e+07
7.50475e+07
7.50591e+07
1.35697e+07
3.62639e+07
3.62481e+07
5.32667e+07
5.32546e+07
2.55949e+07
3.28478e+07
974235
974657
2.45302e+07
2.74939e+06
1.13687e+07
8.38463e+07
8.38347e+07
1.08331e+07
9.63952e+07
9.63756e+07
8.62512e+06
4.09936e+07
1.26284e+07
5.72323e+07
2.24463e+07
1.00936e+07
5.72514e+07
6.03487e+07
6.67052e+06
2.41278e+07
3.40331e+07
3.40411e+07
3.20281e+07
3.28034e+07
5.40343e+07
2.42965e+07
3.67882e+07
8.73327e+06
8.5503e+06
1.31748e+07
1.85013e+07
5.51993e+06
9.40889e+06
2.1492e+07
7.83801e+06
1.23801e+07
3.55795e+07
2.01818e+07
4.56766e+07
3.38286e+07
1.99905e+07
5.63687e+07
5.25505e+07
6.43485e+07
6.43626e+07
2.02259e+07
7.71606e+06
3.06302e+07
3.06306e+07
6.42663e+07
6.42543e+07
2.24195e+07
9.62154e+06
4.53397e+07
7.74657e+06
7.74936e+06
8.16576e+07
8.16462e+07
7.5327e+06
1.6015e+07
2.96169e+07
1.76856e+07
7.1567e+06
2.09234e+07
9.44248e+06
9.03336e+06
5.60246e+07
4.9234e+07
4.92282e+07
2.8422e+07
2.84807e+07
1.58345e+07
1.34156e+07
8.17251e+07
8.17136e+07
1.82564e+07
1.33633e+07
2.98048e+07
1.26468e+07
5.12619e+07
2.25606e+07
2.0056e+07
1.67786e+07
6.14284e+07
9.99794e+06
1.98538e+07
7.29524e+07
5.13443e+07
5.13378e+07
6.47092e+07
1.24883e+07
3.35301e+07
2.69625e+07
2.80632e+07
7.1174e+07
7.11192e+07
2.68406e+07
7.44974e+07
9.19711e+06
9.19706e+06
1.15073e+07
1.1507e+07
2.51051e+07
3.07156e+07
2.80947e+07
8.43548e+07
7.98899e+07
7.99087e+07
1.56571e+07
1.56468e+07
2.13874e+07
8.64633e+07
8.64516e+07
3.45374e+07
3.4304e+07
8.73976e+06
357897
356026
2.74804e+07
1.71174e+07
6.88723e+07
1.8391e+07
7.76442e+07
7.76585e+07
2.85341e+07
6.61014e+07
6.56584e+07
2.52185e+07
1.67254e+07
2.56032e+06
2.92619e+07
2.92667e+07
8.12023e+07
8.1214e+07
1.44357e+07
3.39301e+07
3.39198e+07
7.46447e+07
7.46563e+07
1.53448e+07
4.15745e+07
3.45228e+07
1.4457e+07
3.08084e+07
3.08004e+07
2.67935e+07
1.97073e+07
5.96679e+07
5.04352e+06
3.44516e+07
3.4462e+07
3.57777e+07
1.6386e+07
7.07089e+07
6.94019e+07
6.93902e+07
5.32434e+07
6.70793e+06
2.73416e+07
2.74917e+07
9.13809e+07
9.13624e+07
3.81014e+07
5.58076e+07
5.57984e+07
3.68058e+07
5.89095e+07
4.73126e+07
4.73082e+07
2.87733e+07
2.16004e+07
5.42326e+06
3.8985e+06
4.38336e+07
1.56523e+07
1.15642e+07
442936
440075
5.89407e+07
1.20102e+07
1.2008e+07
6.98987e+07
6.98809e+07
4.67521e+06
8.72072e+07
8.71897e+07
6.56638e+07
6.56777e+07
9.27032e+07
9.27141e+07
2.42592e+07
8.526e+07
8.52486e+07
8.02244e+06
2.96699e+07
3.10026e+06
2.57325e+07
1.93955e+07
2.60832e+07
6.6564e+07
6.65547e+07
2.06325e+07
2.06457e+07
1.69384e+07
3.21087e+06
9.85185e+06
5.41459e+07
1.03392e+07
3.95465e+07
5.87061e+07
2.1123e+07
1.22668e+07
7.35665e+06
7.35836e+06
5.46537e+07
3.41736e+07
5.4027e+07
3.5076e+07
1.64409e+07
1.4268e+07
3.23611e+07
3.23391e+07
3.25502e+07
2.01255e+07
3.11261e+07
3.10478e+07
1.37068e+07
4.23084e+07
8.30046e+07
3.96376e+07
3.96416e+07
5.854e+07
2.84056e+07
3.14001e+07
3.56831e+07
3.93687e+07
8.3017e+07
3.57007e+07
4.65211e+07
3.77394e+07
2.01159e+07
3.26381e+07
1.20104e+07
2.98127e+07
2.3056e+07
1.80071e+07
7.8156e+06
1.91965e+07
3.1749e+07
3.13817e+07
2.14853e+07
6.73289e+07
6.7317e+07
4.86681e+07
2.16376e+07
1.22667e+07
1.60065e+07
5.73722e+07
5.19014e+07
5.98692e+06
6.90286e+07
2.43523e+07
1.10439e+07
5.1927e+07
3.09355e+07
4.46443e+07
1.89638e+07
1.00308e+07
5.2709e+07
5.19322e+07
3.60141e+07
826779
823281
5.89356e+07
6.3389e+07
6.34071e+07
7.48607e+06
7.08647e+07
7.08503e+07
2.02125e+07
3.03735e+07
3.03636e+07
3.84691e+07
1.05062e+06
9.63868e+06
8.932e+07
8.93082e+07
7.88781e+06
6.8814e+07
7.49088e+07
2.72939e+07
6.95859e+07
6.95685e+07
3.66976e+07
1.1333e+07
9.91553e+06
6.37355e+07
3.16414e+07
3.16338e+07
520621
518015
8.27261e+06
2.11911e+07
5.21282e+07
5.21147e+07
7.16869e+07
7.16761e+07
6.29398e+07
1.38361e+07
2.66277e+07
6.52757e+07
6.52659e+07
6.5197e+06
838261
841514
6.60714e+07
6.60503e+07
7.2032e+07
7.20429e+07
7.01393e+07
8.12596e+07
8.12479e+07
5.27494e+07
5.27367e+07
3.95899e+07
1.86112e+07
7.56755e+07
7.46293e+07
2.99066e+07
6.60693e+06
7.46228e+07
1.26416e+07
3.52281e+07
4.17318e+07
4.46611e+07
2.70071e+07
7.77471e+07
7.77357e+07
1.83402e+07
6.76532e+07
6.76678e+07
8.16075e+07
8.15954e+07
2.91789e+07
5.17084e+07
5.17159e+07
3.18063e+07
3.18052e+07
3.28777e+07
3.02016e+07
3.01965e+07
3.37384e+07
8.43317e+07
8.43429e+07
2.1707e+07
1.48403e+07
3.36989e+07
1.93887e+07
2.58955e+07
2.58073e+07
1.31365e+07
3.2612e+07
1.94681e+07
2.60753e+07
259948
261664
9.07715e+07
9.07841e+07
1.36226e+07
2.34971e+07
9.21269e+07
9.21082e+07
3.5739e+07
2.78442e+07
1.7787e+07
5.44541e+07
5.48938e+07
3.03583e+07
6.41179e+06
5.73744e+07
9.52651e+06
8.97981e+07
8.9815e+07
3.48965e+07
3.49054e+07
5.22377e+07
5.22504e+07
2.41503e+06
2.4053e+06
1.57493e+07
5.29381e+07
1.11834e+07
3.01051e+07
2.78164e+07
1.75041e+07
4.74378e+06
4.747e+06
1.57276e+07
3.91349e+06
2.78862e+07
3.39527e+07
3.39637e+07
2.60591e+07
5.47625e+06
4.05055e+07
5.47762e+07
5.47668e+07
3.15994e+07
2.08092e+07
5.85547e+07
5.85671e+07
2.5415e+07
5.42229e+07
5.42301e+07
4.86086e+07
2.49586e+07
2.97393e+07
1.7728e+07
2.08728e+07
2.08699e+07
7.55611e+07
1.56971e+07
4.77533e+07
4.77431e+07
4.8923e+06
4.18876e+07
4.18759e+07
8.25565e+06
6.09586e+07
6.09489e+07
3.25577e+07
3.25681e+07
5.18069e+06
2.1301e+07
2.13161e+07
6.4479e+07
6.44911e+07
4.02061e+07
2.14927e+07
4.02338e+07
4.48153e+07
4.4803e+07
4.00186e+07
1.33849e+07
3.19261e+07
3.1954e+07
1.03092e+07
8.34015e+07
8.33814e+07
1.1557e+07
5.15016e+07
8.25513e+07
8.254e+07
936656
936628
1.03157e+07
6.92122e+07
6.92017e+07
9.18897e+06
3.19087e+07
3.18893e+07
7.12491e+06
7.12544e+06
1.39684e+07
3.03515e+07
8.28692e+07
8.28494e+07
9.48657e+07
9.48791e+07
2.97954e+07
1.31273e+07
1.3753e+07
1.3753e+07
2.18305e+07
268552
267079
8.83466e+07
8.83577e+07
2.34162e+07
1.84136e+07
1.841e+07
1.05033e+07
7.18045e+07
7.18153e+07
1.76713e+07
2.00307e+07
8.22264e+07
8.22382e+07
7.77771e+07
7.77953e+07
2.1901e+07
1.71134e+07
5.50935e+07
2.66174e+07
1.72452e+07
8.66328e+06
2.79056e+07
2.90496e+07
3.64741e+07
3.67202e+07
6.60487e+07
6.60607e+07
8.2473e+07
8.24615e+07
6.61572e+07
3.50909e+07
9.85558e+06
2.03214e+07
7.82184e+07
3.43817e+07
5.39634e+07
5.01008e+07
5.46019e+07
4.36502e+07
4.36397e+07
3.94546e+07
3.94658e+07
8.93284e+06
1.09642e+07
3.03308e+07
1.38317e+07
1.65475e+07
2.68952e+07
2.90908e+07
1.23512e+07
3.41682e+07
3.41542e+07
1.06219e+07
3.75039e+07
3.7516e+07
1.53047e+07
9.22222e+07
9.22434e+07
7.86219e+07
7.86361e+07
1.7943e+07
5.52662e+07
5.52743e+07
1.00777e+08
1.00764e+08
6.24546e+07
6.24453e+07
4.77754e+07
4.77624e+07
7.36524e+07
1.63772e+07
2.25684e+07
1.12856e+07
3.57848e+07
3.57947e+07
5.62403e+07
5.62484e+07
2.1114e+07
2.10918e+07
1.64906e+07
9.52257e+07
9.52141e+07
3.48774e+07
4.88967e+07
4.89931e+07
2.73444e+07
3.47248e+07
5.13004e+07
1.54351e+07
2.92473e+07
2.91979e+07
7.03231e+06
3.62711e+07
3.31217e+07
3.65497e+06
3.65913e+06
6.22888e+07
1.28054e+07
1.3771e+07
1.78046e+07
4.41492e+07
7.21127e+07
1.77059e+07
2.18964e+07
2.18896e+07
7.02053e+07
7.01934e+07
4.28349e+07
4.28228e+07
2.03919e+07
1.81644e+07
1.69473e+07
1.37674e+07
1.63266e+07
6.10893e+07
2.25982e+07
2.49319e+07
9.90332e+06
6.85533e+07
6.85298e+07
6.90479e+06
6.90893e+06
1.86566e+07
1.66373e+07
4.68128e+07
4.68204e+07
5.08124e+07
5.07987e+07
8.83691e+07
8.83572e+07
2.09457e+07
1.16063e+07
1.14739e+07
5.6634e+06
6.4217e+07
6.50036e+07
7.86281e+07
7.86398e+07
3.58303e+07
3.75006e+06
5.79892e+07
5.79714e+07
3.785e+07
3.77199e+07
2.79763e+07
1.24739e+07
3.66589e+07
1.84469e+07
2.7313e+07
2.72283e+07
5.38961e+07
5.38845e+07
5.31714e+07
7.7167e+07
7.71551e+07
6.68539e+07
6.68357e+07
7.25488e+07
2.77318e+07
2.76858e+07
2.57598e+07
2.57706e+07
1.34881e+07
2.09371e+07
3.78673e+07
3.06435e+07
3.06586e+07
1.3667e+07
1.36669e+07
2.07392e+07
3.725e+07
4.9618e+07
4.96251e+07
4.28032e+07
1.94442e+07
9.32667e+07
9.32802e+07
1.87859e+07
5.04025e+07
6.39012e+07
2.02706e+07
5.25863e+07
6.13061e+07
6.13153e+07
2.18226e+07
6.58693e+07
6.58593e+07
2.1759e+07
2.09549e+07
5.26001e+07
4.6295e+07
4.63024e+07
2.48498e+07
2.52312e+07
4.8259e+06
8.05389e+07
8.05272e+07
9.92798e+06
1.42495e+07
4.36678e+07
4.36566e+07
2.93814e+07
2.91013e+07
2.88849e+07
1.03125e+07
4.12568e+06
4.06014e+06
4.32048e+07
4.31944e+07
1.87863e+07
1.29791e+07
3.05535e+07
5.73192e+07
5.86457e+06
1.43711e+07
4.85698e+06
6.16207e+06
2.82889e+07
6.89294e+07
2.25562e+07
7.13877e+07
7.13705e+07
3.03392e+07
4.44558e+06
4.44911e+06
6.82557e+07
6.82418e+07
2.35332e+07
7.38865e+07
7.39028e+07
2.96863e+07
6.76186e+07
1.12748e+07
2.13466e+06
2.13293e+06
9.88969e+06
5.83319e+07
5.83432e+07
3.60436e+07
5.72977e+06
3.65367e+07
1.91345e+07
6.61512e+07
3.19004e+07
2.23931e+07
2.24079e+07
4.63953e+07
4.63826e+07
3.50676e+07
1.68031e+07
2.88903e+07
6.41148e+07
6.41248e+07
9.77827e+06
8.27074e+06
8.26899e+06
2.59053e+06
8.29022e+07
8.29136e+07
1.24487e+07
1.83786e+07
2.74634e+07
2.53298e+07
2.53341e+07
3.60718e+07
3.60582e+07
2.52201e+07
3.0508e+07
4.04431e+07
4.02714e+07
4.93211e+07
3.33506e+07
5.06065e+07
6.46869e+06
6.27379e+07
2.06859e+07
2.99008e+07
2.98785e+07
8.18376e+06
2.15457e+07
2.15385e+07
6.73799e+07
6.73775e+07
5.55761e+07
7.65273e+07
5.4573e+06
1.43715e+07
2.93277e+07
6.97371e+06
6.34773e+07
6.11566e+07
4.21784e+07
2.61846e+07
3.5117e+07
1.28475e+07
3.47905e+07
4.24579e+07
4.24676e+07
3.98508e+07
3.98403e+07
5.42466e+07
5.52478e+07
2.62709e+07
3.92241e+07
3.92375e+07
7.0224e+06
4.63778e+07
4.63946e+07
6.47663e+07
6.47761e+07
1.57522e+07
4.72525e+07
1.04436e+07
3.51549e+07
6.21874e+07
258205
259994
3.01476e+07
1.77866e+07
2.04454e+07
1.57226e+07
9.6622e+06
3.24999e+07
3.24903e+07
5.22046e+07
5.22114e+07
3.00731e+07
6.614e+07
8.49074e+07
8.48959e+07
4.57177e+07
4.57226e+07
2.7392e+07
2.19535e+07
2.22816e+07
2.74513e+07
4.89179e+07
4.92003e+07
1.92885e+07
4.39465e+07
4.40242e+07
4.72614e+07
4.72742e+07
4.6476e+07
3.12698e+07
3.12596e+07
3.00139e+07
2.99859e+07
3.80424e+07
2.44452e+07
2.44583e+07
1.42567e+07
2.02028e+07
5.29521e+06
2.14353e+07
2.81804e+07
9.75397e+06
9.75533e+06
2.36789e+07
2.82036e+07
5.12462e+07
5.12581e+07
1.97607e+07
2.86274e+07
2.95269e+07
3.40256e+07
3.92951e+07
3.92842e+07
3.60166e+07
8.24192e+07
8.24356e+07
3.26455e+07
3.49064e+07
1.5636e+07
5.47099e+07
4.3844e+07
4.38378e+07
1.61254e+07
4.05662e+07
3.3532e+07
7.58686e+07
7.588e+07
5.03129e+07
5.02947e+07
2.30054e+07
2.43222e+07
2.27587e+07
1.63789e+07
2.26405e+07
2.04774e+07
2.73414e+07
2.53507e+07
4.28702e+06
6.55585e+06
5.26901e+07
5.26972e+07
9.0222e+06
8.67565e+07
5.812e+07
5.81288e+07
5.59341e+07
3.51057e+07
3.34806e+07
2.73204e+07
3.51278e+07
8.0467e+07
8.04781e+07
1.19241e+07
3.76215e+07
5.51659e+07
5.51739e+07
3.16466e+07
2.96115e+07
4.80825e+07
82066.3
80951
2.84044e+07
7.05297e+07
7.05141e+07
2.93858e+07
1.08301e+07
2.47128e+07
5.71397e+07
4.63919e+07
2.71417e+06
8.67402e+07
1.37468e+06
1.37389e+06
1.99966e+07
4.10221e+07
1.29909e+07
1.00532e+06
1.0057e+06
3.37722e+07
5.04395e+07
5.0448e+07
8.96836e+07
8.96679e+07
4.59361e+07
4.59485e+07
3.35394e+07
3.21284e+06
3.21472e+06
3.41074e+07
1.79156e+07
2.51363e+07
4.80579e+06
2.86341e+07
2.68417e+07
6.38298e+07
6.38469e+07
5.83442e+07
5.83555e+07
9.19232e+06
2.91791e+07
7.81901e+07
1.89324e+07
3.88786e+07
1.29164e+06
3.67228e+07
3.81147e+07
9.47761e+07
9.47557e+07
6.09851e+07
2.28234e+07
4.59758e+07
4.59929e+07
1.07141e+07
2.75177e+06
2.54713e+06
2.76461e+07
100579
99589.2
1.61742e+07
1.05668e+07
1.05664e+07
8.66194e+06
7.62687e+07
7.62817e+07
1.32795e+07
3.06006e+07
4.55926e+07
3.06339e+07
6.36778e+07
6.36315e+07
1.45302e+07
2.12463e+07
3.14993e+07
6.60341e+06
7.59693e+07
7.59827e+07
4.09378e+07
4.10614e+07
7.92698e+07
1.25607e+07
9.56166e+07
9.56319e+07
3.33819e+07
3.33713e+07
2.75638e+07
6.36717e+07
9.82053e+06
4.58076e+07
4.58119e+07
8.61555e+07
8.61441e+07
3.53848e+06
8.02426e+06
3.43366e+07
7.46089e+07
2.75829e+07
1.78883e+07
5.40397e+07
5.4048e+07
1.35852e+07
2.40393e+07
3.31895e+07
5.54509e+07
1.39464e+07
3.2697e+07
5.09159e+07
5.09041e+07
7.06624e+07
8.49395e+07
8.4951e+07
794648
790931
4.09074e+07
3.04467e+07
8.7306e+07
3.71635e+07
4.59932e+07
4.6001e+07
4.67489e+07
3.03737e+07
6.48911e+07
2.75816e+07
1.57142e+07
9.00607e+07
9.00724e+07
5.98538e+07
6.07572e+07
6.07717e+07
9.60008e+07
9.60161e+07
8.72875e+07
312742
311033
2.83466e+07
9.36293e+07
9.36407e+07
4.69471e+07
4.69589e+07
1.31144e+07
1.31137e+07
4.60605e+07
1.52591e+07
6.71945e+07
6.71824e+07
1.35055e+07
1.98169e+07
5.31267e+07
5.31181e+07
3.4576e+07
2.59435e+07
6.84645e+07
6.8454e+07
2.88062e+07
1.37893e+07
1.37855e+07
4.89003e+07
1.14693e+07
2.51454e+07
9.65996e+07
9.65793e+07
6.60417e+07
4.39001e+07
4.38902e+07
3.43205e+07
3.43313e+07
7.46496e+06
7.46537e+06
1.61881e+07
5.83621e+07
8.99059e+06
8.99235e+06
5.08677e+07
5.08796e+07
1.64138e+07
1.02103e+07
2.51366e+07
4.67575e+07
1.37047e+07
9.70646e+06
7.15105e+07
7.14938e+07
6.23739e+07
6.23638e+07
1.01179e+08
1.01193e+08
2.78261e+07
2.97976e+07
2.966e+07
6.11233e+07
6.11122e+07
2.25681e+07
1.08615e+06
1.09134e+06
1.42306e+07
4.98932e+07
3.13065e+07
3.1311e+07
7.65051e+07
2.01162e+07
4.0548e+07
8.47283e+07
8.47395e+07
2.66597e+07
2.90594e+07
2.90967e+07
4.87111e+06
2.32105e+07
4.30436e+06
4.81986e+07
5.87812e+07
5.87986e+07
8.07331e+06
2.43955e+07
8.34941e+07
4.7797e+07
4.78098e+07
1.58422e+07
6.25818e+07
6.25717e+07
6.79879e+06
1.99369e+07
1.99761e+07
6.16148e+06
1.61496e+07
7.95921e+06
6.5282e+07
6.52941e+07
6.34302e+07
6.34141e+07
1.17264e+07
7.89901e+07
7.90016e+07
7.81687e+06
1.41944e+07
7.82103e+06
2.60387e+07
2.60444e+07
2.73204e+07
2.67831e+07
1.56648e+07
4.68731e+06
2.76469e+07
2.49168e+07
6.32158e+07
6.31984e+07
2.21704e+07
2.60782e+07
5.30123e+07
2.0275e+07
7.2883e+07
5.91306e+07
2.0488e+07
2.13968e+07
7.07332e+06
1.27737e+07
8.69889e+07
8.70009e+07
8.61592e+07
8.61708e+07
4.30182e+06
3.43359e+06
3.44128e+06
3.56789e+07
2.1538e+07
2.76668e+07
3.82979e+06
1.04411e+07
6.54426e+07
7.02741e+06
3.22171e+06
8.78563e+07
8.7868e+07
2.31468e+07
2.01685e+07
6.96894e+07
3.61964e+07
3.61852e+07
5.98976e+07
7.25067e+07
1.6331e+07
5.12067e+07
2.16492e+07
4.49207e+07
8.88359e+06
6.58867e+06
1.89012e+07
1.99631e+07
9.17864e+07
9.17977e+07
3.79065e+06
3.80115e+06
2.41113e+07
4.25612e+06
4.372e+07
4.36862e+07
1.92013e+07
2.36417e+07
2.41738e+07
4.9318e+07
4.93275e+07
7.0021e+07
6.76494e+06
3.85859e+07
2.73377e+07
7.95677e+06
5.6e+07
1.11672e+07
3.36046e+07
3.21917e+06
3.88923e+06
2.30683e+07
4.36978e+06
1.97659e+07
4.14706e+07
8.76538e+07
8.76423e+07
3.80781e+07
3.80824e+07
2.39817e+07
2.39865e+07
1.17113e+07
4.83955e+07
3.40021e+07
3.33263e+07
3.33352e+07
6.8821e+07
2.72589e+07
3.83329e+06
3.40823e+07
3.05446e+07
1.98848e+07
1.38134e+07
3.37234e+06
3.36362e+06
3.24374e+07
3.24528e+07
9.35288e+06
9.35251e+06
5.19708e+07
4.29804e+07
2.54537e+07
2.20791e+07
2.74313e+07
2.10048e+07
781963
2.51739e+06
5.37262e+06
2.47627e+07
4.27099e+07
1.15876e+07
9.91877e+06
3.83255e+07
6.33246e+07
6.33387e+07
4.02038e+07
1.42797e+07
9.31957e+06
6.64981e+07
6.64859e+07
5.77305e+07
5.77207e+07
2.84081e+07
1.41928e+07
2.32921e+07
2.68997e+07
2.71058e+07
2.51832e+07
2.66809e+07
8.70073e+06
2.61973e+07
1.69283e+07
1.65201e+07
8.91251e+06
1.98177e+07
2.16663e+06
2.14782e+06
1.13373e+07
3.78757e+07
5.35049e+07
1.29222e+07
3.7076e+07
3.70712e+07
7.70404e+07
4.30638e+07
4.30532e+07
1.38884e+06
1.38159e+06
3.04689e+07
6.18538e+07
6.1844e+07
5.89643e+06
3.35371e+07
2.03972e+07
1.00864e+07
1.76351e+07
1.76099e+07
5.25418e+07
5.25507e+07
1.87199e+07
8.24446e+06
3.78338e+07
7.74596e+07
7.74427e+07
6.20761e+07
6.20671e+07
8.684e+06
3.76634e+07
3.76693e+07
2.84299e+07
2.55544e+07
7.35794e+07
7.35913e+07
1.34859e+07
2.71408e+07
3.11559e+07
1.02007e+07
33970
34778.3
4.73278e+07
4.73372e+07
4.05809e+07
4.05933e+07
8.06596e+06
8.06714e+06
2.21348e+07
3.84383e+06
3.84839e+06
4.5954e+07
6.40441e+07
3.00865e+07
4.42062e+07
4.41953e+07
5.30565e+06
5.39427e+07
6.29075e+06
1.8414e+07
5.89443e+07
4.79082e+07
4.79212e+07
2.60556e+07
1.71381e+07
5.82286e+07
8.53867e+07
8.54049e+07
5.32536e+07
6.17328e+07
6.17112e+07
3.79133e+07
3.79067e+07
17133.4
16780.6
2.53029e+07
3.09405e+07
1.7087e+07
8.3211e+07
2.81435e+07
3.1216e+07
2.52809e+07
2.52878e+07
8.14784e+07
8.14667e+07
2.01578e+07
7.37231e+07
7.37116e+07
3.35534e+07
3.97504e+07
3.97574e+07
7.1925e+07
3.21479e+07
6.76894e+07
6.76995e+07
6.46892e+07
3.08105e+07
4.20591e+07
2.50018e+07
2.61607e+07
5.32771e+07
5.3286e+07
2.55083e+07
2.55061e+07
2.07904e+07
4.61729e+06
7.04006e+07
2.68308e+07
7.2145e+06
3.85478e+07
3.86973e+07
1.47931e+07
9.42577e+07
9.42691e+07
6.49106e+07
6.49203e+07
8.10307e+06
1.4021e+07
1.40878e+07
8.24654e+07
5.79108e+07
3.96197e+07
7.54826e+06
7.48764e+07
2.89039e+07
7.89345e+07
5.94812e+06
8.13126e+06
1.77258e+07
2.35327e+07
4.28712e+07
4.36157e+07
4.36051e+07
5.80487e+06
9.76889e+07
9.77049e+07
4.94863e+07
4.94728e+07
3.00979e+07
2.26107e+07
1.16748e+07
1.17273e+07
4.83829e+07
7.71668e+07
7.71549e+07
5.16147e+07
1.79449e+07
1.57598e+07
1.16668e+07
958263
954958
8.0512e+07
4.39119e+06
5.17943e+07
5.17881e+07
2.76711e+07
2.76804e+07
1.94843e+07
1.94996e+07
4.22767e+07
4.28888e+07
4.96726e+06
4.23244e+07
8.77352e+06
3.03368e+07
3.03907e+07
4.33099e+07
2.90945e+07
2.91022e+07
3.31291e+07
6.07902e+07
6.08003e+07
1.19459e+07
2.02744e+07
1.95859e+07
2.41468e+07
1.80974e+07
1.00584e+07
2.69323e+07
8.16499e+07
8.16615e+07
3.6331e+07
3.60175e+07
3.60292e+07
9.88253e+07
9.88385e+07
3.38228e+07
2.0951e+07
5.22635e+07
5.22709e+07
1.92513e+07
3.3638e+07
1.41614e+07
3.06695e+07
1.75185e+07
5.69176e+07
3.36633e+07
3.36546e+07
1.13779e+07
1.23642e+07
1.2366e+07
9.39942e+07
9.40051e+07
3.6301e+07