/*--------------------------------*- C++ -*----------------------------------*\
| =========                 |                                                 |
| \\      /  F ield         | OpenFOAM: The Open Source CFD Toolbox           |
|  \\    /   O peration     | Version:  v3.0+                                 |
|   \\  /    A nd           | Web:      www.OpenFOAM.com                      |
|    \\/     M anipulation  |                                                 |
\*---------------------------------------------------------------------------*/
FoamFile
{
    version     2.0;
    format      ascii;
    class       volScalarField;
    location    "15000";
    object      sigmaxx;
}
// * * * * * * * * * * * * * * * * * * * * * * * * * * * * * * * * * * * * * //

dimensions      [1 -1 -2 0 0 0 0];

internalField   nonuniform List<scalar> 
27023
(
-1.98085e+07
1.98114e+07
1.27528e+07
-1.27504e+07
-2.00146e+07
2.00176e+07
1.08068e+08
-1.08063e+08
4.78777e+06
-4.78206e+06
7.81854e+07
-7.81763e+07
860982
-880006
-3.12856e+07
2.5504e+06
1.72188e+06
-6.70433e+07
6.70451e+07
4.9146e+07
-4.91457e+07
1.07444e+08
-1.07438e+08
5.49704e+07
-5.49699e+07
8.63753e+06
-3.84451e+07
4.08221e+06
-3.79376e+07
3.73199e+07
1.79375e+07
4.9193e+07
-4.91937e+07
-5.00136e+07
-3.09718e+07
3.88678e+07
4.47867e+07
-4.47831e+07
4.58789e+06
-4.58561e+06
-1.27259e+07
1.27286e+07
-2.52824e+07
-1.90751e+07
1.90781e+07
6.61572e+07
-6.61554e+07
5.20028e+07
-5.20019e+07
3.44269e+07
5.01755e+07
-5.01753e+07
-4.87852e+07
497.096
-493.537
5.49556e+07
2.29927e+07
4.0886e+07
-1.8638e+07
1.21473e+07
-1.21451e+07
3.38881e+07
5.23164e+06
6.06428e+06
-2.45599e+07
1.59252e+07
4.37341e+07
1.07027e+07
-3.89727e+07
-2.35861e+07
4.28848e+07
-4.2881e+07
7.4889e+07
-7.48872e+07
9.96936e+07
-9.96924e+07
179388
-177221
-1.17507e+08
1.1751e+08
-2.92007e+07
7.5549e+07
-7.55396e+07
7.29556e+07
-7.2954e+07
-1.05851e+08
1.05852e+08
-4.35966e+07
4.20072e+06
-1.97206e+07
1.88944e+07
2.48309e+07
-2.4828e+07
2.18337e+07
-8.85923e+06
-5.51231e+07
5.51174e+07
-2.91299e+07
-1.96504e+07
935261
-3.21124e+07
-2.01012e+07
2.04319e+07
8.77339e+07
-8.77304e+07
3.53315e+06
9.80895e+07
-9.80858e+07
5.42442e+07
3.82389e+07
2.3366e+07
9.84123e+07
-9.84089e+07
5.43922e+07
-5.43924e+07
1.0055e+08
-1.00549e+08
2.41637e+07
-3.96822e+07
-2.96062e+07
2.4033e+07
2.51792e+06
-8.13709e+07
8.13812e+07
1.16402e+08
-1.16397e+08
2.44031e+07
-2.44001e+07
8.91837e+07
-8.918e+07
-1.80461e+07
-2.12215e+06
2.15694e+06
-1.68399e+07
2.07485e+07
-1.06125e+08
1.06126e+08
1.022e+07
6.87674e+07
-6.87655e+07
-1.01048e+08
1.01055e+08
-7.13857e+06
1.0452e+08
-1.04514e+08
-1.69303e+07
-1.85694e+07
4.99947e+07
4.45452e+07
4.20087e+07
-4.20041e+07
5.2702e+07
-5.26993e+07
-3.02671e+07
-3.18804e+07
-3.31238e+07
3.30867e+07
3.14444e+07
6.79483e+07
-6.79464e+07
-6.16708e+07
-2.5563e+07
-5.33322e+07
3.67628e+06
-6.28845e+07
6.28913e+07
-9.1742e+07
9.17489e+07
-2.08963e+07
2.1636e+06
5.96501e+06
-1.1822e+08
1.18222e+08
-2.17166e+07
2.16553e+07
-3.38266e+07
2.74009e+06
-6.65846e+06
-2.21976e+07
1.07524e+07
-4.47127e+07
-9.6462e+07
9.6468e+07
-3.35873e+07
-6.12241e+07
-6.51821e+07
-5.22215e+07
5.22173e+07
-5.60165e+07
-1.99877e+07
-9.17217e+07
9.17281e+07
-2.80523e+07
4.72094e+06
1.17156e+08
-1.17152e+08
-6.91862e+07
-8.86473e+07
8.86557e+07
-3.727e+07
3.32734e+07
-3.95563e+07
9.77719e+07
-9.77709e+07
-1.88835e+07
1.88865e+07
-2.50642e+07
-6.81873e+07
9.75611e+07
-9.75601e+07
25618.4
-25453.9
2.12217e+07
-2.67288e+07
-1.1295e+07
1.12985e+07
-3.28667e+07
2.53209e+06
6.98902e+06
-1.04238e+08
1.0424e+08
-1.81728e+07
-8.18568e+07
8.1867e+07
-3.14476e+07
9.1841e+07
-9.18391e+07
7.55473e+07
-7.55454e+07
1.94476e+06
-1.94495e+06
4.9328e+06
9.45715e+07
-9.45696e+07
-6.29232e+07
9.17343e+07
-9.17329e+07
1.01194e+08
3.79088e+07
-1.13686e+08
1.13691e+08
4.0345e+07
6.50448e+07
6.43721e+07
-5.12102e+07
2.36694e+07
299347
-3.50812e+07
5.36663e+07
-5.01244e+07
-1.08636e+08
1.08639e+08
-2.3341e+07
-1.73402e+07
-6.86199e+07
-6.9395e+07
8.34562e+07
-6.35732e+07
5.51721e+07
-5.51698e+07
2.17446e+07
3.7167e+06
5.87267e+07
9.42906e+07
-9.42891e+07
1.03632e+08
-1.03627e+08
7.83586e+06
-1.49202e+07
8.05339e+07
-8.05237e+07
4.07817e+07
-2.35972e+07
-4.41636e+07
1.0387e+07
6.07799e+06
-6.37057e+07
6.37127e+07
-5.51001e+07
5.51045e+07
4.65628e+07
-5.72521e+07
1.14801e+07
-1.12264e+07
-23282.9
22727.4
-2.37282e+07
-2.95653e+07
1.35991e+07
4.69311e+07
2.59117e+06
-2.27943e+07
-8.98341e+07
8.98362e+07
-1.04314e+08
1.04315e+08
-5.06845e+07
6.74697e+07
-9.7676e+07
9.76771e+07
1.51106e+06
8.72631e+06
-9.00922e+07
9.0097e+07
-1.36701e+07
1.54177e+07
-1.5411e+07
3.31495e+07
3.39593e+07
-6.57102e+06
-205783
-906.73
917.618
949332
-950008
4.57613e+07
-5.11157e+07
5.11184e+07
1.4396e+06
3.31733e+07
1.97573e+06
-1.97778e+06
-4.14303e+07
-2.78557e+07
-2.22187e+07
3.44617e+07
-7.94672e+07
1.05878e+07
4.6407e+07
-5.5692e+07
-1.95706e+07
5.56835e+07
-9.05114e+07
9.12964e+06
3.86771e+07
-3.31103e+07
3.31141e+07
-1.79892e+07
1.16118e+07
8.54456e+07
-8.5443e+07
-6.65741e+07
6.68821e+07
67039.7
-66695.5
-3.6109e+07
1.93657e+07
-1.93628e+07
-2.84241e+07
1.32959e+07
-5.14027e+07
5.14257e+07
9.73482e+07
-9.73464e+07
-36592.3
36617.2
6.43173e+06
-1.13458e+08
1.13461e+08
-5.94168e+06
-4.4486e+07
-9.46178e+07
9.4619e+07
-9.98046e+07
9.98135e+07
1.9182e+07
-4.12372e+07
-6.73546e+06
-2.86733e+07
2.86765e+07
-1.12245e+08
1.12247e+08
-1.88038e+07
-6.32916e+07
-2.32532e+07
-6.429e+07
-6.39315e+07
-3.81871e+07
-4.19756e+07
4.20455e+07
3.20823e+07
-4.20404e+07
1.10261e+08
-1.10256e+08
-3.37941e+07
1.32037e+07
1.82768e+07
-6.56055e+07
-5.27454e+07
-3.69428e+06
-3.31535e+07
1.2401e+07
4.46019e+07
4.63713e+06
2.00666e+06
-9.76281e+06
4.08819e+07
2.22071e+07
-9.32851e+07
-4.39025e+07
7.49338e+07
-7.4932e+07
2.80276e+07
-2.72847e+07
1.31151e+07
-2.99974e+07
3.00006e+07
1.09657e+06
2.20997e+07
-5.03069e+07
2.99997e+06
5.02211e+07
99278.7
-99390.4
-1.90574e+07
5.42883e+07
4.0684e+07
6.66865e+07
3.58892e+07
-4.72204e+07
2.03085e+07
-5.897e+07
1.68611e+07
7.35497e+06
4.97482e+06
-8.89456e+07
-9.50007e+07
9.50018e+07
-8.27013e+07
7.81078e+06
6.37629e+07
-3.20292e+07
9.15949e+07
-9.15936e+07
-6.54534e+07
6.54547e+07
6.6198e+07
6.13917e+06
5.52637e+06
-5.52631e+06
-8.3676e+07
8.36484e+07
5.87795e+07
-5.87775e+07
15293.7
-15359.8
-2.04782e+07
-1.46879e+07
-5.27674e+07
-5.47508e+06
-1.40441e+07
-9.07416e+07
9.07512e+07
-8.88983e+07
8.89077e+07
5.82025e+07
-5.8204e+07
4.88971e+07
-4.88929e+07
-1.26028e+07
325768
-1.28357e+07
-5.08528e+07
2.31715e+07
6.21304e+07
-2.12412e+07
-1.13436e+08
1.13442e+08
-5.59057e+07
2.83955e+07
1.4331e+07
7.49233e+07
6.44007e+07
-4.37573e+07
-1.58657e+07
9.09269e+07
-9.09246e+07
-2.56202e+07
2.56753e+07
1.45809e+07
-1.45768e+07
9.34949e+07
-9.34931e+07
2.42853e+06
1.33988e+07
-1.57452e+07
2.05633e+07
9.05286e+07
9.77781e+06
-7.78791e+07
7.78888e+07
-3.63156e+07
4.49591e+07
2.87917e+06
-5.16026e+07
5.16053e+07
2.52779e+07
-2.52749e+07
3.32477e+07
-7.78812e+07
-4.51428e+07
-3.10537e+07
3.1055e+07
-5.01248e+07
-8.10786e+06
4.55006e+07
-4.54999e+07
-3.84169e+07
1.04621e+08
-1.04609e+08
7.93057e+07
-7.92966e+07
-5.17683e+07
-7.08847e+07
7.08924e+07
-2.61526e+07
-3.72339e+07
8.64826e+07
-8.64811e+07
-6.66653e+07
-9.58353e+07
9.58364e+07
5.57809e+07
-8.65494e+07
8.65517e+07
-5.51492e+07
5.5155e+07
-1.32113e+07
5.51826e+07
-5.5178e+07
-4.4809e+07
-9.04251e+06
-1.06013e+07
-1.45864e+07
6.37669e+07
-6.37671e+07
-1.08062e+08
1.08065e+08
-4.05887e+07
-6.84479e+07
3.81739e+07
4.16359e+06
-4.62115e+07
-4.24621e+07
2.32837e+07
-5.23736e+06
5.23747e+06
-7.93927e+07
-1.04953e+08
1.04954e+08
4.03829e+07
4.10928e+06
-8.70126e+07
8.70154e+07
-4.35726e+07
-5.37631e+07
5.37775e+07
507332
6.3676e+06
-1.58349e+07
-3.63355e+07
-3.45298e+07
4.46928e+07
-4.46931e+07
-4.81357e+07
-1.12453e+06
7.66274e+07
-7.66254e+07
1.75845e+07
-4.83193e+07
4.8319e+07
-1.41339e+07
2.90035e+07
-2.90001e+07
-8.58966e+07
8.59041e+07
-3.39915e+07
3.39954e+07
5.36138e+07
-3.56438e+07
3.55726e+07
5.28524e+07
-4.30007e+07
4.30053e+07
-3.7432e+07
1.77559e+07
-2.02905e+07
-5.59611e+07
4.11463e+06
-1.0397e+07
-1.93841e+07
-8.87372e+07
5.16288e+07
-5.16254e+07
4.11946e+07
5.26184e+07
-5.26174e+07
-3.89773e+07
-7.18014e+07
7.1803e+07
-1.39911e+07
-3.75895e+06
-4.92373e+07
4.92368e+07
8.9936e+07
-8.99345e+07
6.87346e+07
2.52089e+07
4.09122e+07
7.51122e+07
-7.51101e+07
1.01937e+08
-1.01935e+08
3.26383e+07
-2.5472e+07
1.30673e+07
-1.34075e+07
3.64084e+07
-3.6398e+07
-4.16642e+07
-240525
-440083
442182
241687
-2.5561e+07
817610
-824891
-4.28642e+07
4.28687e+07
-2.22136e+07
2.22167e+07
2.8299e+07
-2.82957e+07
6.52491e+06
6.49263e+07
-6.49256e+07
-5.29684e+07
-2.52616e+07
-6.1298e+07
6.12983e+07
-3.17321e+07
7.10059e+07
-7.10041e+07
-4.1545e+07
-3.11965e+07
6.48061e+07
-3.15066e+07
3.15102e+07
6.36673e+07
4.76487e+06
-53385.8
-3.04008e+07
-8.90668e+07
8.90693e+07
-8.86096e+06
5.06132e+07
-1.13164e+08
1.13167e+08
14635.9
-14684
5.72215e+07
-5.7225e+07
4.97717e+07
-7.91961e+06
1.13485e+08
-1.13484e+08
-3.32623e+07
-5.09358e+07
9.38152e+06
2.24504e+07
4.33386e+07
3.71215e+07
2.06322e+07
-1.78427e+06
-1.46954e+07
-6.1982e+07
3.96384e+07
5.85006e+07
-5.59076e+07
-2.83648e+07
-2.35712e+07
50886.9
-51202.8
7.15283e+07
-7.15268e+07
4.25144e+07
-3.47694e+06
-2.508e+07
-9.10227e+06
5.13144e+07
5.48021e+07
-5.10425e+07
-5.56102e+06
3.5694e+07
-3.91859e+07
-1.32641e+07
2.29596e+07
-2.29564e+07
4.5714e+07
7.20879e+07
-6.84979e+06
-3.59423e+07
9.07751e+07
-9.07729e+07
-9.86375e+07
9.86386e+07
-18910.5
18525.7
-4.88212e+06
-6.60064e+06
-2.84831e+07
-3.49764e+06
-4.71885e+07
4.71864e+07
3.11757e+07
3.89012e+06
-3.89048e+06
-1.04584e+08
1.04586e+08
-8.22072e+07
8.0496e+07
-8.04939e+07
-1.44118e+07
6.51613e+07
-4.0893e+07
-2.37457e+07
6.46404e+07
7.18936e+06
8.5782e+07
-8.57806e+07
3.47314e+07
-9.98996e+06
9.95079e+07
-9.94986e+07
-3.45852e+07
-9.27588e+07
-2.71447e+07
9.27623e+07
2.44107e+07
-2.43749e+07
4.67375e+07
3.40304e+07
-4.90492e+07
-1.97875e+06
-4.8999e+07
-2.28063e+07
8.61558e+07
-1.58924e+07
3.0005e+07
-3.00029e+07
-9.83016e+07
9.83027e+07
2.47182e+07
6.80676e+06
-8.68562e+07
8.68585e+07
-5.39248e+07
4.45287e+07
3.63456e+07
1.71361e+07
4.03151e+07
1.95915e+07
-1.95886e+07
-1.39718e+07
4.879e+07
-4.879e+07
-9.72172e+07
9.72185e+07
1.10728e+06
-3.71021e+07
-6.72502e+06
-8.60989e+07
7.18135e+07
-7.18036e+07
3.66387e+07
4.18788e+06
-2.6151e+07
-5.83449e+07
-2.3926e+07
-3.47431e+07
-1.34326e+07
-3.45475e+07
4.12012e+07
9.89613e+07
-9.896e+07
7.96128e+07
-7.96034e+07
6.4866e+07
-6.38223e+07
-1.42888e+07
6.40056e+06
9.61932e+07
-9.61918e+07
-6.75632e+07
-6.12905e+07
1.79447e+06
-2.50719e+07
7.62203e+06
3.4292e+06
-3.42243e+06
-2.61009e+07
-1.03461e+07
1.04715e+08
-1.04709e+08
-2.74059e+06
2.80184e+07
-5.37752e+06
1.16605e+08
-1.16603e+08
-3.45106e+07
3.45158e+07
-4.11667e+07
-2.03177e+07
2.03212e+07
-1.45096e+07
-6.59412e+06
3.41889e+06
6.2821e+06
8.97703e+07
-8.97689e+07
-1.284e+07
-5.06693e+07
5.06714e+07
1.00709e+08
-1.00708e+08
-3.37813e+07
3.35544e+07
4.89523e+07
-4.89482e+07
-1.00249e+08
1.00257e+08
1.15762e+07
-6.34675e+07
1.02894e+08
-1.02887e+08
-6.64643e+07
-4.89257e+06
4.88822e+07
-4.8879e+07
7.98601e+07
-7.98586e+07
-5.6284e+07
-8.95223e+07
8.95247e+07
-1.10294e+08
1.10295e+08
5.62774e+07
2.72031e+07
3.91256e+07
1.77682e+07
7.02882e+07
-7.02864e+07
-8.86033e+07
5.35027e+06
6.73338e+06
8.86036e+07
2.81755e+07
4.52611e+07
-3.93274e+07
4.85689e+07
-4.85695e+07
995890
1.29364e+07
-4.76781e+07
7.10668e+07
-7.10923e+07
2.76122e+07
-3.13947e+06
67049.2
-65512
-3.53791e+07
-4.06276e+07
-3.28739e+07
1.02712e+08
-1.02707e+08
-5.93188e+07
-4.9086e+07
-5.80525e+07
3.04824e+07
4.652e+07
-4.65152e+07
-6.31919e+07
2.37968e+07
5.93574e+07
-3.49703e+07
3.51764e+07
5.805e+07
-5.84593e+07
5.01524e+07
-5.0149e+07
-8.79489e+07
8.79502e+07
5.72109e+07
-2.02668e+07
3.71009e+07
8.178e+07
-8.17712e+07
-8.04072e+07
8.04093e+07
105418
-3.032e+07
7.07216e+07
-7.07198e+07
-4.09925e+07
7.55095e+06
-7.54968e+06
-3.2359e+07
-3.29231e+07
8.89338e+07
-5.34919e+07
-5.60015e+07
-6.71537e+07
3.61952e+07
-3.86281e+07
-1.29652e+07
1.0131e+08
-1.01308e+08
-5.58529e+06
1.30053e+06
1.77928e+07
-3.93565e+07
-1.6838e+07
-9.33252e+06
-5.53418e+06
3.72923e+07
-2.96051e+07
2.61935e+06
1.49632e+07
-3.50758e+07
2.88015e+07
-8.13592e+07
2.01841e+07
-2.08325e+07
-5.37002e+06
5.37015e+06
3.44172e+07
-1.05628e+07
1.05614e+07
-2.78571e+07
-1.57097e+07
6.53646e+07
-6.53641e+07
3.52964e+07
7.61719e+06
-7.61924e+06
-2.9496e+07
-1.74814e+07
3.29035e+07
-4.305e+07
4.93431e+07
3.14288e+07
-9.44405e+07
3.83863e+07
3.18709e+07
5.3282e+07
2.13733e+07
-2.13704e+07
1.28278e+07
-1.30647e+07
285848
-286217
5.24449e+07
-1.59991e+06
3.90943e+07
2.89757e+07
-3.8476e+07
3.84721e+07
-6.55499e+07
-1.19512e+07
3.33904e+07
-77313.6
77135.4
-3.71632e+07
-2.54935e+07
-776449
4.42764e+06
-1.85066e+07
6.41898e+07
3.2982e+07
-4.81315e+07
-3.99317e+07
3.99282e+07
-7.51803e+07
-5.86309e+07
1.23343e+06
7.17801e+06
-4.37465e+07
-6.80278e+07
6.80381e+07
2.8099e+06
-2.95478e+07
-7.22491e+07
-5.67322e+06
5.6734e+06
-3.8414e+07
1.75027e+07
3.90019e+07
-9.02164e+07
9.02185e+07
-1.67945e+07
-4.75784e+07
4.75919e+07
6.21284e+07
-6.21194e+07
2.94218e+07
-3.90797e+07
233552
-231270
-3.17974e+07
1.5252e+06
1.15321e+07
9.84615e+07
-9.846e+07
-1.15021e+07
1.06425e+08
-1.06414e+08
6.07636e+06
4.72365e+07
-1.58655e+07
-6.9602e+07
-2.93779e+07
-9.97599e+06
6.9612e+07
7.09185e+07
8.26692e+06
-2.95821e+07
-4.20003e+07
4.19995e+07
4.06127e+07
-4.17892e+07
6.33833e+07
3.13261e+07
4.29004e+07
-9.41534e+06
7.2181e+06
-1.47938e+07
-2.38389e+07
2.76487e+06
9.21992e+06
-1.46825e+07
-9.79218e+06
485248
4.13991e+07
2.40856e+07
-5.35216e+07
-3.93147e+07
-1.77875e+07
-6.56294e+07
6.14842e+07
-5.73546e+07
5.73592e+07
1.2062e+07
-4.89929e+06
-3.77309e+07
3.77226e+07
7.71317e+07
-7.71297e+07
-2.63025e+07
-1.0265e+07
5.302e+07
-6.05714e+06
6.05562e+06
9.57058e+07
-9.57046e+07
6.54195e+06
1.4201e+06
-3.4091e+07
-9.58171e+06
-7.86075e+06
-1.87972e+06
-8.466e+06
-2.09634e+06
6.5429e+07
6.33782e+07
-6.33778e+07
3.68259e+07
-3.67759e+07
1.6491e+07
1.57668e+07
9.59529e+07
-9.59516e+07
8.3777e+06
1.67997e+07
3.72763e+07
-1.39873e+07
-5.99853e+07
-2.54925e+07
2.34228e+07
-1.95319e+07
7.15903e+07
-1.09802e+07
-2.23278e+07
8.50699e+07
6.58085e+07
-6.58077e+07
-7.57676e+07
1.29086e+07
4.16458e+07
-3.1458e+07
3.26538e+07
8.40425e+07
-8.39792e+07
-3.2932e+07
-8.70688e+07
-3.59671e+06
3.59815e+06
6.48244e+06
-6.48147e+06
2.41193e+07
3.48417e+07
-3.20137e+07
9.91156e+07
-9.01329e+07
9.01433e+07
1.38668e+07
-1.3861e+07
-1.59914e+07
1.01403e+08
-1.01402e+08
-4.08097e+07
4.02679e+07
-1.10134e+07
-23322.1
23257.1
-3.34034e+07
-1.58634e+07
8.07691e+07
-2.15654e+07
-9.28851e+07
9.2891e+07
3.57608e+07
7.71335e+07
-7.65881e+07
2.89095e+07
1.89868e+07
-2.62476e+06
3.80244e+07
-3.80226e+07
-9.5261e+07
9.52625e+07
-1.78273e+07
-4.44471e+07
4.44417e+07
-8.94748e+07
8.94769e+07
1.97316e+07
-4.83406e+07
4.06501e+07
-1.59948e+07
3.51242e+07
-3.51189e+07
-3.1092e+07
1.43648e+07
6.97017e+07
-714728
-2.84018e+07
2.84048e+07
-4.1504e+07
1.99171e+07
8.26764e+07
8.31975e+07
-8.31955e+07
6.18866e+07
-8.18317e+06
-3.15865e+07
3.10944e+07
1.02491e+08
-1.02482e+08
-4.40801e+07
6.97688e+07
-6.97671e+07
4.2852e+07
-6.89275e+07
-5.51427e+07
5.51422e+07
3.68449e+07
2.53384e+07
1.96207e+06
-3.06061e+06
-5.12189e+07
1.6181e+07
-1.31044e+07
37010.2
-37229.8
6.89902e+07
8.19746e+06
-8.19572e+06
8.22176e+07
-8.22088e+07
15605.6
1.00441e+08
-1.00433e+08
-6.73124e+07
6.7319e+07
-1.0847e+08
1.08471e+08
2.80652e+07
9.99687e+07
-9.99674e+07
8.16776e+06
-3.38486e+07
-1.39955e+06
-3.11297e+07
2.17063e+07
-2.96362e+07
7.776e+07
-7.77595e+07
-2.04286e+07
2.04339e+07
2.04919e+07
-2.81865e+06
1.56583e+06
6.3436e+07
1.10628e+07
4.62024e+07
-6.86083e+07
1.04722e+07
-1.37243e+07
2.98214e+06
-2.98244e+06
6.39145e+07
-4.40162e+07
6.30421e+07
-4.09718e+07
-1.99067e+07
8.04315e+06
4.24425e+07
-4.24297e+07
4.16292e+07
2.31296e+07
-3.70907e+07
3.70774e+07
-1.56867e+07
-4.90396e+07
-9.70793e+07
-5.18611e+07
5.18606e+07
6.83753e+07
-3.29422e+07
4.01696e+07
-4.23497e+07
5.1413e+07
9.70844e+07
4.23517e+07
5.40262e+07
4.4269e+07
2.59441e+07
4.05504e+07
-1.31845e+07
3.55134e+07
2.6661e+07
2.03291e+07
-6.36918e+06
-2.18207e+07
3.73691e+07
-4.01626e+07
-2.46824e+07
7.88243e+07
-7.88228e+07
-5.67062e+07
1.57773e+07
-1.44678e+07
-1.69602e+07
6.73444e+07
-6.53272e+07
7.8181e+06
-8.09536e+07
-2.8078e+07
1.22738e+07
6.53396e+07
3.5894e+07
-5.26634e+07
2.24427e+07
-9.78603e+06
6.17009e+07
-6.07879e+07
4.17081e+07
59529.6
-60624.8
-6.87513e+07
-7.44154e+07
7.44252e+07
3.52786e+06
8.54644e+07
-8.5459e+07
1.02109e+07
1.79448e+07
-1.7942e+07
-4.46413e+07
335365
1.03723e+07
1.04578e+08
-1.04577e+08
-5.0276e+06
-8.03931e+07
8.73092e+07
-3.20277e+07
8.25909e+07
-8.25828e+07
-4.55851e+07
1.27901e+07
7.92603e+06
-7.45733e+07
3.93121e+07
-3.93199e+07
9614.3
-9710.05
5.21516e+06
2.44335e+07
4.66871e+07
-4.66827e+07
8.82441e+07
-8.82414e+07
-7.35407e+07
1.61779e+07
3.26863e+07
8.14086e+07
-8.1406e+07
3.977e+06
-153855
152727
-7.7097e+07
7.70765e+07
-8.8281e+07
8.82834e+07
-8.1807e+07
9.5565e+07
-9.55635e+07
6.09091e+07
-6.09008e+07
4.55034e+07
-2.11446e+07
-8.93179e+07
8.72214e+07
3.70215e+07
2.43777e+06
-8.72223e+07
1.58421e+07
4.56821e+07
4.84051e+07
5.26729e+07
3.11236e+07
9.11851e+07
-9.11838e+07
-2.35826e+07
-6.95299e+07
6.95371e+07
9.84799e+07
-9.84768e+07
-3.43832e+07
-6.57571e+07
6.57585e+07
3.92759e+07
-3.92824e+07
-3.9062e+07
3.76137e+07
-3.76106e+07
3.90233e+07
-9.87262e+07
9.87273e+07
2.49304e+07
-1.72374e+07
-3.96167e+07
-7.45627e+06
3.39714e+07
-3.39021e+07
1.50058e+07
-3.78053e+07
1.81047e+07
-3.01038e+07
-4184.61
4177.89
-1.07901e+08
1.07904e+08
-1.53134e+07
2.75714e+07
1.04164e+08
-1.04155e+08
-4.16447e+07
3.61614e+07
1.98852e+07
-6.47669e+07
6.51175e+07
3.92292e+07
-2.48505e+06
-6.73037e+07
8.84959e+06
-1.03136e+08
1.03143e+08
-4.26787e+07
4.26789e+07
-6.24205e+07
6.24226e+07
1.57557e+06
-1.59073e+06
1.75724e+07
-6.16019e+07
-1.24136e+07
-3.45584e+07
-3.61475e+07
-7.45439e+06
1.09285e+06
-1.09337e+06
-1.77464e+07
-2.361e+06
3.39512e+07
-3.88872e+07
3.88911e+07
3.05432e+07
-2.32497e+06
-4.7326e+07
6.84137e+07
-6.84119e+07
-4.17448e+07
6.60403e+06
-6.93729e+07
6.93746e+07
-2.89165e+07
-6.89684e+07
6.89697e+07
-5.69885e+07
-3.13204e+07
-3.91657e+07
-2.07095e+07
2.32872e+07
-2.33814e+07
8.83426e+07
1.97463e+07
5.07941e+07
-5.07912e+07
2.33338e+06
4.07428e+07
-4.07383e+07
6.9061e+06
7.57066e+07
-7.57047e+07
-2.41656e+07
2.41686e+07
-4.24424e+06
-2.28645e+07
2.28708e+07
-7.60069e+07
7.60085e+07
4.70378e+07
-2.76206e+07
-4.68214e+07
3.99396e+07
-3.99352e+07
4.66048e+07
-1.55381e+07
-4.14932e+07
4.15004e+07
1.02756e+07
8.83876e+07
-8.83758e+07
1.23679e+07
5.98845e+07
9.63804e+07
-9.63792e+07
-200927
202675
-3.84042e+06
8.53959e+07
-8.53935e+07
1.06191e+07
3.9716e+07
-3.97115e+07
3.9928e+06
-3.99251e+06
-1.21082e+06
3.88894e+07
8.78777e+07
-8.7866e+07
-1.11868e+08
1.11871e+08
3.59662e+07
4.19891e+06
-5.12395e+06
5.12406e+06
2.59122e+07
-25026.7
24947.6
-1.03056e+08
1.03057e+08
-2.76819e+07
8.21634e+06
-8.21539e+06
1.23911e+07
-8.82082e+07
8.82107e+07
-2.3042e+07
-1.20415e+07
-9.71773e+07
9.71791e+07
-8.82806e+07
8.82902e+07
-2.70956e+07
2.4229e+06
-6.45076e+07
3.01988e+07
-1.99256e+07
-1.02978e+07
3.3317e+07
3.6819e+07
-4.21709e+07
4.22317e+07
-7.89647e+07
7.89667e+07
9.68294e+07
-9.6828e+07
7.74764e+07
-4.07351e+07
-9.09845e+06
3.33823e+06
-9.12934e+07
-3.99e+07
6.29487e+07
5.8574e+07
-6.35833e+07
5.30934e+07
-5.30922e+07
-3.16384e+07
3.1642e+07
7.86828e+06
-1.11454e+07
-3.88817e+07
1.87757e+06
-3.99993e+06
3.24457e+07
-3.56199e+07
-1.50812e+07
4.25349e+07
-4.25322e+07
938757
-4.75962e+07
4.7599e+07
-1.96924e+07
-9.95322e+07
9.95448e+07
-9.33004e+07
9.33059e+07
-1.41532e+07
-7.00226e+07
7.00241e+07
1.18228e+08
-1.18225e+08
7.8097e+07
-7.80948e+07
3.76443e+07
-3.764e+07
8.59959e+07
2.08376e+07
2.71736e+07
-1.27178e+07
-3.30525e+07
3.30559e+07
-7.11605e+07
7.1162e+07
-2.46166e+07
2.41708e+07
-2.08832e+07
1.11439e+08
-1.11438e+08
4.15608e+07
-5.68536e+07
5.68558e+07
-3.25535e+07
-4.06501e+07
5.97217e+07
-1.81053e+07
3.78067e+07
-3.77653e+07
5.50813e+06
-4.24997e+07
3.9161e+07
818430
-818670
7.28757e+07
1.50203e+07
1.48828e+07
-2.13571e+07
-5.16356e+07
-8.41276e+07
2.01822e+07
1.29964e+07
-1.29938e+07
8.40111e+07
-8.40091e+07
4.28012e+07
-4.27967e+07
-2.35434e+07
2.0253e+07
1.95291e+07
1.1357e+07
-2.07145e+07
-7.12385e+07
2.61988e+07
2.86037e+07
1.24922e+07
-8.13366e+07
8.13083e+07
1.37083e+06
-1.3717e+06
2.21871e+07
1.78165e+07
-5.53575e+07
5.53559e+07
3.82163e+07
-3.82119e+07
1.03289e+08
-1.03288e+08
-2.64852e+07
-1.34914e+07
1.33807e+07
6.6465e+06
-7.52853e+07
7.62065e+07
-9.23545e+07
9.2356e+07
4.17427e+07
-1.60468e+06
6.91764e+07
-6.91666e+07
-4.45893e+07
4.4315e+07
3.29949e+07
-1.31422e+07
-4.27558e+07
-2.11144e+07
3.52912e+07
-3.52355e+07
5.39438e+07
-5.39402e+07
-6.22272e+07
9.1795e+07
-9.17931e+07
7.87486e+07
-7.87391e+07
8.46449e+07
3.66238e+07
-3.65933e+07
-2.31205e+07
2.3124e+07
1.31449e+07
-2.44971e+07
-4.97837e+07
-3.87938e+07
3.8798e+07
-4.49445e+06
4.49422e+06
2.21883e+06
4.9168e+07
-6.34065e+07
6.34075e+07
5.00947e+07
2.20381e+07
-1.10623e+08
1.10627e+08
2.11919e+07
5.89888e+07
-7.47872e+07
2.34038e+07
-6.60357e+07
-7.65995e+07
7.66015e+07
2.64848e+07
8.16412e+07
-8.1639e+07
1.53976e+07
2.6488e+07
6.60378e+07
-5.92197e+07
5.92207e+07
-3.04222e+07
3.23261e+07
-383444
9.51778e+07
-9.51761e+07
8.4301e+06
-1.42855e+07
5.48188e+07
-5.48163e+07
3.44394e+07
-3.5642e+07
3.53886e+07
3.84697e+06
2.58725e+06
-2.42204e+06
5.24825e+07
-5.24815e+07
1.09895e+07
-1.6139e+07
-3.57122e+07
6.67443e+07
-5.04916e+06
-1.82156e+07
-6.0788e+06
2.52673e+06
3.43423e+07
8.06988e+07
-2.7787e+07
7.6861e+07
-7.68509e+07
-3.63869e+07
1.19065e+06
-1.19103e+06
8.25828e+07
-8.25771e+07
2.82381e+07
-8.78068e+07
8.78143e+07
3.55002e+07
7.96125e+07
-1.12886e+07
-87266.9
87163.4
5.61504e+06
-7.11653e+07
7.11674e+07
-4.57986e+07
4.94936e+06
4.72556e+07
-576345
-7.74181e+07
3.64841e+07
-2.43622e+07
2.43672e+07
4.28112e+07
-4.28067e+07
-4.06506e+07
1.84662e+07
3.51262e+07
-7.97136e+07
7.97164e+07
-9.17822e+06
5.25931e+06
-5.25867e+06
-957488
-9.70275e+07
9.70288e+07
-1.37383e+07
2.37482e+07
-3.22876e+07
2.80345e+07
-2.81271e+07
4.47676e+07
-4.47647e+07
-3.23278e+07
3.53303e+07
-4.68002e+07
4.6914e+07
5.7247e+07
-3.9304e+07
-5.89755e+07
4.45174e+06
-7.29372e+07
-1.54217e+07
3.75305e+07
-3.75203e+07
-1.12315e+06
1.45199e+07
-1.45171e+07
7.89762e+07
-7.89811e+07
6.52386e+07
8.91683e+07
5.90265e+06
1.39308e+07
3.81068e+07
3.09468e+06
-7.40725e+07
-7.1344e+07
4.90835e+07
3.05119e+07
-4.07377e+07
-1.35743e+07
4.03703e+07
-5.12271e+07
5.1228e+07
5.19905e+07
-5.19891e+07
6.49097e+07
-6.55667e+07
2.89818e+07
-4.87002e+07
4.87028e+07
5.14462e+06
-5.40187e+07
5.4278e+07
-8.04793e+07
8.04814e+07
2.02958e+07
5.52463e+07
-1.18656e+07
-4.05531e+07
-7.27566e+07
9243.07
-9306.62
3.54012e+07
-1.91579e+07
2.32444e+07
-2.022e+07
1.08159e+07
3.78328e+07
-3.78273e+07
-6.68265e+07
6.68273e+07
3.62853e+07
-7.71847e+07
9.9616e+07
-9.96146e+07
-5.95406e+07
5.95404e+07
3.1772e+07
2.24298e+07
2.54971e+07
3.29689e+07
5.70611e+07
-5.7187e+07
2.28831e+07
-5.10424e+07
5.10348e+07
-3.49712e+07
3.49752e+07
5.40296e+07
2.24958e+07
-2.24929e+07
3.75752e+07
-3.75637e+07
4.88283e+07
-2.91189e+07
2.90016e+07
-1.78562e+07
1.56766e+07
1.80373e+06
-2.03386e+07
-3.62116e+07
3.71651e+06
-3.713e+06
-3.03318e+07
3.62224e+07
-6.24025e+07
6.24046e+07
2.44667e+07
3.24731e+07
3.43475e+07
3.98365e+07
3.41876e+07
-3.41838e+07
4.24005e+07
-9.56412e+07
9.56488e+07
4.1547e+07
4.05778e+07
-2.0225e+07
-6.36878e+07
5.6763e+07
-5.67624e+07
1.99725e+07
4.75378e+07
3.88733e+07
-8.87936e+07
8.87948e+07
5.81935e+07
-5.81751e+07
2.99816e+07
-3.17918e+07
-2.63532e+07
-7.03709e+06
2.70353e+07
2.35433e+07
3.1557e+07
-2.93254e+07
3.42473e+06
-4.07943e+06
-6.73448e+07
6.73459e+07
8.30114e+06
1.01674e+08
-7.29495e+07
7.29512e+07
6.53425e+07
-4.65334e+07
3.89587e+07
-3.22448e+07
4.65558e+07
-9.40285e+07
9.40295e+07
1.34751e+07
4.84451e+07
-7.0227e+07
7.02287e+07
4.02075e+07
-3.46733e+07
5.59836e+07
7883.03
-7755.61
3.45181e+07
8.40835e+07
-8.40769e+07
3.35869e+07
-2.33898e+06
2.86781e+07
6.69989e+07
-5.42777e+07
-2.45551e+06
-1.01666e+08
57541
-57676.4
-2.19845e+07
4.75347e+07
1.5632e+07
87891.1
-86151.7
4.40694e+07
-6.36157e+07
6.36171e+07
1.04697e+08
-1.0469e+08
-3.34121e+07
3.3416e+07
3.90715e+07
1.92728e+06
-1.91214e+06
-3.96032e+07
-1.95072e+07
2.77346e+07
2.97931e+06
-3.53427e+07
-3.32072e+07
7.47932e+07
-7.48068e+07
-7.13548e+07
7.13569e+07
-9.28481e+06
-3.67111e+07
-9.10037e+07
2.38685e+07
-4.54576e+07
-1.3741e+06
4.27586e+07
4.44195e+07
1.04659e+08
-1.04648e+08
-7.14364e+07
-2.5948e+07
-5.4875e+07
5.48804e+07
-1.1862e+07
-3.30333e+06
1.03405e+06
3.17807e+07
13035.4
-12957.9
-1.75038e+07
8.87313e+06
-8.87384e+06
-699419
-9.23561e+07
9.2361e+07
-1.5746e+07
-4.01912e+07
5.31509e+07
4.02047e+07
-7.43325e+07
7.42924e+07
1.73066e+07
-2.07734e+07
-3.74131e+07
5.02016e+06
-9.15132e+07
9.15183e+07
4.82679e+07
-4.83567e+07
-9.27467e+07
1.49016e+07
-1.10721e+08
1.10726e+08
2.02057e+07
-2.02027e+07
-3.55124e+07
7.38232e+07
-1.00914e+07
-5.93509e+07
5.935e+07
1.00769e+08
-1.00768e+08
-1.00912e+06
-5.74402e+06
4.29625e+07
8.73233e+07
3.55165e+07
2.21933e+07
-6.80982e+07
6.80997e+07
-1.66445e+07
2.7934e+07
-4.23261e+07
-6.49653e+07
-1.65429e+07
-4.07628e+07
6.18148e+07
-6.18128e+07
8.20246e+07
-9.93925e+07
9.93938e+07
119102
-118776
4.78527e+07
3.87004e+07
1.01939e+08
-4.72298e+07
-5.44055e+07
5.44038e+07
-5.51631e+07
3.64155e+07
-7.59983e+07
3.47103e+07
-1.76535e+07
-1.06189e+08
1.06191e+08
-6.96002e+07
-5.16263e+07
5.16312e+07
-1.11959e+08
1.11965e+08
-1.01928e+08
-13076.1
13039.2
3.29838e+07
-1.09481e+08
1.09483e+08
-5.79639e+07
5.79663e+07
-3.85588e+06
3.85538e+06
5.35915e+07
1.73861e+07
7.97816e+07
-7.97798e+07
-1.49836e+07
-2.22445e+07
6.68744e+07
-6.68727e+07
-4.13108e+07
-3.0281e+07
8.43951e+07
-8.43924e+07
-3.50366e+07
9.91653e+06
-9.91376e+06
5.72317e+07
110863
-3.02522e+07
1.0761e+08
-1.07599e+08
7.73071e+07
5.3205e+07
-5.32038e+07
-3.99348e+07
3.99407e+07
3.66377e+06
-3.66383e+06
1.79099e+07
6.80582e+07
-6.48229e+06
6.48236e+06
-6.1859e+07
6.18611e+07
-2.08877e+07
7.20152e+06
2.76176e+07
5.51609e+07
1.59897e+07
1.20575e+07
7.61101e+07
-7.61007e+07
7.71927e+07
-7.71906e+07
-1.17418e+08
1.17422e+08
-3.20988e+07
-3.63029e+07
3.59629e+07
7.47271e+07
-7.4725e+07
-2.95284e+07
-277758
278602
-1.55158e+07
-5.83941e+07
3.86483e+07
-3.86557e+07
-8.97905e+07
2.29517e+07
-4.7001e+07
-9.90076e+07
9.90087e+07
-3.09598e+07
-3.82574e+07
3.82787e+07
2.07432e+06
2.81182e+07
-2.49533e+06
-5.60746e+07
-6.94575e+07
6.94676e+07
-8.47563e+06
-3.18039e+07
9.80145e+07
-4.5301e+07
4.53053e+07
1.85869e+07
7.73133e+07
-7.73112e+07
1.09148e+06
-2.33674e+07
-2.36644e+07
6.41644e+06
-1.66645e+07
7.1947e+06
-7.7083e+07
7.70846e+07
7.43825e+07
-7.43777e+07
-1.30774e+07
-9.51694e+07
9.51716e+07
-6.68155e+06
1.41113e+07
6.67158e+06
-2.98932e+07
2.98913e+07
3.42425e+07
-2.97076e+07
1.72812e+07
5.89363e+06
-3.29519e+07
2.55736e+07
7.41147e+07
-7.4111e+07
-1.89536e+07
-3.41903e+07
6.15833e+07
-2.5133e+07
-8.52668e+07
-6.88066e+07
-2.42774e+07
1.58688e+07
7.36552e+06
1.36105e+07
-1.03817e+08
1.0382e+08
-1.01166e+08
1.01167e+08
2.80406e+06
2.58539e+06
-2.6015e+06
-4.23407e+07
-1.89645e+07
3.29739e+07
-4.20846e+06
8.35475e+06
-7.6355e+07
-7.27908e+06
3.29852e+06
-1.03383e+08
1.03385e+08
-2.21045e+07
6.95286e+06
8.1697e+07
2.14079e+07
-2.14047e+07
-6.99118e+07
8.49202e+07
1.96986e+07
5.96922e+07
2.49629e+07
-5.35309e+07
5.97358e+06
-6.42275e+06
-1.99595e+07
522758
-1.07167e+08
1.07168e+08
3.01223e+06
-2.9969e+06
2.80781e+07
4.91785e+06
5.43364e+07
-5.43092e+07
2.44555e+07
-1.92808e+07
2.43868e+07
-6.18664e+07
6.18683e+07
8.18033e+07
-6.18852e+06
4.98678e+07
-3.42482e+07
1.18481e+06
-6.55192e+07
2.1301e+06
-3.91614e+07
-650658
3.36578e+06
2.67882e+07
2.70026e+06
2.49864e+07
-4.82679e+07
1.0262e+08
-1.02619e+08
-4.61724e+07
4.61693e+07
2.84234e+07
-2.84553e+07
1.08325e+07
-5.66958e+07
4.22109e+07
-3.24669e+07
3.24702e+07
-8.05147e+07
3.18e+07
-2.59794e+06
4.25623e+07
-3.97317e+07
-2.58448e+07
-1.43703e+07
-2.38701e+06
2.40794e+06
-4.07879e+07
4.0792e+07
-3.81658e+06
3.81632e+06
6.07503e+07
-5.54439e+07
2.61519e+07
-1.5839e+07
-3.21048e+07
2.56322e+07
780854
-3.12795e+06
-5.55148e+06
-2.85321e+07
5.5155e+07
-2.3352e+06
1.23475e+07
5.04233e+07
7.39395e+07
-7.39516e+07
4.64189e+07
-3.61053e+06
-1.15985e+07
7.88322e+07
-7.88304e+07
7.17521e+07
-7.17502e+07
-3.64257e+07
-1.53047e+07
-2.70992e+07
-3.35895e+07
3.38159e+07
3.16604e+07
-3.03901e+07
-9.02412e+06
-2.99648e+07
-1.89514e+07
1.8514e+07
-9.90957e+06
-8.60352e+06
1.32306e+06
-1.32772e+06
1.27334e+07
-4.86544e+07
6.23528e+07
-1.45077e+07
-4.88959e+07
4.88896e+07
-9.07341e+07
5.42959e+07
-5.42938e+07
416329
-415390
3.46208e+07
7.6591e+07
-7.6589e+07
148656
-3.92392e+07
896460
2.2884e+06
-2.15115e+07
2.14805e+07
-6.61346e+07
6.61361e+07
-2.08061e+07
5.66751e+06
4.86642e+07
8.9855e+07
-8.98468e+07
7.78144e+07
-7.78123e+07
3.62213e+06
-4.94281e+07
4.94279e+07
3.64344e+07
2.9588e+07
-8.73451e+07
8.73469e+07
1.34602e+07
-3.11756e+07
-3.57143e+07
1.20715e+07
-37334.3
37210.1
-5.95565e+07
5.95582e+07
-5.01773e+07
5.01799e+07
3.11312e+06
-3.11348e+06
-2.54782e+07
1.0861e+06
-1.08647e+06
-5.39247e+07
-7.48736e+07
3.45447e+07
5.54611e+07
-5.54588e+07
6.5015e+06
-6.28868e+07
5.94186e+06
-5.83296e+06
-6.87576e+07
-4.32623e+07
4.32669e+07
-3.07329e+07
-1.83547e+07
-6.81839e+07
-9.75181e+07
9.75275e+07
6.215e+07
7.2435e+07
-7.24295e+07
4.88641e+07
-4.8864e+07
-27918.3
27827.9
3.23137e+07
3.76991e+07
2.13394e+07
9.73362e+07
3.61415e+07
3.87676e+07
-3.23011e+07
-3.17789e+07
9.6352e+07
-9.63501e+07
4.35593e+06
8.64034e+07
-8.6402e+07
-3.87872e+07
-4.79561e+07
4.79547e+07
-8.40182e+07
3.74198e+07
-8.38522e+07
8.38546e+07
-7.59564e+07
3.75908e+07
5.46059e+07
2.71407e+07
3.04192e+07
-6.68466e+07
6.68483e+07
3.00019e+07
-2.99951e+07
-1.60348e+07
-2.77408e+06
8.22484e+07
3.08287e+07
-7.92301e+06
-4.43672e+07
4.44959e+07
-1.44626e+07
-1.10498e+08
1.105e+08
-8.08735e+07
8.08757e+07
7.56921e+06
-1.71133e+07
1.71603e+07
9.65034e+07