/*--------------------------------*- C++ -*----------------------------------*\
| =========                 |                                                 |
| \\      /  F ield         | OpenFOAM: The Open Source CFD Toolbox           |
|  \\    /   O peration     | Version:  v3.0+                                 |
|   \\  /    A nd           | Web:      www.OpenFOAM.com                      |
|    \\/     M anipulation  |                                                 |
\*---------------------------------------------------------------------------*/
FoamFile
{
    version     2.0;
    format      ascii;
    class       volScalarField;
    location    "15000";
    object      sigmaxz;
}
// * * * * * * * * * * * * * * * * * * * * * * * * * * * * * * * * * * * * * //

dimensions      [1 -1 -2 0 0 0 0];

internalField   nonuniform List<scalar> 
27023
(
1.66454e-13
1.08949e-13
7.22323e-13
5.54418e-13
0
-5.50348e-13
4.5725e-12
-1.12943e-12
-1.06841e-13
-5.03365e-13
-6.86801e-13
-9.7242e-13
-6.94282e-14
3.69343e-14
8.37138e-13
1.02514e-12
-9.28402e-13
0
3.39618e-12
0
-7.35726e-14
4.19818e-15
-2.65599e-12
-9.39694e-13
2.40741e-12
3.87816e-12
1.80047e-12
8.48321e-12
-1.40612e-12
-5.21784e-12
1.0019e-11
4.17895e-13
5.15177e-12
-4.96784e-13
1.01994e-12
-1.10172e-11
1.76108e-12
3.52213e-12
1.9738e-13
-2.8586e-13
-2.11566e-13
-9.39863e-14
-1.11483e-11
-1.14837e-13
1.14815e-13
5.24009e-12
-3.78164e-12
-4.92646e-12
4.92645e-12
-3.33012e-12
3.72066e-12
-1.4526e-12
8.67181e-12
4.73229e-15
1.04336e-13
1.81136e-12
2.93579e-12
1.37306e-11
-2.46181e-12
-1.12372e-12
-7.54696e-13
-2.00057e-11
8.07929e-12
4.59566e-12
-1.19182e-11
-2.35991e-12
1.22931e-12
-5.3193e-12
1.16162e-12
-1.16604e-11
0
-3.55943e-12
-3.42109e-13
-1.97925e-12
-2.131e-12
-1.27156e-12
1.28282e-14
-6.79234e-14
7.90514e-12
-3.616e-12
1.26573e-12
4.26094e-12
-3.35107e-12
-6.28872e-13
1.58273e-12
-5.04753e-12
-2.71252e-12
2.97348e-12
5.61526e-12
-4.87149e-12
2.8707e-12
1.44467e-13
-2.8779e-13
-4.05431e-13
-8.79889e-14
-3.89077e-12
-4.09631e-12
3.70719e-12
-5.94827e-12
3.22595e-12
-2.20557e-12
-9.28883e-12
-3.55528e-12
-4.02272e-14
2.18476e-12
1.40301e-11
-1.34423e-12
9.61762e-13
-5.19163e-12
2.89455e-11
-1.31101e-11
-1.01449e-13
1.05157e-12
-4.96205e-12
7.58859e-13
2.22765e-12
5.39031e-12
-3.62793e-13
-1.59879e-12
2.52195e-12
-1.41566e-11
8.39556e-12
-7.92639e-13
2.14882e-12
-3.91558e-12
1.81892e-12
-5.67122e-14
3.35493e-13
3.44847e-13
2.43325e-12
-1.11965e-12
2.54622e-14
-1.25109e-14
1.48013e-13
-1.01594e-11
-7.88471e-12
-2.05555e-13
2.46564e-12
2.56148e-12
2.868e-13
-7.32774e-13
-5.63997e-12
-2.50771e-12
-2.40384e-12
-1.62711e-12
1.88584e-12
-9.48909e-12
-3.36966e-12
1.21539e-12
2.24814e-13
-3.14174e-13
1.19767e-12
-6.90658e-13
3.01148e-12
2.94462e-12
2.13712e-11
-9.10443e-12
6.14331e-12
6.36428e-12
-2.79089e-12
4.53467e-12
-1.0122e-11
9.69513e-12
1.0382e-11
-5.63688e-13
-5.9402e-13
-4.09749e-13
2.18956e-12
-3.49127e-13
-1.69485e-12
1.47768e-12
7.15177e-12
2.42799e-13
-2.35799e-12
0
1.28862e-11
1.34884e-11
-3.34572e-12
-2.47231e-12
3.92967e-13
1.04517e-12
-4.04974e-12
-2.60855e-12
-3.03085e-12
-6.96069e-12
1.97252e-12
1.86056e-12
-1.2689e-12
-6.73408e-12
4.68507e-12
-3.18136e-12
2.15868e-13
-8.61101e-13
-2.39535e-12
1.82604e-12
3.04715e-12
-1.20272e-11
1.1335e-12
6.88097e-13
6.39643e-13
5.3175e-12
1.21429e-12
3.87504e-12
7.49957e-12
0
-7.68345e-13
2.87926e-12
-1.73963e-12
3.4195e-12
4.20067e-12
0
1.33991e-15
-7.2928e-13
2.84163e-12
-3.30339e-13
1.94185e-13
-1.74634e-12
1.82562e-12
3.48136e-12
2.70547e-12
3.72295e-12
1.17951e-11
1.03956e-12
1.01788e-13
-3.14664e-12
-2.19135e-12
4.86779e-12
-7.29776e-13
-2.81759e-12
2.67521e-14
1.83907e-13
-8.86372e-12
-1.48041e-12
-2.48588e-12
-3.32147e-12
4.1332e-12
-1.76059e-12
6.51414e-12
3.00023e-13
5.09857e-12
-5.0988e-12
3.29985e-12
-3.65994e-13
-1.20013e-11
-1.11253e-12
1.29576e-12
1.12129e-11
1.03741e-12
-7.98271e-13
7.70398e-13
-3.12918e-12
4.75956e-12
-7.92529e-12
-1.24837e-12
3.18426e-12
-8.05363e-12
0
-6.78061e-12
-6.68455e-12
2.5274e-12
8.31145e-13
-2.15962e-12
-1.00557e-11
3.11563e-12
-6.01029e-12
-5.75131e-12
-2.84706e-13
-1.09596e-12
-4.90251e-12
-2.01862e-13
1.4031e-13
2.30231e-11
8.65262e-12
1.15679e-12
-6.00517e-12
-2.23541e-12
-5.27198e-14
-3.32117e-14
-7.25855e-12
1.19643e-12
-2.27069e-11
2.33721e-12
3.08717e-11
-4.65367e-12
-2.07633e-14
-2.20743e-14
-6.17432e-12
1.47053e-11
-3.06936e-12
-2.65773e-14
-8.92269e-12
3.97227e-12
-6.27473e-13
2.81556e-12
0
-1.57098e-12
-5.28711e-12
2.99467e-12
3.14504e-12
0
-1.27777e-13
-1.32244e-12
9.75323e-13
0
-2.0102e-13
3.69156e-14
-1.47732e-14
-5.05281e-12
-1.0115e-11
-4.04909e-12
2.73882e-11
5.09305e-14
-5.08832e-14
1.74346e-13
4.20264e-13
4.95015e-12
-1.92757e-12
5.6059e-13
-5.50382e-12
2.16716e-12
-5.60801e-14
-8.77779e-14
1.06305e-12
1.12412e-12
-7.37509e-13
-9.55921e-13
5.97256e-12
-1.60443e-12
-4.04993e-12
5.87063e-13
-1.32736e-13
-2.7266e-12
-7.40876e-12
-3.37726e-13
-1.00537e-11
-5.6994e-13
-9.493e-13
7.66189e-13
-2.14342e-12
-1.25993e-13
-1.62964e-12
2.58981e-11
-1.41179e-11
0
2.20838e-15
-2.18773e-12
-6.02678e-13
1.28246e-12
-3.17395e-12
3.04563e-12
3.9003e-12
-6.0511e-13
4.43595e-13
-2.72258e-12
2.89205e-14
-2.14403e-14
-7.94042e-13
5.00351e-12
-5.61498e-12
8.908e-13
1.58241e-12
1.69016e-12
-4.99628e-12
7.01886e-14
2.02747e-12
-9.53495e-12
4.30187e-12
1.20819e-12
-5.6239e-13
5.62523e-13
-3.67748e-12
-2.32536e-12
-1.90921e-12
0
-1.77551e-13
9.66757e-12
-6.17321e-12
-2.34407e-12
7.27271e-12
4.07855e-12
4.42826e-12
3.07224e-12
3.38161e-12
1.53337e-12
-3.91049e-13
-1.69159e-12
-1.33004e-12
6.07062e-12
-1.49848e-12
1.47092e-13
-1.80417e-12
2.60985e-11
6.96352e-13
-6.91713e-12
-7.16217e-13
1.23793e-12
6.49581e-13
-1.56522e-11
-9.8427e-12
0
8.05045e-13
-9.36419e-13
-7.42323e-13
-1.90266e-12
-2.43247e-11
3.89639e-13
-9.17829e-13
1.7546e-12
1.04363e-11
2.12224e-12
3.79322e-12
-2.99274e-12
8.64508e-15
-1.10914e-14
5.95284e-12
3.44569e-13
-5.06684e-13
-6.62712e-12
5.59542e-12
-7.76666e-12
0
-8.12951e-12
3.56413e-13
-3.99178e-12
1.11768e-11
-7.17778e-12
0
-3.69788e-13
9.47377e-12
2.79559e-13
1.09252e-11
0
2.32843e-12
-4.54066e-12
-1.66579e-12
3.2877e-12
-1.53793e-12
9.82967e-14
1.56397e-13
-3.31416e-13
-9.05709e-12
-2.38183e-11
-3.92201e-13
-5.50592e-12
2.20467e-15
-4.62774e-17
-6.72237e-13
5.70272e-12
8.06814e-13
-5.07787e-15
3.86976e-13
1.94865e-13
-1.94606e-13
-7.28373e-13
1.32396e-12
-2.91353e-12
-5.77033e-12
1.28496e-12
1.80058e-12
2.25694e-12
3.37169e-12
-1.50224e-12
-4.75985e-12
-4.53116e-12
-5.59552e-12
-9.28766e-12
-4.40345e-12
2.18719e-12
7.28285e-15
1.16825e-11
2.71904e-11
0
1.2942e-12
-1.35059e-12
1.40461e-12
0
-1.63431e-12
7.41851e-12
1.26361e-11
-4.77427e-13
7.20732e-13
-4.99903e-12
2.3277e-12
-2.61568e-12
4.62259e-12
3.07823e-12
-8.62923e-13
-9.48752e-12
-3.16021e-11
-5.89215e-12
2.67029e-12
4.18137e-12
4.58931e-13
-4.6899e-12
-4.01224e-13
-6.20851e-13
-2.15554e-12
-1.75248e-13
-1.55139e-12
1.00186e-11
2.177e-12
5.5884e-15
-9.51878e-15
-7.1761e-12
6.63854e-13
2.70645e-12
1.98216e-12
1.35257e-13
1.57604e-12
2.22451e-12
-1.84265e-12
-2.84098e-12
-1.41712e-12
3.26238e-13
1.4674e-12
3.1566e-12
-2.81336e-12
-5.20339e-12
5.30377e-12
-5.97746e-13
-6.37313e-12
3.18658e-12
3.2861e-12
-1.03472e-12
2.4126e-12
-1.03845e-11
-5.08252e-12
6.27773e-12
-2.95319e-12
2.69629e-13
9.72371e-12
-1.67591e-12
5.2669e-14
3.18894e-13
4.4713e-13
-4.47486e-13
-5.25847e-12
-4.86187e-12
-8.36156e-13
5.08062e-12
2.12845e-12
1.0929e-11
3.41678e-12
-2.60315e-13
1.18435e-11
4.02182e-13
5.64751e-13
2.54129e-13
-9.77705e-13
-1.09603e-11
-1.40273e-11
5.90375e-12
-8.62605e-13
-1.54237e-12
-1.50279e-12
7.32882e-12
1.21839e-11
4.08865e-12
-2.74397e-13
-1.15921e-11
1.62344e-12
6.76951e-12
2.37372e-12
-5.34148e-12
8.47575e-12
1.08072e-12
0
0
6.00683e-12
6.2438e-12
3.35123e-12
1.15929e-12
1.49151e-13
0
1.76196e-12
1.24471e-12
-3.56707e-13
-6.53989e-13
2.10064e-12
1.20459e-12
-1.26466e-12
-6.13642e-12
1.02016e-12
0
-6.19065e-12
2.08318e-12
8.7438e-14
-6.56207e-12
1.00539e-12
-2.71892e-13
0
-6.63231e-12
1.28153e-12
-2.90345e-12
-6.46975e-12
3.37584e-12
-3.21619e-12
-1.40019e-11
-2.8248e-12
1.77256e-12
-4.14454e-12
4.63617e-12
-2.46327e-12
3.54077e-12
1.1921e-12
1.74309e-14
-5.94148e-12
4.75948e-12
-1.03218e-12
4.36306e-12
-4.36306e-12
-6.65507e-12
3.76894e-13
-8.49421e-12
-5.59035e-13
-1.90282e-11
-3.08721e-11
-2.36663e-12
-2.89318e-12
-4.28387e-11
-1.08176e-14
-7.39308e-15
9.2892e-16
7.62707e-16
-5.86322e-12
-6.91496e-14
8.92624e-14
0
-1.03048e-12
-3.25005e-14
3.24081e-14
3.33296e-13
-2.4338e-13
8.23133e-13
-1.28323e-12
3.19036e-12
-1.12851e-12
1.51208e-12
2.11643e-12
-5.16276e-12
-2.44149e-12
-2.55169e-12
-3.35982e-12
3.40934e-12
2.21196e-12
5.22561e-12
-1.79604e-12
-1.00058e-12
2.68618e-12
0
3.99968e-12
-1.40066e-12
3.40744e-12
0
4.20832e-13
1.57955e-12
-3.79564e-12
-2.95563e-12
-2.03799e-15
2.93038e-15
-5.40444e-12
-2.95389e-12
-9.36953e-12
-6.93855e-12
7.91707e-13
9.55977e-12
-2.19273e-12
-6.37495e-13
0
-5.18868e-12
1.84263e-13
-4.9165e-12
-9.78422e-12
-7.41147e-14
6.52176e-12
-1.1341e-11
-1.7068e-12
-1.25258e-11
2.71173e-12
0
5.64503e-12
3.22567e-14
1.02914e-14
-3.84845e-13
3.37637e-12
2.30532e-12
2.66006e-12
-2.35522e-12
-6.49163e-12
2.73224e-11
-4.46902e-12
-8.38077e-13
1.02048e-11
3.61362e-12
-6.99328e-12
-4.71243e-12
-8.56574e-14
-5.07137e-14
-1.68462e-12
-1.88976e-12
1.57804e-14
-1.22258e-11
1.807e-12
9.03474e-13
3.43128e-12
2.28792e-12
-1.1802e-15
7.4963e-15
-2.2484e-12
-2.04044e-15
-6.03811e-12
5.97962e-13
2.23879e-12
-1.06467e-12
-1.15077e-11
3.90299e-13
1.04335e-13
0
4.92185e-12
-1.74998e-13
-2.21619e-13
2.31984e-12
-2.64238e-13
-1.10477e-11
-8.34201e-13
-6.66394e-12
-2.16235e-12
-4.38148e-12
0
3.08084e-12
-1.03411e-11
8.45369e-13
-2.87938e-12
1.07574e-12
6.5257e-12
-7.35326e-13
-1.47095e-12
7.35937e-13
-7.23838e-13
-4.38462e-13
1.91494e-12
4.79056e-13
2.17046e-12
1.5912e-12
-4.11663e-12
1.74249e-12
3.9503e-12
1.28057e-12
5.60527e-13
-8.22672e-13
-4.08282e-12
-7.31801e-13
-4.88252e-12
5.3506e-13
7.71851e-12
0
7.91961e-12
6.46098e-13
1.45396e-11
2.83998e-12
3.82504e-12
-1.11077e-12
-4.67883e-13
8.19951e-12
-1.8052e-12
-8.80524e-13
-4.42655e-12
-3.02428e-12
-1.01123e-12
2.60341e-12
-6.59676e-14
-5.05514e-12
1.2366e-12
8.93102e-14
-7.29033e-12
3.61063e-12
1.07205e-12
-5.9647e-12
-4.74679e-12
0
1.79335e-13
-8.33773e-13
-9.66663e-12
0
2.91421e-12
5.96861e-13
-4.11519e-12
-9.65614e-12
2.59429e-12
5.38776e-12
-2.29266e-13
0
0
8.41049e-12
-1.31783e-12
4.18128e-12
1.22116e-11
-1.04906e-11
1.04635e-14
0
9.73608e-12
9.38798e-12
2.89459e-13
-7.61566e-13
-1.31311e-12
-6.3413e-13
2.97503e-13
1.95781e-12
6.51785e-12
3.79627e-13
4.99721e-13
6.36412e-14
-1.58036e-13
-3.54301e-13
2.20482e-11
5.10159e-12
-1.13609e-11
-1.86178e-11
-2.27789e-13
-1.29776e-12
-1.6194e-11
-4.70158e-14
-1.36222e-12
0
-1.139e-11
2.9957e-12
-2.48853e-12
-7.14867e-14
-7.90499e-13
-6.12167e-12
-1.06835e-12
-5.65541e-12
3.17673e-12
-8.20013e-13
3.59742e-12
1.28996e-11
-1.99993e-13
-1.01159e-13
2.9998e-13
-2.58356e-12
1.8363e-12
1.48961e-12
8.63448e-12
0
-7.20613e-12
3.46197e-12
-1.37122e-12
1.25671e-11
-2.53318e-12
-4.91231e-12
5.53814e-13
7.87045e-13
4.6818e-12
-2.75698e-12
1.20635e-14
4.54324e-14
-3.08632e-12
3.59264e-12
-1.40004e-12
-2.55894e-12
1.06823e-12
-1.54329e-12
0
9.75207e-12
8.6626e-12
9.52988e-12
6.09093e-12
-5.04568e-13
3.62615e-14
-2.58254e-14
6.13812e-13
1.36946e-12
9.60577e-12
-9.90906e-13
1.83036e-12
-1.55149e-13
-5.75522e-12
9.12588e-13
8.12136e-12
-2.3846e-13
9.66379e-14
-3.1763e-12
-3.50539e-12
5.00793e-13
2.76758e-11
4.23202e-11
7.78186e-13
2.95949e-12
-1.68435e-13
-1.32457e-12
0
1.71358e-12
1.08743e-11
-6.57678e-13
3.19566e-12
2.08416e-13
-4.55288e-13
-1.2957e-12
8.79452e-13
9.01497e-13
5.25768e-12
3.19215e-12
6.69149e-12
-2.48942e-12
2.02443e-13
-6.1747e-14
4.30927e-12
-3.52293e-13
-5.06329e-13
-4.61836e-12
1.95579e-13
-4.91216e-12
-5.26528e-12
1.91911e-12
-6.08112e-13
1.75151e-12
-1.71313e-12
-2.45323e-11
6.09523e-13
-2.11019e-12
0
-6.49533e-12
4.07754e-13
-3.46539e-12
8.08605e-12
-2.25751e-12
1.61179e-12
2.5864e-12
1.41521e-13
-5.22833e-12
1.16171e-11
-7.85354e-12
-9.42321e-12
0
-2.07074e-13
-1.27495e-12
-3.01479e-13
3.34029e-13
-2.30651e-12
7.97978e-12
5.92462e-13
-1.51991e-12
0
3.66757e-13
7.81658e-14
2.21781e-12
1.04178e-11
1.2892e-13
0
3.74354e-12
1.72147e-13
2.23904e-12
1.79633e-12
-1.93438e-12
3.82904e-12
2.09613e-12
-1.65888e-12
3.66026e-12
1.96057e-12
-2.60548e-13
-6.90217e-15
8.04719e-13
4.2192e-12
1.44645e-11
1.61385e-12
3.41107e-12
-4.21297e-12
-1.94131e-12
4.98025e-12
1.31998e-11
1.01689e-13
-1.44231e-13
0
4.63834e-13
-6.93619e-13
5.99349e-13
4.12449e-12
-3.70622e-12
6.55513e-14
9.91902e-12
1.60594e-12
2.5789e-12
-1.54602e-12
1.62477e-12
4.13753e-12
-1.86296e-14
4.42245e-12
-6.02416e-13
-4.32488e-13
2.13624e-12
-2.42893e-12
6.50612e-12
-9.5899e-13
-1.80474e-13
7.69759e-12
-8.8504e-13
-8.45199e-13
0
3.20962e-12
-1.89573e-12
3.15452e-12
-3.09926e-12
9.85335e-13
1.51298e-13
1.32339e-11
-8.95012e-13
7.18551e-14
-9.31132e-15
-1.63651e-12
-1.21215e-14
-3.9148e-12
2.4568e-12
-1.17818e-12
-8.4592e-12
-1.14025e-12
2.1686e-12
5.79399e-13
-6.5608e-12
2.43753e-12
0
-3.3039e-13
-1.92733e-13
1.6122e-13
-1.10409e-11
-1.31452e-12
-3.67161e-12
-1.03986e-12
2.32849e-12
-2.79481e-13
-2.16777e-12
-1.79019e-12
1.39085e-12
3.26902e-14
-1.35738e-14
2.08112e-13
-2.18931e-12
-5.96788e-13
1.48415e-12
-2.52846e-12
-5.94275e-13
4.32979e-12
2.00614e-12
-3.63752e-13
-5.27384e-13
5.96543e-12
-1.01767e-11
-5.57317e-14
-3.10669e-12
3.74334e-12
1.15777e-12
1.04215e-13
-2.97089e-12
-5.32369e-12
-1.21229e-13
-2.42954e-12
-4.83231e-12
1.64361e-12
1.43742e-12
-7.53428e-12
1.1796e-12
1.77466e-13
-8.08357e-14
-7.10448e-12
6.7863e-12
6.90369e-13
9.31498e-13
-1.21946e-11
1.09281e-12
5.01997e-12
-1.46648e-12
2.43234e-12
2.60556e-13
-3.52172e-12
-3.48052e-12
2.75572e-12
-7.78698e-13
-6.47158e-12
-1.44783e-12
-2.69226e-12
6.64121e-12
-9.38049e-12
1.23272e-12
2.84873e-12
-6.11556e-13
5.03566e-12
9.9643e-13
-4.37126e-12
-9.58995e-12
2.74285e-13
2.19919e-12
6.1745e-12
9.61167e-12
2.33048e-12
4.32148e-12
-9.2006e-13
-1.10422e-11
-1.66023e-12
3.98205e-13
1.68601e-12
4.85721e-14
-6.38933e-12
-6.39421e-12
1.06823e-12
-1.89545e-12
2.30164e-13
-4.41425e-13
8.99256e-14
2.81908e-13
1.17348e-13
-2.38472e-11
-2.53324e-11
3.51218e-12
-2.5317e-13
1.93436e-12
-1.22407e-13
-2.65199e-13
5.45488e-13
2.32613e-12
-4.40887e-12
4.62303e-12
-2.07471e-11
6.1661e-13
-2.59979e-15
1.21526e-15
4.25555e-13
4.28756e-12
6.63171e-12
2.52624e-11
3.03969e-12
-3.24775e-12
1.58887e-12
1.81897e-11
1.04018e-11
-4.20133e-12
-6.27518e-12
2.0902e-12
2.39246e-13
-1.90719e-12
-7.59499e-12
-1.883e-12
1.16784e-12
9.31575e-13
0
2.89821e-12
-2.21663e-12
-8.60492e-13
2.21418e-12
5.74008e-12
-7.41781e-13
9.0898e-13
1.04613e-12
-2.91365e-13
9.41429e-14
8.85887e-13
-1.19158e-12
-3.56404e-13
-3.56575e-13
-1.45398e-11
-1.27801e-12
7.69232e-12
-2.73435e-12
2.26658e-12
1.12132e-11
-1.51434e-12
-2.11553e-13
-1.92859e-11
-1.69037e-12
1.57508e-12
9.36253e-12
1.55212e-12
-3.23593e-13
5.95478e-13
5.7692e-12
-3.73031e-11
-1.38208e-12
1.31694e-12
3.45438e-12
1.10756e-11
8.53709e-12
-2.08075e-12
2.94995e-12
-1.84551e-13
1.04093e-13
-1.0391e-13
-9.74799e-12
-2.45471e-13
-7.02282e-13
3.04629e-13
-9.53348e-13
3.84101e-11
-1.90623e-12
2.83739e-12
-9.7468e-13
1.7432e-12
-2.6789e-12
6.31501e-14
-2.43109e-13
3.55113e-12
-2.77572e-12
5.9885e-12
-4.98795e-12
2.0046e-13
4.56039e-12
8.26127e-13
-9.27253e-12
1.65609e-12
-6.15235e-12
1.24396e-13
-1.15734e-12
2.05523e-12
8.8755e-13
-2.97101e-12
7.7552e-13
-5.60913e-12
4.11889e-13
4.62262e-13
-2.2203e-13
-4.33705e-12
-2.24359e-13
2.34635e-13
1.00384e-12
6.21489e-13
-7.36738e-13
3.70486e-12
-1.18616e-12
-1.6588e-13
1.4811e-12
-1.65184e-13
-3.82899e-12
-1.896e-11
4.95221e-11
-3.44629e-11
-2.14853e-12
-4.16859e-12
-4.17313e-12
1.43138e-12
-2.40061e-12
1.8002e-11
-8.15114e-13
-3.58062e-12
-1.08891e-12
-2.33293e-12
1.18089e-11
-5.44031e-13
-3.99393e-12
5.74047e-12
-1.33728e-12
-9.34533e-13
1.04198e-12
9.11122e-12
2.63719e-12
-6.62438e-12
9.76964e-12
1.86558e-13
-6.58043e-12
2.05819e-12
2.14422e-12
5.70253e-12
-3.57631e-12
8.15576e-13
0
-1.73773e-12
2.85612e-13
2.20948e-12
4.39458e-13
-5.89469e-12
1.07689e-11
-1.61561e-12
-2.39941e-12
3.37918e-13
2.90028e-12
-1.43627e-11
7.02018e-15
0
-2.20299e-11
0
3.10991e-12
1.52098e-14
-8.42578e-14
-3.49258e-12
2.2085e-13
3.61877e-12
6.68222e-12
-4.43633e-13
0
0
8.6675e-13
-5.6667e-13
1.84381e-12
2.14166e-12
-1.78013e-11
-3.27358e-12
4.59483e-12
-2.32473e-11
-7.6954e-12
-1.03487e-11
9.08879e-13
7.31921e-13
-2.29479e-12
1.34605e-12
0
9.88506e-13
-2.52235e-12
3.11752e-12
0
-7.76528e-15
1.01545e-14
-4.51857e-12
1.33956e-12
7.88671e-13
3.19092e-13
-3.83669e-12
2.98629e-12
2.11452e-12
3.79093e-12
-2.43312e-12
4.42946e-13
2.03238e-12
-1.34407e-11
4.70399e-14
-4.12578e-14
0
2.45841e-14
4.27701e-13
-5.2509e-12
0
-2.03624e-12
-3.27718e-12
-8.61188e-13
1.41431e-12
-8.13006e-13
7.24536e-13
-1.09305e-11
-1.76655e-12
1.68225e-12
1.63169e-12
2.02526e-13
1.83325e-12
1.33773e-12
0
-2.73089e-12
8.89704e-12
2.19965e-12
-9.47412e-13
-3.03239e-12
1.02283e-12
-1.63734e-12
4.52356e-12
7.9908e-12
5.28087e-13
-1.38136e-12
-1.42574e-12
-3.36244e-12
2.7898e-12
2.21792e-12
-2.8676e-12
-2.8393e-12
0
1.49297e-12
5.9433e-12
4.45083e-12
6.18042e-12
-1.90926e-12
-8.07167e-14
-3.8835e-12
6.11398e-13
3.26009e-12
6.73217e-12
1.0032e-12
-5.08199e-12
-1.56093e-15
-1.21119e-15
-3.50001e-13
-1.43028e-12
-1.05812e-11
3.43416e-12
1.10902e-12
-1.89792e-14
5.44703e-12
-4.76043e-14
3.53717e-13
-5.21756e-12
-1.13222e-11
-2.59079e-13
1.76727e-13
5.41869e-12
-1.50632e-11
-4.36096e-12
1.34052e-12
6.20573e-13
-5.51494e-13
5.48529e-12
-1.57906e-13
1.36849e-14
2.37783e-14
5.13458e-12
1.1391e-12
8.80268e-12
-2.21512e-12
-1.65945e-12
5.33727e-13
-1.87905e-13
-1.20769e-13
1.00912e-11
5.56244e-12
-5.16264e-12
8.84319e-13
-1.1823e-12
6.86778e-13
9.86926e-12
3.02869e-12
4.0534e-13
1.58166e-12
3.45924e-13
-7.96647e-13
-1.56512e-12
-3.86273e-12
2.56279e-12
-1.61691e-12
-1.10444e-12
-7.20181e-12
1.75894e-12
1.28408e-12
1.63441e-11
8.71731e-13
2.5649e-13
3.30665e-12
-4.87948e-13
1.74223e-12
0
-3.00304e-12
1.598e-12
-1.59735e-12
-6.53022e-13
2.50587e-12
2.0192e-12
-4.68711e-13
-2.19471e-13
4.05606e-12
-2.33989e-13
2.23529e-13
-1.57231e-12
-9.66338e-12
1.81415e-12
-2.85141e-12
-4.9149e-12
6.23299e-13
-3.77877e-13
-8.96084e-12
5.28554e-12
0
-3.61656e-13
-4.12906e-12
-2.03974e-13
1.28355e-12
-2.06831e-12
-1.31769e-12
-5.60947e-12
7.38728e-12
-2.83724e-14
0
3.08041e-13
-1.11216e-13
8.94397e-13
-5.04569e-12
-1.07065e-11
4.5118e-12
6.99086e-13
-3.61949e-13
1.72211e-13
-5.12966e-12
1.884e-12
-4.3629e-13
1.799e-12
2.37537e-12
-1.05797e-13
3.5292e-12
6.68362e-14
3.25656e-13
3.18534e-12
3.8743e-16
-1.44074e-15
4.66058e-12
-2.56321e-12
2.84708e-12
0
-1.04102e-13
-1.27274e-11
-1.03334e-12
-2.19174e-13
7.44143e-13
1.17478e-12
1.88179e-12
3.6399e-12
-3.16553e-13
-3.16767e-13
0
-2.12578e-13
-4.01919e-13
1.36268e-12
3.7755e-12
6.76316e-12
1.26266e-13
-3.17587e-13
-1.64228e-11
1.11703e-11
-3.24769e-12
1.70896e-12
4.1512e-12
4.15116e-12
1.16998e-11
5.40675e-12
6.25558e-12
-2.34594e-12
-3.09525e-13
-1.13288e-11
3.97399e-12
-8.177e-12
-5.04558e-12
-1.31396e-12
2.829e-12
-4.52415e-13
1.0802e-12
0
-3.0729e-12
-2.56091e-12
1.50938e-12
4.55819e-13
-1.8756e-12
2.46536e-12
-6.80159e-12
4.53049e-12
-5.90757e-12
2.65307e-12
-3.09301e-12
6.01363e-13
-2.5239e-13
-1.10391e-13
-1.03588e-13
2.53322e-12
2.33427e-12
3.10279e-12
-1.398e-12
-1.00161e-12
-3.64066e-12
-9.15819e-13
-3.86151e-12
1.77521e-12
1.84369e-12
2.70929e-14
1.55409e-12
1.62433e-13
3.07308e-12
-4.05172e-12
-4.617e-13
9.09362e-13
-3.00848e-12
-1.57866e-12
9.3521e-12
-9.70328e-12
0
-1.98439e-12
-1.98435e-12
-3.8642e-12
-8.3861e-12
7.5258e-12
-6.59398e-13
2.2183e-12
4.65806e-12
-8.84322e-12
-6.34142e-13
5.66027e-13
-5.4119e-12
-1.52034e-11
8.37907e-12
4.15226e-13
-1.79011e-14
2.32973e-12
2.59933e-13
-1.01679e-12
0
9.95915e-12
-2.94327e-12
-5.56886e-12
-2.99638e-13
6.02761e-13
2.04659e-12
1.62414e-12
6.86621e-13
-1.34109e-12
2.95043e-12
-6.0169e-12
-3.37074e-14
-2.15353e-12
-6.98096e-13
1.98381e-12
2.09392e-11
4.64896e-12
2.82113e-12
-5.87758e-12
5.87731e-12
2.60497e-13
-2.99292e-13
-3.14027e-12
-2.72851e-12
-1.45968e-12
6.22044e-12
-9.87075e-13
-1.97285e-13
2.24787e-12
-2.28615e-13
-4.17707e-13
-2.44086e-11
1.55599e-11
5.42902e-12
2.39553e-11
1.33508e-11
-1.17931e-11
8.39204e-12
1.03047e-12
-9.59973e-12
-1.86767e-13
1.8652e-13
3.77624e-13
0
-3.4293e-12
-2.23614e-12
2.11638e-12
-1.71523e-11
-1.15337e-12
4.22129e-12
5.68959e-13
-8.21787e-13
-8.24829e-13
4.13382e-12
-1.33173e-12
-1.07556e-13
1.19744e-13
-2.47463e-12
-2.03041e-12
1.12939e-12
8.67465e-13
-9.33716e-13
-2.32753e-13
1.34374e-11
1.29177e-12
-3.93607e-12
-2.36861e-12
1.04324e-13
3.39233e-13
1.05857e-12
-5.71375e-13
-3.47428e-12
0
-4.81293e-12
-2.10023e-11
1.24797e-12
1.1411e-12
5.76243e-12
8.86935e-13
3.51483e-13
-8.69682e-12
-3.18439e-13
2.73804e-12
-8.97671e-13
-1.44309e-12
-1.20193e-13
4.13767e-12
-1.17762e-13
3.73497e-12
6.62726e-13
1.23049e-12
1.43108e-12
8.88932e-13
-2.76547e-12
1.30067e-12
0
2.80525e-12
-1.80235e-12
-5.10761e-13
3.98312e-12
-1.39397e-12
-8.12813e-12
-1.61034e-12
2.56072e-12
-4.50298e-14
6.31629e-14
-1.65416e-13
3.62379e-12
3.79765e-12
-1.14812e-12
-1.45401e-12
5.87163e-12
-1.90256e-12
-1.88524e-13
-1.09272e-12
-1.36065e-11
-3.34046e-12
-1.66585e-12
-8.27339e-12
1.19375e-12
-4.11042e-13
2.13284e-12
-7.64177e-13
2.35718e-13
-1.2069e-13
2.58657e-12
-5.12922e-13
-1.39446e-11
-9.27885e-13
-7.46059e-13
5.80932e-12
-1.09734e-11
1.09892e-11
-2.66768e-13
3.37072e-13
-1.90655e-12
-6.56668e-13
2.87493e-12
-2.37076e-12
-1.17145e-11
1.54533e-12
3.38715e-13
3.24473e-12
1.24517e-11
-1.23929e-12
4.60175e-13
-1.68719e-13
1.24482e-12
-6.08076e-12
2.64916e-15
-7.06027e-13
-2.68298e-12
3.65806e-12
9.18949e-12
-6.7652e-15
3.03971e-13
2.54543e-12
4.15186e-12
2.1875e-12
-2.44959e-12
1.52197e-12
0
4.33972e-11
2.23312e-12
2.95827e-12
-2.95842e-12
-2.81636e-12
0
-1.20131e-11
-2.31937e-12
-1.02246e-11
-2.833e-12
-4.2162e-12
-9.7123e-12
-5.0252e-12
-2.08784e-12
3.13032e-12
-1.34789e-12
-1.70592e-12
5.75962e-13
-2.79267e-13
3.85805e-12
5.35413e-12
3.09064e-12
7.0975e-12
-9.45658e-12
-3.53117e-13
-5.25445e-13
7.02223e-13
0
-6.59477e-13
-1.00973e-11
-4.57187e-13
8.01786e-12
0
6.58273e-12
-4.74475e-12
-4.7864e-12
-2.22684e-12
3.8873e-13
6.27625e-12
5.8267e-12
5.5044e-13
-2.04041e-12
7.18518e-14
-2.1377e-11
1.16714e-11
0
-4.70024e-12
-2.29181e-12
-1.13314e-12
1.28048e-11
-3.37846e-12
1.0711e-12
-6.90161e-12
-1.51418e-15
2.00948e-15
3.00974e-12
1.65133e-11
3.13722e-12
-4.43786e-12
-6.35005e-12
-4.73992e-13
-1.6711e-12
-1.16194e-12
-2.0796e-12
2.40916e-12
5.44481e-13
-3.41621e-13
2.78745e-12
0
-2.29954e-12
1.1148e-12
-1.67903e-12
-2.62244e-12
5.172e-13
-5.03608e-12
1.52191e-11
2.17573e-12
8.4503e-12
3.70181e-12
1.17559e-12
-5.49029e-13
4.43464e-12
1.63601e-12
-4.84454e-13
3.5457e-13
0
7.39302e-13
6.52305e-12
2.82671e-11
-2.46619e-12
-3.83816e-12
-6.03284e-13
1.67106e-12
-6.56008e-12
0
0
6.20445e-13
3.42594e-12
2.11438e-12
4.52876e-12
4.18607e-12
-7.30017e-12
1.56957e-12
3.27049e-12
-9.27174e-13
1.07663e-12
-3.4409e-12
4.54277e-12
-4.54296e-12
-8.39029e-13
-8.75375e-12
1.78332e-12
1.6321e-11
-3.49552e-14
-7.57152e-13
5.30648e-13
-7.5451e-12
-2.38864e-11
-1.50593e-13
1.29794e-12
3.25758e-12
-7.62664e-12
3.5764e-12
-3.19641e-12
-1.65832e-11
-1.29324e-12
0
2.51434e-12
-1.09899e-11
-2.0286e-12
8.99908e-12
-7.98926e-12
-5.5173e-13
6.83356e-13
6.64778e-12
7.71484e-12
-4.62971e-13
0
7.54036e-12
-3.00881e-12
3.68369e-12
-1.43818e-13
1.68306e-12
-1.75323e-12
2.27875e-12
3.75323e-12
-6.09233e-13
0
7.33186e-13
-2.40537e-12
4.8222e-12
-7.36401e-13
-2.10463e-13
-1.47459e-14
-1.44286e-13
3.29725e-13
-4.28829e-13
4.22788e-12
-1.13292e-12
-8.30893e-12
1.58809e-13
-1.7337e-11
-5.32826e-12
2.25535e-12
2.43884e-13
2.36326e-15
-1.77454e-12
-5.10654e-12
-6.70948e-12
-1.18949e-13
1.54774e-13
1.13692e-12
-2.03695e-12
4.64042e-13
1.45753e-12
2.70187e-13
-4.86492e-13
-1.12087e-12
-4.97395e-12
-1.09677e-13
-9.32508e-14
-3.86346e-12
9.27415e-12
-2.16407e-12
1.15804e-11
-9.07527e-13
-3.07121e-12
-4.74867e-12
0
3.45281e-12
-2.38707e-12
-3.52653e-11
9.86947e-13
-2.67788e-12
1.57479e-12
-1.56083e-12
4.81444e-12
7.82572e-12
-6.23314e-12
8.69997e-13
-1.98308e-12
-9.93615e-12
1.79855e-11
1.35801e-12
-3.72751e-12
1.2011e-11
-3.61119e-13
-1.39649e-12
5.6231e-12
1.82532e-14
-8.32148e-14
-6.68648e-12
6.10576e-14
-1.82415e-13
3.55715e-12
0
0
-2.02215e-12
-3.39968e-12
9.28887e-13
0
9.03733e-12
-1.70661e-12
-1.15259e-12
2.43837e-12
2.10436e-11
-8.02694e-12
1.33953e-13
-1.18589e-12
9.64958e-13
-2.10437e-11
5.24139e-12
2.33022e-12
-2.92629e-13
1.89848e-12
-5.9757e-13
1.89237e-13
3.57577e-12
7.896e-12
1.73542e-11
0
-1.44016e-12
-5.13989e-12
-1.33415e-12
-3.9408e-12
1.54007e-12
9.1835e-13
-2.92092e-12
-1.67319e-13
-2.12533e-12
1.81382e-13
3.35232e-12
-1.69342e-12
-5.90558e-12
3.79385e-13
9.60784e-12
-5.45737e-12
1.5058e-13
2.91679e-12
2.29127e-13
5.7285e-12
5.22034e-12
-9.8366e-13
0
1.21517e-15
2.9905e-12
-1.59056e-12
9.20323e-12
9.88286e-13
3.17189e-12
2.34803e-12
5.53439e-14
-5.29159e-13
-6.17623e-13
-2.15667e-12
7.37376e-12
1.45332e-12
2.80003e-12
-3.54908e-12
-7.73366e-13
1.12892e-13
4.39165e-12
-3.32531e-12
-6.34031e-14
2.91815e-15
-4.1968e-15
-5.24198e-12
-8.20166e-12
9.2495e-13
-1.20307e-12
1.40642e-12
3.59855e-13
1.27325e-13
0
3.24257e-12
-2.63764e-12
-2.69702e-12
5.62757e-13
-9.64007e-12
1.65514e-12
-1.80227e-12
-3.34755e-13
8.6005e-13
-2.685e-12
8.23235e-13
-5.40384e-13
-4.0792e-13
-2.18727e-13
-1.08111e-12
2.28405e-12
1.17292e-13
3.07258e-12
-1.18507e-12
-1.26799e-12
-3.49128e-12
-8.33072e-13
4.30963e-13
-1.75576e-13
2.38798e-13
-4.77424e-13
0
2.93664e-12
1.56416e-13
-3.81547e-13
-5.18626e-12
3.39753e-12
0
0
-1.02814e-12
-4.58094e-12
2.1227e-11
3.15872e-12
-8.6712e-13
8.67135e-13
2.31168e-12
-1.36899e-12
-4.95157e-13
4.14308e-12
5.71466e-12
5.55857e-12
3.65473e-12
-1.09251e-12
4.76961e-12
6.32613e-13
1.23083e-15
2.21672e-15
-4.20478e-12
-1.46844e-13
-2.98359e-12
-3.01641e-12
-2.45365e-12
7.43628e-12
-2.76968e-12
5.90478e-12
7.41305e-13
-3.64641e-12
-5.45787e-13
-2.98123e-13
-1.47579e-11
8.52829e-13
4.81479e-11
-1.173e-11
-7.69988e-13
1.81193e-12
6.71059e-12
1.56323e-12
-7.71716e-12
-9.51654e-13
2.42255e-13
-3.78407e-12
-7.2686e-13
-1.39077e-12
-9.11967e-12
8.35565e-13
3.9458e-12
-5.0591e-12
1.8988e-12
-8.70411e-12
-1.62978e-13
2.59601e-12
3.99594e-12
2.32815e-12
3.22662e-11
3.18819e-12
3.74503e-12
4.19763e-14
-5.03268e-14
2.07566e-13
3.5084e-14
-2.99164e-13
3.11267e-12
8.9334e-13
2.72531e-12
4.38782e-11
3.66461e-13
-2.05723e-12
4.4526e-12
1.01679e-11
8.47878e-13
-2.06706e-12
-6.70704e-12
9.8606e-13
3.05723e-12
-1.15247e-12
1.44751e-11
-2.16006e-12
9.22399e-12
2.90938e-12
-4.24955e-12
9.1218e-13
6.37529e-12
-1.32184e-12
-9.40102e-12
-2.18395e-14
3.85972e-14
-1.60789e-12
1.71819e-12
-8.34101e-13
-3.59119e-12
2.69923e-12
3.97333e-13
-2.97147e-12
-2.04834e-11
0
1.83659e-12
1.40548e-12
1.25283e-13
1.0587e-11
0
-1.86419e-12
3.81171e-14
-1.67011e-12
-2.3092e-12
3.96931e-12
3.72906e-12
8.09149e-12
-2.15599e-12
-6.48938e-12
-4.28997e-12
1.1766e-12
2.47858e-12
-2.1757e-12
1.77078e-13
1.10887e-13
7.55935e-13
-6.4102e-12
1.27278e-13
1.54882e-12
-1.49252e-12
4.48431e-13
-1.25471e-12
2.30546e-12
4.92875e-12
1.24309e-11
-4.42186e-12
1.28566e-12
-1.86071e-12
-3.01289e-12
-9.46672e-12
-2.88511e-12
-2.21611e-13
4.65646e-12
-5.94189e-12
0
6.843e-12
-1.92111e-13
-2.11706e-12
-6.72764e-12
-8.15736e-14
7.62444e-12
2.628e-12
1.88968e-11
1.51347e-11
4.05416e-12
-8.32431e-12
-3.90509e-13
8.09634e-13
1.41484e-14
5.39172e-12
3.49442e-12
6.99967e-13
-1.34951e-12
1.43161e-13
4.37198e-12
-1.17487e-12
4.78793e-14
-5.58752e-14
-2.222e-12
5.2951e-12
-1.78178e-13
9.46665e-14
-3.37269e-12
8.80198e-13
1.72178e-12
1.42424e-12
-3.85616e-12
-2.39785e-13
2.8351e-12
-1.78453e-12
1.82978e-12
5.34608e-12
1.05195e-12
-1.73623e-12
2.39223e-12
-3.29434e-12
-6.95814e-12
-7.69818e-12
4.90448e-12
-2.86673e-13
2.91749e-12
-3.51681e-12
0
8.05553e-13
-3.97471e-12
1.90138e-12
-1.71664e-11
-4.41675e-12
0
3.1937e-12
-3.61045e-12
4.1717e-12
-4.5733e-12
1.49108e-12
3.70743e-11
3.84529e-11
7.43941e-12
7.63964e-13
2.4588e-14
-1.77819e-14
-7.56171e-12
-9.07916e-13
1.65332e-12
-1.60516e-12
-9.79897e-13
7.95648e-13
1.83978e-12
2.6262e-12
9.30949e-13
0
3.05138e-15
6.38074e-12
3.77316e-12
4.21872e-13
7.41428e-12
2.0243e-12
3.06729e-13
-1.91213e-13
-1.19716e-11
-2.2959e-11
5.10651e-12
-3.15425e-12
2.45325e-12
-3.72184e-12
-8.02455e-13
-1.59361e-12
-1.00642e-12
-8.5675e-14
-1.32837e-12
-1.73723e-12
2.45304e-12
9.398e-13
1.74279e-12
1.30758e-11
2.67184e-12
-2.79285e-13
1.7081e-13
2.07429e-12
-5.31639e-13
1.43259e-12
-1.36121e-14
-1.18522e-14
5.7485e-12
-4.57319e-12
-1.19999e-12
-3.23806e-12
1.15991e-13
-2.39032e-13
3.0247e-12
-5.93788e-14
1.82631e-13
-5.03629e-12
-2.81479e-12
9.38973e-13
7.21377e-12
0
2.14945e-12
-7.46855e-12
3.39259e-13
2.44127e-12
8.02335e-12
2.34029e-13
2.44154e-13
-4.72962e-12
2.7281e-11
-6.08999e-12
-5.58525e-12
5.17468e-12
2.75032e-12
1.93239e-12
-1.68628e-12
-3.67097e-12
1.77601e-12
5.28441e-15
8.94245e-15
-5.84679e-13
-2.11464e-13
1.2553e-12
7.34348e-12
-1.93641e-13
5.59589e-13
-4.53619e-12
-2.29292e-12
4.62037e-12
4.78133e-12
-3.08481e-12
4.60127e-12
-3.57909e-12
2.18949e-12
-2.30945e-12
-2.78053e-12
-9.19542e-12
-7.28059e-12
-4.51477e-12
3.6385e-12
-1.13691e-11
-2.01999e-12
2.76608e-12
6.3883e-13
-2.18238e-11
3.77956e-12
-2.21345e-13
5.39051e-13
-3.26184e-13
2.68868e-12
-7.02248e-13
-5.9778e-12
-4.17906e-12
-2.18203e-12
6.56961e-12
1.29047e-11
6.05321e-12
-4.89313e-12
3.04056e-12
-2.28636e-12
0
1.19569e-11
2.16093e-11
0
-5.89097e-12
1.62606e-12
2.38133e-12
2.18328e-12
4.03362e-13
1.2844e-11
-1.48414e-12
2.06254e-12
5.83133e-15
2.125e-13
-8.65386e-13
-2.411e-14
4.86648e-13
-2.78647e-13
1.44444e-14
-2.06151e-12
4.66986e-13
-6.36148e-12
2.31265e-12
-3.00768e-13
5.07667e-12
1.59646e-12
2.17773e-12
-5.93878e-12
-2.58609e-12
-1.38164e-12
1.18558e-11
-1.5669e-12
-2.67003e-13
4.3687e-12
-1.2518e-13
1.00046e-13
-1.00509e-11
2.68756e-11
0
-3.23927e-12
6.30326e-14
-6.30032e-14
-1.88545e-14
1.86638e-14
-1.09594e-13
1.08277e-11
-1.53123e-11
0
0
-4.31617e-13
-1.97595e-12
-2.30919e-11
1.98243e-13
-1.43755e-13