# Force          
# CofR           : (0.0000000000e+00 0.0000000000e+00 0.0000000000e+00)
#                
# Time           	(total_x total_y total_z)	(pressure_x pressure_y pressure_z)	(viscous_x viscous_y viscous_z)
1.0000000000e+00	(5.6471914845e+03 1.0227606893e+04 5.5789247515e-16)	(5.6471665296e+03 1.0227609693e+04 5.5795243902e-16)	(2.4954828254e-02 -2.7997917045e-03 -5.9963868862e-20)
2.0000000000e+00	(-1.7652464124e+03 -3.2110614385e+03 -1.7323185098e-16)	(-1.7651636669e+03 -3.2108724084e+03 -1.7287955994e-16)	(-8.2745490516e-02 -1.8903004559e-01 -3.5229103149e-19)
3.0000000000e+00	(5.2438174347e+02 9.6287691288e+02 5.5801994320e-17)	(5.2437576700e+02 9.6292575419e+02 5.0543320683e-17)	(5.9764776371e-03 -4.8841307569e-02 5.2586736372e-18)
4.0000000000e+00	(-1.8103811829e+02 -3.3135072561e+02 -1.9455815137e-17)	(-1.8104239833e+02 -3.3130315059e+02 -1.9376885085e-17)	(4.2800449128e-03 -4.7575018893e-02 -7.8930052748e-20)
5.0000000000e+00	(5.5913333403e+01 1.0305906778e+02 3.3599624327e-18)	(5.5898911860e+01 1.0308817622e+02 3.3757083078e-18)	(1.4421542959e-02 -2.9108433916e-02 -1.5745875101e-20)
6.0000000000e+00	(-2.0794490509e+01 -3.7668942296e+01 -2.0189511386e-18)	(-2.0811946568e+01 -3.7647143602e+01 -2.0562471302e-18)	(1.7456058691e-02 -2.1798694231e-02 3.7295991644e-20)
7.0000000000e+00	(4.9653283182e+00 9.4463130633e+00 -4.5641219150e-19)	(4.9452768885e+00 9.4626128797e+00 -4.4338417397e-19)	(2.0051429770e-02 -1.6299816434e-02 -1.3028017532e-20)
8.0000000000e+00	(-2.9642036551e+00 -5.1182659726e+00 -7.0452330845e-19)	(-2.9855183848e+00 -5.1050634809e+00 -7.0978238690e-19)	(2.1314729735e-02 -1.3202491736e-02 5.2590784490e-21)
9.0000000000e+00	(2.0964191302e-01 6.1984660771e-01 -5.6393866303e-19)	(1.8755382810e-01 6.3105730474e-01 -5.6210499465e-19)	(2.2088084923e-02 -1.1210697024e-02 -1.8336683839e-21)
1.0000000000e+01	(-5.0518845101e-01 -7.5852104721e-01 -5.2154750733e-19)	(-5.2766615804e-01 -7.4855307223e-01 -5.2237043887e-19)	(2.2477707031e-02 -9.9679749804e-03 8.2293154115e-22)
1.1000000000e+01	(-2.9904063422e-02 1.0003372822e-01 -5.0240076066e-19)	(-5.2522917315e-02 1.0920335276e-01 -5.0369538125e-19)	(2.2618853893e-02 -9.1696245443e-03 1.2946205892e-21)
1.2000000000e+01	(-1.0797126260e-02 1.1618717025e-01 -4.7089552779e-19)	(-3.3404955849e-02 1.2485005547e-01 -4.7265895116e-19)	(2.2607829588e-02 -8.6628852226e-03 1.7634233715e-21)
1.3000000000e+01	(7.3976122262e-02 2.5725550916e-01 -4.6392431399e-19)	(5.1480558679e-02 2.6560225254e-01 -4.6628465518e-19)	(2.2495563583e-02 -8.3467433790e-03 2.3603411847e-21)
1.4000000000e+01	(1.1187336776e-01 3.0807563078e-01 -4.3760731125e-19)	(8.9561160795e-02 3.1621100740e-01 -4.4000843997e-19)	(2.2312206962e-02 -8.1353766188e-03 2.4011287169e-21)
1.5000000000e+01	(1.3559433953e-01 3.1800803291e-01 -4.2827421481e-19)	(1.1350966606e-01 3.2599489456e-01 -4.3054595300e-19)	(2.2084673473e-02 -7.9868616444e-03 2.2717381864e-21)
1.6000000000e+01	(1.4028993455e-01 3.0857751387e-01 -3.9823646427e-19)	(1.1845481797e-01 3.1644943746e-01 -4.0037649710e-19)	(2.1835116580e-02 -7.8719235842e-03 2.1400328235e-21)
1.7000000000e+01	(1.6570580022e-01 3.4837934524e-01 -3.7990498572e-19)	(1.4413109568e-01 3.5615954328e-01 -3.8201212173e-19)	(2.1574704548e-02 -7.7801980383e-03 2.1071360114e-21)
1.8000000000e+01	(1.8267776978e-01 3.7254225436e-01 -3.6190337749e-19)	(1.6136722174e-01 3.8024832714e-01 -3.6396003717e-19)	(2.1310548037e-02 -7.7060727792e-03 2.0566596804e-21)
1.9000000000e+01	(1.9951750089e-01 3.9512153568e-01 -3.4604574968e-19)	(1.7846776506e-01 4.0275830937e-01 -3.4804131145e-19)	(2.1049735836e-02 -7.6367736872e-03 1.9955617724e-21)
2.0000000000e+01	(2.1203988434e-01 4.1647379908e-01 -3.3264097569e-19)	(1.9124892313e-01 4.2404365448e-01 -3.3453795445e-19)	(2.0790961205e-02 -7.5698553974e-03 1.8969787634e-21)
2.1000000000e+01	(2.2227561545e-01 4.3816472754e-01 -3.2011679110e-19)	(2.0174006157e-01 4.4566979091e-01 -3.2190074203e-19)	(2.0535553880e-02 -7.5050633750e-03 1.7839509236e-21)
2.2000000000e+01	(2.3390848007e-01 4.6077742720e-01 -3.0904903488e-19)	(2.1362669095e-01 4.6821873895e-01 -3.1072425455e-19)	(2.0281789125e-02 -7.4413117538e-03 1.6752196682e-21)
2.3000000000e+01	(2.4164170054e-01 4.7692141243e-01 -3.0056220875e-19)	(2.2160914321e-01 4.8430004140e-01 -3.0223645553e-19)	(2.0032557323e-02 -7.3786289752e-03 1.6742467837e-21)
2.4000000000e+01	(2.4440506722e-01 4.8346690235e-01 -2.9473106749e-19)	(2.2461471323e-01 4.9078566992e-01 -2.9636502418e-19)	(1.9790353994e-02 -7.3187675625e-03 1.6339566908e-21)
2.5000000000e+01	(2.4736717712e-01 4.9134382025e-01 -2.8476859754e-19)	(2.2781393917e-01 4.9860409951e-01 -2.8635331441e-19)	(1.9553237942e-02 -7.2602792606e-03 1.5847168721e-21)
2.6000000000e+01	(2.4772802119e-01 4.9234809964e-01 -2.7344595917e-19)	(2.2840360229e-01 4.9954880487e-01 -2.7499453918e-19)	(1.9324418899e-02 -7.2007052258e-03 1.5485800072e-21)
2.7000000000e+01	(2.4848230797e-01 4.9518923688e-01 -2.6245353933e-19)	(2.2937519991e-01 5.0232743748e-01 -2.6399102632e-19)	(1.9107108062e-02 -7.1382005994e-03 1.5374869869e-21)
2.8000000000e+01	(2.5007106494e-01 4.9906104850e-01 -2.5179559615e-19)	(2.3117126197e-01 5.0613448329e-01 -2.5328191766e-19)	(1.8899802973e-02 -7.0734347852e-03 1.4863215184e-21)
2.9000000000e+01	(2.4935206820e-01 4.9949117650e-01 -2.4482827822e-19)	(2.3065458445e-01 5.0650248031e-01 -2.4626560810e-19)	(1.8697483753e-02 -7.0113038064e-03 1.4373298841e-21)
3.0000000000e+01	(2.4968859899e-01 5.0050509377e-01 -2.3789321514e-19)	(2.3118521718e-01 5.0745724100e-01 -2.3923362488e-19)	(1.8503381804e-02 -6.9521472330e-03 1.3404097354e-21)
3.1000000000e+01	(2.4886733227e-01 4.9935508995e-01 -2.3110411400e-19)	(2.3054833716e-01 5.0624649225e-01 -2.3246601409e-19)	(1.8318995115e-02 -6.8914023020e-03 1.3619000947e-21)
3.2000000000e+01	(2.4654895697e-01 4.9671909938e-01 -2.2588188718e-19)	(2.2840847919e-01 5.0354728695e-01 -2.2715318872e-19)	(1.8140477781e-02 -6.8281875622e-03 1.2713015470e-21)
3.3000000000e+01	(2.4610878005e-01 4.9676945597e-01 -2.1957001001e-19)	(2.2814097272e-01 5.0353337974e-01 -2.2073536384e-19)	(1.7967807324e-02 -6.7639237694e-03 1.1653538375e-21)
3.4000000000e+01	(2.4599818047e-01 4.9768933727e-01 -2.1307451866e-19)	(2.2819587104e-01 5.0438877072e-01 -2.1417463157e-19)	(1.7802309434e-02 -6.6994334475e-03 1.1001129130e-21)
3.5000000000e+01	(2.4450831188e-01 4.9555703810e-01 -2.0839616518e-19)	(2.2686364029e-01 5.0219028145e-01 -2.0946477456e-19)	(1.7644671595e-02 -6.6332433550e-03 1.0686093799e-21)
3.6000000000e+01	(2.4343351459e-01 4.9524913727e-01 -2.0279751168e-19)	(2.2594265791e-01 5.0181653131e-01 -2.0386477382e-19)	(1.7490856679e-02 -6.5673940480e-03 1.0672621323e-21)
3.7000000000e+01	(2.4171147297e-01 4.9204818925e-01 -1.9822359998e-19)	(2.2436968277e-01 4.9855062538e-01 -1.9923255119e-19)	(1.7341790199e-02 -6.5024361355e-03 1.0089512177e-21)
3.8000000000e+01	(2.4161236987e-01 4.9295623565e-01 -1.9182105222e-19)	(2.2441710761e-01 4.9939468173e-01 -1.9271487440e-19)	(1.7195262259e-02 -6.4384460817e-03 8.9382218271e-22)
3.9000000000e+01	(2.3999493976e-01 4.9060603529e-01 -1.8755419634e-19)	(2.2294321578e-01 4.9698070175e-01 -1.8839691878e-19)	(1.7051723974e-02 -6.3746664591e-03 8.4272244145e-22)
4.0000000000e+01	(2.3934911423e-01 4.9061389276e-01 -1.8346915864e-19)	(2.2243704492e-01 4.9692565744e-01 -1.8427490374e-19)	(1.6912069312e-02 -6.3117646787e-03 8.0574509196e-22)
4.1000000000e+01	(2.3898982845e-01 4.9056735000e-01 -1.7972477332e-19)	(2.2221288459e-01 4.9681748972e-01 -1.8050334934e-19)	(1.6776943859e-02 -6.2501397184e-03 7.7857602108e-22)
4.2000000000e+01	(2.3867178927e-01 4.9138691791e-01 -1.7649484064e-19)	(2.2202525118e-01 4.9757666224e-01 -1.7722720946e-19)	(1.6646538089e-02 -6.1897443317e-03 7.3236881248e-22)
4.3000000000e+01	(2.3838170679e-01 4.9217602985e-01 -1.7296434286e-19)	(2.2186149286e-01 4.9830692030e-01 -1.7367021390e-19)	(1.6520213936e-02 -6.1308904473e-03 7.0587103392e-22)
4.4000000000e+01	(2.3807530399e-01 4.9260939727e-01 -1.6916815552e-19)	(2.2167796772e-01 4.9868332586e-01 -1.6988056989e-19)	(1.6397336274e-02 -6.0739285902e-03 7.1241436943e-22)
4.5000000000e+01	(2.3755670359e-01 4.9280302284e-01 -1.6617009975e-19)	(2.2127879830e-01 4.9882193930e-01 -1.6687602912e-19)	(1.6277905292e-02 -6.0189164573e-03 7.0592936690e-22)
4.6000000000e+01	(2.3739084446e-01 4.9348970778e-01 -1.6302716798e-19)	(2.2122860063e-01 4.9945555493e-01 -1.6371359491e-19)	(1.6162243828e-02 -5.9658471533e-03 6.8642692131e-22)
4.7000000000e+01	(2.3759974916e-01 4.9549213473e-01 -1.5914888457e-19)	(2.2155036536e-01 5.0140710647e-01 -1.5981029987e-19)	(1.6049383803e-02 -5.9149717469e-03 6.6141530400e-22)
4.8000000000e+01	(2.3742661213e-01 4.9614209134e-01 -1.5541540841e-19)	(2.2148700798e-01 5.0200871400e-01 -1.5609468474e-19)	(1.5939604151e-02 -5.8666226652e-03 6.7927632400e-22)
4.9000000000e+01	(2.3724700928e-01 4.9677737288e-01 -1.5219749991e-19)	(2.2141401839e-01 5.0259820910e-01 -1.5288672225e-19)	(1.5832990893e-02 -5.8208362155e-03 6.8922233505e-22)
5.0000000000e+01	(2.3771918637e-01 4.9894670837e-01 -1.4884677083e-19)	(2.2198971359e-01 5.0472456245e-01 -1.4954783246e-19)	(1.5729472785e-02 -5.7778540813e-03 7.0106162704e-22)
5.1000000000e+01	(2.3788412328e-01 5.0088950212e-01 -1.4560459466e-19)	(2.2225486794e-01 5.0662656213e-01 -1.4631938406e-19)	(1.5629255340e-02 -5.7370600140e-03 7.1478940390e-22)
5.2000000000e+01	(2.3824255803e-01 5.0306666578e-01 -1.4264567740e-19)	(2.2271001337e-01 5.0876576119e-01 -1.4337685130e-19)	(1.5532544656e-02 -5.6990954092e-03 7.3117389748e-22)
5.3000000000e+01	(2.3928402223e-01 5.0636371954e-01 -1.3925279695e-19)	(2.2384445820e-01 5.1202665808e-01 -1.3998879341e-19)	(1.5439564026e-02 -5.6629385470e-03 7.3599645163e-22)
5.4000000000e+01	(2.4007670501e-01 5.0907492603e-01 -1.3615348861e-19)	(2.2472707369e-01 5.1470324416e-01 -1.3685879912e-19)	(1.5349631321e-02 -5.6283181316e-03 7.0531051216e-22)
5.5000000000e+01	(2.4017908507e-01 5.0940778919e-01 -1.3380069512e-19)	(2.2491733705e-01 5.1500157651e-01 -1.3447473923e-19)	(1.5261748023e-02 -5.5937873168e-03 6.7404411154e-22)
5.6000000000e+01	(2.4106073934e-01 5.1196178151e-01 -1.3107010887e-19)	(2.2588432070e-01 5.1752147597e-01 -1.3170787312e-19)	(1.5176418637e-02 -5.5596944632e-03 6.3776424289e-22)
5.7000000000e+01	(2.4206477634e-01 5.1477750281e-01 -1.2806937555e-19)	(2.2697099904e-01 5.2030364797e-01 -1.2868168684e-19)	(1.5093777302e-02 -5.5261451559e-03 6.1231129644e-22)
5.8000000000e+01	(2.4322475070e-01 5.1796439389e-01 -1.2493565423e-19)	(2.2821076815e-01 5.2345761684e-01 -1.2552697528e-19)	(1.5013982542e-02 -5.4932229474e-03 5.9132104972e-22)
5.9000000000e+01	(2.4427965967e-01 5.2104775478e-01 -1.2199569518e-19)	(2.2934315292e-01 5.2650891621e-01 -1.2257273735e-19)	(1.4936506751e-02 -5.4611614240e-03 5.7704216668e-22)
6.0000000000e+01	(2.4565754589e-01 5.2482088118e-01 -1.1855415173e-19)	(2.3079607151e-01 5.3025133087e-01 -1.1911560174e-19)	(1.4861474383e-02 -5.4304496939e-03 5.6145000761e-22)
6.1000000000e+01	(2.4653931839e-01 5.2750494253e-01 -1.1606732017e-19)	(2.3175085357e-01 5.3290570138e-01 -1.1661456751e-19)	(1.4788464821e-02 -5.4007588489e-03 5.4724734011e-22)
6.2000000000e+01	(2.4766340466e-01 5.3053273387e-01 -1.1352345851e-19)	(2.3294594015e-01 5.3590455813e-01 -1.1406998894e-19)	(1.4717464516e-02 -5.3718242567e-03 5.4653043302e-22)
6.3000000000e+01	(2.4843264769e-01 5.3284409238e-01 -1.1158737192e-19)	(2.3378413706e-01 5.3818783498e-01 -1.1213521309e-19)	(1.4648510633e-02 -5.3437426035e-03 5.4784116546e-22)
6.4000000000e+01	(2.4920779041e-01 5.3535173682e-01 -1.0929932871e-19)	(2.3462643673e-01 5.4066819245e-01 -1.0984458009e-19)	(1.4581353675e-02 -5.3164556214e-03 5.4525138074e-22)
6.5000000000e+01	(2.4998180544e-01 5.3792660191e-01 -1.0711559225e-19)	(2.3546585428e-01 5.4321658699e-01 -1.0765971684e-19)	(1.4515951163e-02 -5.2899850811e-03 5.4412459251e-22)
6.6000000000e+01	(2.5048124995e-01 5.3962388271e-01 -1.0559811347e-19)	(2.3602901286e-01 5.4488820731e-01 -1.0614485942e-19)	(1.4452237094e-02 -5.2643245942e-03 5.4674595222e-22)
6.7000000000e+01	(2.5099548031e-01 5.4154084710e-01 -1.0380023822e-19)	(2.3660507674e-01 5.4678053362e-01 -1.0435280351e-19)	(1.4390403564e-02 -5.2396865183e-03 5.5256528891e-22)
6.8000000000e+01	(2.5155744396e-01 5.4369981631e-01 -1.0259933640e-19)	(2.3722734856e-01 5.4891570548e-01 -1.0314024217e-19)	(1.4330095400e-02 -5.2158891700e-03 5.4090576944e-22)
6.9000000000e+01	(2.5204718879e-01 5.4533908709e-01 -1.0155167058e-19)	(2.3777536003e-01 5.5053188802e-01 -1.0207845640e-19)	(1.4271828766e-02 -5.1928009275e-03 5.2678581372e-22)
7.0000000000e+01	(2.5258124907e-01 5.4726066932e-01 -1.0038164275e-19)	(2.3836637162e-01 5.5243114543e-01 -1.0089497504e-19)	(1.4214877450e-02 -5.1704761158e-03 5.1333228527e-22)
7.1000000000e+01	(2.5309635115e-01 5.4886765170e-01 -9.9353856387e-20)	(2.3893674044e-01 5.5401600601e-01 -9.9870573607e-20)	(1.4159610706e-02 -5.1483543182e-03 5.1671722025e-22)
7.2000000000e+01	(2.5369875648e-01 5.5070697352e-01 -9.8005828008e-20)	(2.3959312077e-01 5.5583352532e-01 -9.8523282785e-20)	(1.4105635703e-02 -5.1265517934e-03 5.1745477786e-22)
7.3000000000e+01	(2.5418720366e-01 5.5234858962e-01 -9.7254066098e-20)	(2.4013426554e-01 5.5745364564e-01 -9.7774360071e-20)	(1.4052938121e-02 -5.1050560215e-03 5.2029397325e-22)
7.4000000000e+01	(2.5478432834e-01 5.5440057495e-01 -9.6400365932e-20)	(2.4078296182e-01 5.5948454616e-01 -9.6924149888e-20)	(1.4001366514e-02 -5.0839712107e-03 5.2378395630e-22)
7.5000000000e+01	(2.5541868074e-01 5.5626032759e-01 -9.5693725693e-20)	(2.4146772649e-01 5.6132344332e-01 -9.6224409747e-20)	(1.3950954251e-02 -5.0631157244e-03 5.3068405375e-22)
7.6000000000e+01	(2.5602092593e-01 5.5834550277e-01 -9.4809327055e-20)	(2.4211915554e-01 5.6338809131e-01 -9.5347204338e-20)	(1.3901770394e-02 -5.0425885408e-03 5.3787728236e-22)
7.7000000000e+01	(2.5653884124e-01 5.6002788792e-01 -9.3970487311e-20)	(2.4268509909e-01 5.6505026843e-01 -9.4518083798e-20)	(1.3853742147e-02 -5.0223805070e-03 5.4759648693e-22)
7.8000000000e+01	(2.5714695305e-01 5.6195620610e-01 -9.3205672747e-20)	(2.4334006051e-01 5.6695867554e-01 -9.3763347490e-20)	(1.3806892537e-02 -5.0024694403e-03 5.5767474332e-22)
7.9000000000e+01	(2.5763176158e-01 5.6380743539e-01 -9.2504494024e-20)	(2.4387059336e-01 5.6879026105e-01 -9.3056262839e-20)	(1.3761168220e-02 -4.9828256610e-03 5.5176881553e-22)
8.0000000000e+01	(2.5830059484e-01 5.6587470443e-01 -9.1864668007e-20)	(2.4458407192e-01 5.7083825009e-01 -9.2417044259e-20)	(1.3716522919e-02 -4.9635456514e-03 5.5237625272e-22)
8.1000000000e+01	(2.5874668681e-01 5.6761273063e-01 -9.1450646857e-20)	(2.4507392869e-01 5.7255755687e-01 -9.2011571375e-20)	(1.3672758128e-02 -4.9448262355e-03 5.6092451802e-22)
8.2000000000e+01	(2.5925471157e-01 5.6927502594e-01 -9.1157896693e-20)	(2.4562457776e-01 5.7420161269e-01 -9.1732655826e-20)	(1.3630133818e-02 -4.9265867510e-03 5.7475913252e-22)
8.3000000000e+01	(2.5994092512e-01 5.7149584258e-01 -9.0425150518e-20)	(2.4635216642e-01 5.7640445544e-01 -9.1042287062e-20)	(1.3588758700e-02 -4.9086128615e-03 6.1713654486e-22)
8.4000000000e+01	(2.6072789038e-01 5.7360102946e-01 -9.0196591461e-20)	(2.4717993254e-01 5.7849205238e-01 -9.0764706339e-20)	(1.3547957841e-02 -4.8910229196e-03 5.6811487727e-22)
8.5000000000e+01	(2.6144124919e-01 5.7566738781e-01 -8.9632336917e-20)	(2.4793337918e-01 5.8054116612e-01 -9.0172037145e-20)	(1.3507870012e-02 -4.8737783045e-03 5.3970022825e-22)
8.6000000000e+01	(2.6197611967e-01 5.7721055680e-01 -8.9284031422e-20)	(2.4850815840e-01 5.8206772646e-01 -8.9812885984e-20)	(1.3467961270e-02 -4.8571696598e-03 5.2885456229e-22)
8.7000000000e+01	(2.6267467827e-01 5.7940818188e-01 -8.8863691808e-20)	(2.4924604991e-01 5.8424933199e-01 -8.9386731230e-20)	(1.3428628355e-02 -4.8411501087e-03 5.2303942152e-22)
8.8000000000e+01	(2.6325701285e-01 5.8123284145e-01 -8.8652602270e-20)	(2.4986674685e-01 5.8605816820e-01 -8.9172413887e-20)	(1.3390266010e-02 -4.8253267439e-03 5.1981161703e-22)
8.9000000000e+01	(2.6388129331e-01 5.8325051218e-01 -8.8436601141e-20)	(2.5052854021e-01 5.8806013625e-01 -8.8953208945e-20)	(1.3352753094e-02 -4.8096240741e-03 5.1660780439e-22)
9.0000000000e+01	(2.6450289220e-01 5.8490016130e-01 -8.8436636756e-20)	(2.5118727406e-01 5.8969426453e-01 -8.8948668974e-20)	(1.3315618144e-02 -4.7941032225e-03 5.1203221737e-22)
9.1000000000e+01	(2.6515024237e-01 5.8663218290e-01 -8.8342416639e-20)	(2.5187148178e-01 5.9141087170e-01 -8.8847081048e-20)	(1.3278760598e-02 -4.7786887944e-03 5.0466440886e-22)
9.2000000000e+01	(2.6574517331e-01 5.8842612140e-01 -8.8305336831e-20)	(2.5250278371e-01 5.9318951440e-01 -8.8799480946e-20)	(1.3242389600e-02 -4.7633929961e-03 4.9414411476e-22)
9.3000000000e+01	(2.6629690394e-01 5.9007941071e-01 -8.8386963413e-20)	(2.5309033814e-01 5.9482769227e-01 -8.8862818924e-20)	(1.3206565800e-02 -4.7482815629e-03 4.7585551163e-22)
9.4000000000e+01	(2.6691444496e-01 5.9192531456e-01 -8.8385542422e-20)	(2.5374315054e-01 5.9665863731e-01 -8.8827257387e-20)	(1.3171294425e-02 -4.7333227489e-03 4.4171496471e-22)
9.5000000000e+01	(2.6750812379e-01 5.9345145327e-01 -8.8451282954e-20)	(2.5437166256e-01 5.9817010415e-01 -8.8875696766e-20)	(1.3136461234e-02 -4.7186508806e-03 4.2441381213e-22)
9.6000000000e+01	(2.6816116140e-01 5.9501437281e-01 -8.8547351297e-20)	(2.5505925294e-01 5.9971867923e-01 -8.9045600153e-20)	(1.3101908459e-02 -4.7043064228e-03 4.9824885596e-22)
9.7000000000e+01	(2.6873574926e-01 5.9652350556e-01 -8.8631481408e-20)	(2.5566803657e-01 6.0121369356e-01 -8.9170885727e-20)	(1.3067712696e-02 -4.6901880017e-03 5.3940431896e-22)
9.8000000000e+01	(2.6936133353e-01 5.9816238728e-01 -8.8609843081e-20)	(2.5632735007e-01 6.0283858279e-01 -8.9178548942e-20)	(1.3033983461e-02 -4.6761955047e-03 5.6870586116e-22)
9.9000000000e+01	(2.6988974206e-01 5.9958373318e-01 -8.8671628654e-20)	(2.5688936866e-01 6.0424615994e-01 -8.9268447832e-20)	(1.3000373399e-02 -4.6624267689e-03 5.9681917801e-22)
1.0000000000e+02	(2.7041938014e-01 6.0098107768e-01 -8.8537504218e-20)	(2.5745225644e-01 6.0562982202e-01 -8.9154201109e-20)	(1.2967123700e-02 -4.6487443409e-03 6.1669689048e-22)
1.0100000000e+02	(2.7101351929e-01 6.0260465318e-01 -8.8481020564e-20)	(2.5807917196e-01 6.0723969780e-01 -8.9114399121e-20)	(1.2934347335e-02 -4.6350446256e-03 6.3337855673e-22)
1.0200000000e+02	(2.7161043613e-01 6.0425128513e-01 -8.8507836640e-20)	(2.5870848391e-01 6.0887261276e-01 -8.9156762464e-20)	(1.2901952220e-02 -4.6213276264e-03 6.4892582392e-22)
1.0300000000e+02	(2.7222645815e-01 6.0586760974e-01 -8.8566247641e-20)	(2.5935659358e-01 6.1047536064e-01 -8.9230490740e-20)	(1.2869864572e-02 -4.6077509011e-03 6.6424309816e-22)
1.0400000000e+02	(2.7277434835e-01 6.0735864491e-01 -8.8557108891e-20)	(2.5993610754e-01 6.1195295420e-01 -8.9236231480e-20)	(1.2838240814e-02 -4.5943092918e-03 6.7912258843e-22)
1.0500000000e+02	(2.7341335758e-01 6.0899726283e-01 -8.8645555211e-20)	(2.6060625280e-01 6.1357818981e-01 -8.9340955135e-20)	(1.2807104781e-02 -4.5809269767e-03 6.9539992366e-22)
1.0600000000e+02	(2.7401010337e-01 6.1054814240e-01 -8.8635345814e-20)	(2.6123367887e-01 6.1511579194e-01 -8.9349260740e-20)	(1.2776424499e-02 -4.5676495359e-03 7.1391492589e-22)
1.0700000000e+02	(2.7456485395e-01 6.1198933412e-01 -8.8663719288e-20)	(2.6181866587e-01 6.1654380145e-01 -8.9402657597e-20)	(1.2746188076e-02 -4.5544673326e-03 7.3893830932e-22)
1.0800000000e+02	(2.7510308618e-01 6.1352790951e-01 -8.8655083427e-20)	(2.6238664171e-01 6.1806923260e-01 -8.9443072665e-20)	(1.2716444466e-02 -4.5413230838e-03 7.8798923769e-22)
1.0900000000e+02	(2.7574643552e-01 6.1509289799e-01 -8.8977033205e-20)	(2.6305962879e-01 6.1962115687e-01 -8.9725613089e-20)	(1.2686806721e-02 -4.5282588742e-03 7.4857988422e-22)
1.1000000000e+02	(2.7632782935e-01 6.1658743368e-01 -8.9179699954e-20)	(2.6367048385e-01 6.2110270515e-01 -8.9896795619e-20)	(1.2657345499e-02 -4.5152714693e-03 7.1709566496e-22)
1.1100000000e+02	(2.7685815046e-01 6.1788095251e-01 -8.9315417575e-20)	(2.6423009375e-01 6.2238345049e-01 -9.0023312329e-20)	(1.2628056706e-02 -4.5024979833e-03 7.0789475428e-22)
1.1200000000e+02	(2.7743748688e-01 6.1946237407e-01 -8.9416234493e-20)	(2.6483841486e-01 6.2395226786e-01 -9.0117522150e-20)	(1.2599072019e-02 -4.4898937968e-03 7.0128765754e-22)
1.1300000000e+02	(2.7794556562e-01 6.2066616147e-01 -8.9555918695e-20)	(2.6537509090e-01 6.2514356063e-01 -9.0239752528e-20)	(1.2570474721e-02 -4.4773991615e-03 6.8383383307e-22)
1.1400000000e+02	(2.7855593063e-01 6.2223869444e-01 -8.9634723933e-20)	(2.6601376532e-01 6.2670362499e-01 -9.0344846727e-20)	(1.2542165308e-02 -4.4649305547e-03 7.1012279469e-22)
1.1500000000e+02	(2.7904618543e-01 6.2354169253e-01 -8.9756311342e-20)	(2.6653204717e-01 6.2799418817e-01 -9.0482188684e-20)	(1.2514138261e-02 -4.4524956393e-03 7.2587734153e-22)
1.1600000000e+02	(2.7963760983e-01 6.2503116347e-01 -8.9821412785e-20)	(2.6715125930e-01 6.2947119750e-01 -9.0558877432e-20)	(1.2486350523e-02 -4.4400340371e-03 7.3746464678e-22)
1.1700000000e+02	(2.8012124293e-01 6.2628437830e-01 -8.9928602822e-20)	(2.6766237479e-01 6.3071191987e-01 -9.0675395670e-20)	(1.2458868144e-02 -4.4275415666e-03 7.4679284847e-22)
1.1800000000e+02	(2.8065309656e-01 6.2759939452e-01 -9.0059076501e-20)	(2.6822137127e-01 6.3201446502e-01 -9.0813717028e-20)	(1.2431725291e-02 -4.4150704982e-03 7.5464052728e-22)
1.1900000000e+02	(2.8113482900e-01 6.2883383371e-01 -9.0120922075e-20)	(2.6872988476e-01 6.3323646885e-01 -9.0882349939e-20)	(1.2404944236e-02 -4.4026351400e-03 7.6142786400e-22)
1.2000000000e+02	(2.8161049371e-01 6.3004877763e-01 -9.0277658746e-20)	(2.6923195717e-01 6.3443901766e-01 -9.1045594350e-20)	(1.2378536548e-02 -4.3902400341e-03 7.6793560364e-22)
1.2100000000e+02	(2.8208196624e-01 6.3127389424e-01 -9.0395996914e-20)	(2.6972946544e-01 6.3565179516e-01 -9.1169518843e-20)	(1.2352500792e-02 -4.3779009174e-03 7.7352192865e-22)
1.2200000000e+02	(2.8253714585e-01 6.3249108662e-01 -9.0553736871e-20)	(2.7021030975e-01 6.3685672391e-01 -9.1332300725e-20)	(1.2326836101e-02 -4.3656372898e-03 7.7856385409e-22)
1.2300000000e+02	(2.8297627537e-01 6.3362816733e-01 -9.0642012150e-20)	(2.7067477558e-01 6.3798167769e-01 -9.1424302718e-20)	(1.2301499786e-02 -4.3535103628e-03 7.8229056800e-22)
1.2400000000e+02	(2.8342667910e-01 6.3482590166e-01 -9.0773726244e-20)	(2.7115018502e-01 6.3916746047e-01 -9.1558783638e-20)	(1.2276494077e-02 -4.3415588076e-03 7.8505739402e-22)
1.2500000000e+02	(2.8384307387e-01 6.3594491912e-01 -9.0866444525e-20)	(2.7159113969e-01 6.4027463528e-01 -9.1652230047e-20)	(1.2251934180e-02 -4.3297161593e-03 7.8578552205e-22)
1.2600000000e+02	(2.8426154272e-01 6.3702783323e-01 -9.1046436700e-20)	(2.7203376771e-01 6.4134582549e-01 -9.1827023266e-20)	(1.2227775008e-02 -4.3179922588e-03 7.8058656639e-22)
1.2700000000e+02	(2.8469236034e-01 6.3809967234e-01 -9.1103716330e-20)	(2.7248869983e-01 6.4240600889e-01 -9.1907822175e-20)	(1.2203660511e-02 -4.3063365503e-03 8.0410584495e-22)
1.2800000000e+02	(2.8509641931e-01 6.3916459114e-01 -9.1213684527e-20)	(2.7291673538e-01 6.4345934451e-01 -9.2037344590e-20)	(1.2179683925e-02 -4.2947533717e-03 8.2366006262e-22)
1.2900000000e+02	(2.8548581761e-01 6.4014485087e-01 -9.1290246792e-20)	(2.7333005766e-01 6.4442817878e-01 -9.2131535350e-20)	(1.2155759958e-02 -4.2833279160e-03 8.4128855760e-22)
1.3000000000e+02	(2.8590179887e-01 6.4118558000e-01 -9.1357121279e-20)	(2.7376981442e-01 6.4545760827e-01 -9.2217547767e-20)	(1.2131984449e-02 -4.2720282708e-03 8.6042648793e-22)
1.3100000000e+02	(2.8629643142e-01 6.4224127252e-01 -9.1435002381e-20)	(2.7418800566e-01 6.4650206968e-01 -9.2320689525e-20)	(1.2108425761e-02 -4.2607971618e-03 8.8568714389e-22)
1.3200000000e+02	(2.8673675371e-01 6.4327293213e-01 -9.1566532654e-20)	(2.7465171393e-01 6.4752260237e-01 -9.2441400989e-20)	(1.2085039777e-02 -4.2496702404e-03 8.7486833521e-22)
1.3300000000e+02	(2.8713519141e-01 6.4426402699e-01 -9.1621043638e-20)	(2.7507333580e-01 6.4850267306e-01 -9.2490494608e-20)	(1.2061855607e-02 -4.2386460647e-03 8.6945096966e-22)
1.3400000000e+02	(2.8749378400e-01 6.4518454872e-01 -9.1749394712e-20)	(2.7545484086e-01 6.4941221570e-01 -9.2617663094e-20)	(1.2038943133e-02 -4.2276669802e-03 8.6826838208e-22)
1.3500000000e+02	(2.8782984516e-01 6.4607687858e-01 -9.1875795295e-20)	(2.7581369245e-01 6.5029365725e-01 -9.2740239220e-20)	(1.2016152706e-02 -4.2167786642e-03 8.6444392412e-22)
1.3600000000e+02	(2.8815752542e-01 6.4692598753e-01 -9.1962439177e-20)	(2.7616400068e-01 6.5113197439e-01 -9.2825405548e-20)	(1.1993524738e-02 -4.2059868576e-03 8.6296637039e-22)
1.3700000000e+02	(2.8854726007e-01 6.4791352063e-01 -9.2014180274e-20)	(2.7657613338e-01 6.5210881892e-01 -9.2877180476e-20)	(1.1971126689e-02 -4.1952982949e-03 8.6300020183e-22)
1.3800000000e+02	(2.8882960086e-01 6.4869940703e-01 -9.2111688217e-20)	(2.7688066417e-01 6.5288414414e-01 -9.2976542273e-20)	(1.1948936687e-02 -4.1847371078e-03 8.6485405611e-22)
1.3900000000e+02	(2.8919013575e-01 6.4960496634e-01 -9.2103835859e-20)	(2.7726312089e-01 6.5377934123e-01 -9.2963762513e-20)	(1.1927014856e-02 -4.1743748967e-03 8.5992665425e-22)
1.4000000000e+02	(2.8955547078e-01 6.5051199188e-01 -9.2148002742e-20)	(2.7765004336e-01 6.5467605663e-01 -9.3002101926e-20)	(1.1905427422e-02 -4.1640647502e-03 8.5409918415e-22)
1.4100000000e+02	(2.8978919765e-01 6.5113941388e-01 -9.2278810995e-20)	(2.7790542916e-01 6.5529326131e-01 -9.3125694316e-20)	(1.1883768488e-02 -4.1538474325e-03 8.4688332151e-22)
1.4200000000e+02	(2.9015601100e-01 6.5203210532e-01 -9.2262871876e-20)	(2.7829367490e-01 6.5617567923e-01 -9.3097201851e-20)	(1.1862336103e-02 -4.1435739145e-03 8.3432997459e-22)
1.4300000000e+02	(2.9033276703e-01 6.5255803814e-01 -9.2340848995e-20)	(2.7849176573e-01 6.5669129390e-01 -9.3190736041e-20)	(1.1841001307e-02 -4.1332557643e-03 8.4988704538e-22)
1.4400000000e+02	(2.9064049825e-01 6.5338249928e-01 -9.2295312044e-20)	(2.7882075668e-01 6.5750542357e-01 -9.3154061125e-20)	(1.1819741576e-02 -4.1229242904e-03 8.5874908143e-22)
1.4500000000e+02	(2.9085376264e-01 6.5397252944e-01 -9.2380574983e-20)	(2.7905516897e-01 6.5808515914e-01 -9.3245544051e-20)	(1.1798593665e-02 -4.1126296971e-03 8.6496906808e-22)
1.4600000000e+02	(2.9115006462e-01 6.5468917369e-01 -9.2403878243e-20)	(2.7937241056e-01 6.5879150747e-01 -9.3273441308e-20)	(1.1777654064e-02 -4.1023337780e-03 8.6956306411e-22)
1.4700000000e+02	(2.9135635381e-01 6.5531002787e-01 -9.2429072153e-20)	(2.7959945766e-01 6.5940208795e-01 -9.3302570427e-20)	(1.1756896157e-02 -4.0920600829e-03 8.7349827343e-22)
1.4800000000e+02	(2.9158975259e-01 6.5588789233e-01 -9.2443627619e-20)	(2.7985342033e-01 6.5996969412e-01 -9.3320818060e-20)	(1.1736332251e-02 -4.0818017868e-03 8.7719044127e-22)
1.4900000000e+02	(2.9183074700e-01 6.5650038320e-01 -9.2450208282e-20)	(2.8011480926e-01 6.6057197579e-01 -9.3331038634e-20)	(1.1715937742e-02 -4.0715925905e-03 8.8083035181e-22)
1.5000000000e+02	(2.9203368587e-01 6.5713326730e-01 -9.2457170822e-20)	(2.8033797081e-01 6.6119472039e-01 -9.3342776644e-20)	(1.1695715065e-02 -4.0614530862e-03 8.8560582178e-22)
1.5100000000e+02	(2.9224641410e-01 6.5768493441e-01 -9.2450195439e-20)	(2.8057074316e-01 6.6173631860e-01 -9.3336976321e-20)	(1.1675670933e-02 -4.0513841847e-03 8.8678088127e-22)
1.5200000000e+02	(2.9244420364e-01 6.5825312849e-01 -9.2468722149e-20)	(2.8078842724e-01 6.6229453847e-01 -9.3351943340e-20)	(1.1655776394e-02 -4.0414099780e-03 8.8322119122e-22)
1.5300000000e+02	(2.9263319433e-01 6.5877805313e-01 -9.2529354967e-20)	(2.8099715043e-01 6.6280959339e-01 -9.3410296664e-20)	(1.1636043902e-02 -4.0315402546e-03 8.8094169772e-22)
1.5400000000e+02	(2.9281965630e-01 6.5930786198e-01 -9.2530952879e-20)	(2.8120318042e-01 6.6332964216e-01 -9.3410255272e-20)	(1.1616475871e-02 -4.0217801801e-03 8.7930239335e-22)
1.5500000000e+02	(2.9298250799e-01 6.5974651884e-01 -9.2586017760e-20)	(2.8138542632e-01 6.6375865820e-01 -9.3464402874e-20)	(1.1597081666e-02 -4.0121393598e-03 8.7838511353e-22)
1.5600000000e+02	(2.9317256549e-01 6.6026642762e-01 -9.2582747513e-20)	(2.8159471195e-01 6.6426904082e-01 -9.3460568959e-20)	(1.1577853535e-02 -4.0026131989e-03 8.7782144551e-22)
1.5700000000e+02	(2.9332583094e-01 6.6073498776e-01 -9.2607550797e-20)	(2.8176698485e-01 6.6472817250e-01 -9.3485229796e-20)	(1.1558846088e-02 -3.9931847431e-03 8.7767899932e-22)
1.5800000000e+02	(2.9346365430e-01 6.6113063715e-01 -9.2645443083e-20)	(2.8192354391e-01 6.6511438645e-01 -9.3523336499e-20)	(1.1540110394e-02 -3.9837493055e-03 8.7789341544e-22)
1.5900000000e+02	(2.9360125767e-01 6.6154829490e-01 -9.2700058850e-20)	(2.8207991114e-01 6.6552265050e-01 -9.3578495737e-20)	(1.1521346526e-02 -3.9743556022e-03 8.7843688701e-22)
1.6000000000e+02	(2.9374548852e-01 6.6192182002e-01 -9.2737233623e-20)	(2.8224285862e-01 6.6588686256e-01 -9.3616181300e-20)	(1.1502629900e-02 -3.9650425459e-03 8.7894767741e-22)
1.6100000000e+02	(2.9385477319e-01 6.6231945567e-01 -9.2758817892e-20)	(2.8237078136e-01 6.6627530131e-01 -9.3638389410e-20)	(1.1483991832e-02 -3.9558456397e-03 8.7957151750e-22)
1.6200000000e+02	(2.9396592825e-01 6.6268490043e-01 -9.2822242820e-20)	(2.8250042530e-01 6.6663167021e-01 -9.3702528429e-20)	(1.1465502952e-02 -3.9467697747e-03 8.8028560889e-22)
1.6300000000e+02	(2.9406391572e-01 6.6301135207e-01 -9.2858206798e-20)	(2.8261674066e-01 6.6694916478e-01 -9.3739156733e-20)	(1.1447175059e-02 -3.9378127055e-03 8.8094993541e-22)
1.6400000000e+02	(2.9420251395e-01 6.6346077082e-01 -9.2841221578e-20)	(2.8277332206e-01 6.6738961605e-01 -9.3722474505e-20)	(1.1429191885e-02 -3.9288452286e-03 8.8125292694e-22)
1.6500000000e+02	(2.9431204488e-01 6.6380888549e-01 -9.2801047504e-20)	(2.8290107728e-01 6.6772886458e-01 -9.3682398058e-20)	(1.1410967607e-02 -3.9199790853e-03 8.8135055473e-22)
1.6600000000e+02	(2.9436908341e-01 6.6403937635e-01 -9.2939552907e-20)	(2.8297634695e-01 6.6795055499e-01 -9.3820877177e-20)	(1.1392736460e-02 -3.9111786418e-03 8.8132426955e-22)