# Moment         
# CofR           : (0.0000000000e+00 0.0000000000e+00 0.0000000000e+00)
#                
# Time           	(total_x total_y total_z)	(pressure_x pressure_y pressure_z)	(viscous_x viscous_y viscous_z)
1.0000000000e+00	(-5.1138034465e+01 2.8235957422e+01 3.5942821447e+03)	(-5.1138048464e+01 2.8235832648e+01 3.5942814516e+03)	(1.3998958522e-05 1.2477414127e-04 6.9313799060e-04)
2.0000000000e+00	(1.6055307192e+01 -8.8262320621e+00 -1.1262186876e+03)	(1.6054362042e+01 -8.8258183346e+00 -1.1261515204e+03)	(9.4515022796e-04 -4.1372745258e-04 -6.7167207103e-02)
3.0000000000e+00	(-4.8143845644e+00 2.6219087174e+00 3.3807144021e+02)	(-4.8146287709e+00 2.6218788350e+00 3.3808675689e+02)	(2.4420653784e-04 2.9882388185e-05 -1.5316680885e-02)
4.0000000000e+00	(1.6567536281e+00 -9.0519059144e-01 -1.1617024839e+02)	(1.6565157530e+00 -9.0521199167e-01 -1.1615513906e+02)	(2.3787509447e-04 2.1400224564e-05 -1.5109331746e-02)
5.0000000000e+00	(-5.1529533892e-01 2.7956666701e-01 3.5867552811e+01)	(-5.1544088109e-01 2.7949455930e-01 3.5876087464e+01)	(1.4554216958e-04 7.2107714795e-05 -8.5346527180e-03)
6.0000000000e+00	(1.8834471148e-01 -1.0397245255e-01 -1.3270178279e+01)	(1.8823571801e-01 -1.0405973284e-01 -1.3264201067e+01)	(1.0899347115e-04 8.7280293453e-05 -5.9772115875e-03)
7.0000000000e+00	(-4.7231565316e-02 2.4826641591e-02 3.1246537618e+00)	(-4.7313064399e-02 2.4726384442e-02 3.1286687943e+00)	(8.1499082170e-05 1.0025714885e-04 -4.0150324763e-03)
8.0000000000e+00	(2.5591329863e-02 -1.4821018275e-02 -1.9143560047e+00)	(2.5525317404e-02 -1.4927591924e-02 -1.9114471868e+00)	(6.6012458682e-05 1.0657364868e-04 -2.9088179592e-03)
9.0000000000e+00	(-3.0992330386e-03 1.0482095651e-03 7.7758823255e-02)	(-3.1552865237e-03 9.3776914049e-04 7.9947270956e-02)	(5.6053485118e-05 1.1044042462e-04 -2.1884477016e-03)
1.0000000000e+01	(3.7926052360e-03 -2.5259422551e-03 -3.8212696791e-01)	(3.7427653611e-03 -2.6383307902e-03 -3.8037906773e-01)	(4.9839874902e-05 1.1238853516e-04 -1.7479001741e-03)
1.1000000000e+01	(-5.0016864109e-04 -1.4952031711e-04 -9.6557557947e-02)	(-5.4601676381e-04 -2.6261458657e-04 -9.5087723212e-02)	(4.5848122722e-05 1.1309426946e-04 -1.4698347349e-03)
1.2000000000e+01	(-5.8093585123e-04 -5.3985631302e-05 -9.0261189603e-02)	(-6.2425027735e-04 -1.6702477924e-04 -8.8963794610e-02)	(4.3314426113e-05 1.1303914794e-04 -1.2973949931e-03)
1.3000000000e+01	(-1.2862775458e-03 3.6988061131e-04 -4.3111675424e-02)	(-1.3280112627e-03 2.5740279339e-04 -4.1914741698e-02)	(4.1733716895e-05 1.1247781791e-04 -1.1969337262e-03)
1.4000000000e+01	(-1.5403781539e-03 5.5936683878e-04 -2.3441456255e-02)	(-1.5810550370e-03 4.4780580397e-04 -2.2304533652e-02)	(4.0676883094e-05 1.1156103481e-04 -1.1369226025e-03)
1.5000000000e+01	(-1.5900401646e-03 6.7797169765e-04 -1.3661064410e-02)	(-1.6299744728e-03 5.6754833028e-04 -1.2560071999e-02)	(3.9934308222e-05 1.1042336737e-04 -1.1009924111e-03)
1.6000000000e+01	(-1.5428875694e-03 7.0144967277e-04 -5.7641725931e-03)	(-1.5822471873e-03 5.9227408987e-04 -4.6863374496e-03)	(3.9359617921e-05 1.0917558290e-04 -1.0778351435e-03)
1.7000000000e+01	(-1.7418967262e-03 8.2852900112e-04 1.2010304111e-02)	(-1.7807977164e-03 7.2065547838e-04 1.3074886199e-02)	(3.8900990191e-05 1.0787352274e-04 -1.0645820879e-03)
1.8000000000e+01	(-1.8627112718e-03 9.1338884888e-04 2.5001892050e-02)	(-1.9012416357e-03 8.0683610869e-04 2.6060017521e-02)	(3.8530363896e-05 1.0655274019e-04 -1.0581254711e-03)
1.9000000000e+01	(-1.9756076784e-03 9.9758750447e-04 3.7446873649e-02)	(-2.0137915468e-03 8.9233882529e-04 3.8500521537e-02)	(3.8183868436e-05 1.0524867918e-04 -1.0536478876e-03)
2.0000000000e+01	(-2.0823689954e-03 1.0601994217e-03 4.7259215256e-02)	(-2.1202182724e-03 9.5624461567e-04 4.8309483451e-02)	(3.7849276987e-05 1.0395480603e-04 -1.0502681953e-03)
2.1000000000e+01	(-2.1908236377e-03 1.1113780772e-03 5.5893735537e-02)	(-2.2283489546e-03 1.0087003078e-03 5.6941222152e-02)	(3.7525316875e-05 1.0267776940e-04 -1.0474866143e-03)
2.2000000000e+01	(-2.3038871360e-03 1.1695424004e-03 6.5086618755e-02)	(-2.3410936948e-03 1.0681334547e-03 6.6131268679e-02)	(3.7206558769e-05 1.0140894563e-04 -1.0446499244e-03)
2.3000000000e+01	(-2.3846070621e-03 1.2082085027e-03 7.1225298994e-02)	(-2.4215002070e-03 1.1080457161e-03 7.2266310514e-02)	(3.6893144876e-05 1.0016278662e-04 -1.0410115194e-03)
2.4000000000e+01	(-2.4173345118e-03 1.2220253361e-03 7.4588778108e-02)	(-2.4539283496e-03 1.1230735661e-03 7.5626610323e-02)	(3.6593837812e-05 9.8951769971e-05 -1.0378322148e-03)
2.5000000000e+01	(-2.4567191012e-03 1.2368358856e-03 7.7940898464e-02)	(-2.4930204976e-03 1.1390696959e-03 7.8975820696e-02)	(3.6301396303e-05 9.7766189711e-05 -1.0349222320e-03)
2.6000000000e+01	(-2.4617404982e-03 1.2386401059e-03 8.0428105362e-02)	(-2.4977440243e-03 1.1420180114e-03 8.1459208169e-02)	(3.6003526129e-05 9.6622094495e-05 -1.0311028064e-03)
2.7000000000e+01	(-2.4759461844e-03 1.2424115399e-03 8.2623355737e-02)	(-2.5116371874e-03 1.1468759996e-03 8.3649063754e-02)	(3.5691002997e-05 9.5535540311e-05 -1.0257080172e-03)
2.8000000000e+01	(-2.4953052425e-03 1.2503553247e-03 8.5892455318e-02)	(-2.5306724164e-03 1.1558563099e-03 8.6911317331e-02)	(3.5367173926e-05 9.4499014864e-05 -1.0188620138e-03)
2.9000000000e+01	(-2.4974558825e-03 1.2467603410e-03 8.6724769336e-02)	(-2.5325124015e-03 1.1532729222e-03 8.7737331581e-02)	(3.5056519032e-05 9.3487418767e-05 -1.0125622446e-03)
3.0000000000e+01	(-2.5025254688e-03 1.2484429949e-03 8.8089296784e-02)	(-2.5372862050e-03 1.1559260859e-03 8.9095941649e-02)	(3.4760736165e-05 9.2516909020e-05 -1.0066448652e-03)
3.1000000000e+01	(-2.4967754497e-03 1.2443366614e-03 8.8665007721e-02)	(-2.5312324613e-03 1.1527416858e-03 8.9664466112e-02)	(3.4457011510e-05 9.1594975577e-05 -9.9945839155e-04)
3.2000000000e+01	(-2.4835954969e-03 1.2327447849e-03 8.8357053980e-02)	(-2.5177364347e-03 1.1420423960e-03 8.9348320107e-02)	(3.4140937811e-05 9.0702388907e-05 -9.9126612713e-04)
3.3000000000e+01	(-2.4838472799e-03 1.2305439002e-03 8.9029626475e-02)	(-2.5176668987e-03 1.1407048636e-03 9.0012187920e-02)	(3.3819618847e-05 8.9839036619e-05 -9.8256144563e-04)
3.4000000000e+01	(-2.4884466864e-03 1.2299909023e-03 8.9886737684e-02)	(-2.5219438536e-03 1.1409793552e-03 9.0860232066e-02)	(3.3497167237e-05 8.9011547168e-05 -9.7349438179e-04)
3.5000000000e+01	(-2.4777851905e-03 1.2225415594e-03 8.9700451862e-02)	(-2.5109514073e-03 1.1343182014e-03 9.0663710525e-02)	(3.3166216775e-05 8.8223357975e-05 -9.6325866322e-04)
3.6000000000e+01	(-2.4762456863e-03 1.2171675729e-03 8.9855528145e-02)	(-2.5090826566e-03 1.1297132895e-03 9.0808797719e-02)	(3.2836970240e-05 8.7454283395e-05 -9.5326957391e-04)
3.7000000000e+01	(-2.4602409462e-03 1.2085573648e-03 8.9530924496e-02)	(-2.4927531269e-03 1.1218484138e-03 9.0474497637e-02)	(3.2512180678e-05 8.6708950993e-05 -9.4357314107e-04)
3.8000000000e+01	(-2.4647811782e-03 1.2080618493e-03 9.0420681777e-02)	(-2.4969734086e-03 1.1220855380e-03 9.1354727674e-02)	(3.2192230409e-05 8.5976311297e-05 -9.3404589686e-04)
3.9000000000e+01	(-2.4530301765e-03 1.1999746988e-03 9.0002436467e-02)	(-2.4849035087e-03 1.1147160789e-03 9.0926946142e-02)	(3.1873332296e-05 8.5258619871e-05 -9.2450967482e-04)
4.0000000000e+01	(-2.4530694638e-03 1.1967455712e-03 9.0416349286e-02)	(-2.4846282872e-03 1.1121852246e-03 9.1331526871e-02)	(3.1558823393e-05 8.4560346561e-05 -9.1517758423e-04)
4.1000000000e+01	(-2.4528367500e-03 1.1949491423e-03 9.0804758591e-02)	(-2.4840874486e-03 1.1110644230e-03 9.1710899094e-02)	(3.1250698592e-05 8.3884719293e-05 -9.0614050243e-04)
4.2000000000e+01	(-2.4569345895e-03 1.1933589464e-03 9.1380863490e-02)	(-2.4878833112e-03 1.1101262559e-03 9.2278101370e-02)	(3.0948721658e-05 8.3232690447e-05 -8.9723788043e-04)
4.3000000000e+01	(-2.4608801493e-03 1.1919085340e-03 9.1866353510e-02)	(-2.4915346015e-03 1.1093074643e-03 9.2754898996e-02)	(3.0654452237e-05 8.2601069680e-05 -8.8854548573e-04)
4.4000000000e+01	(-2.4630469864e-03 1.1903765200e-03 9.2450895214e-02)	(-2.4934166293e-03 1.1083898386e-03 9.3330972425e-02)	(3.0369642951e-05 8.1986681368e-05 -8.8007721096e-04)
4.5000000000e+01	(-2.4640151142e-03 1.1877835180e-03 9.2784394628e-02)	(-2.4941096965e-03 1.1063939915e-03 9.3656263687e-02)	(3.0094582287e-05 8.1389526459e-05 -8.7186905873e-04)
4.6000000000e+01	(-2.4674485389e-03 1.1869542223e-03 9.3379317231e-02)	(-2.4972777747e-03 1.1061430032e-03 9.4243221345e-02)	(2.9829235767e-05 8.0811219141e-05 -8.6390411348e-04)
4.7000000000e+01	(-2.4774606736e-03 1.1879987458e-03 9.4305755354e-02)	(-2.5070355324e-03 1.1077518268e-03 9.5162242311e-02)	(2.9574858734e-05 8.0246919017e-05 -8.5648695694e-04)
4.8000000000e+01	(-2.4807104567e-03 1.1871330606e-03 9.4908010886e-02)	(-2.5100435700e-03 1.1074350399e-03 9.5757627459e-02)	(2.9333113326e-05 7.9698020755e-05 -8.4961657277e-04)
4.9000000000e+01	(-2.4838868644e-03 1.1862350464e-03 9.5605897286e-02)	(-2.5129910455e-03 1.1070700920e-03 9.6449175925e-02)	(2.9104181078e-05 7.9164954464e-05 -8.4327863915e-04)
5.0000000000e+01	(-2.4947335419e-03 1.1885959319e-03 9.6756733893e-02)	(-2.5236228123e-03 1.1099485679e-03 9.7594263860e-02)	(2.8889270406e-05 7.8647363923e-05 -8.3752996614e-04)
5.1000000000e+01	(-2.5044475106e-03 1.1894206164e-03 9.7668612956e-02)	(-2.5331328107e-03 1.1112743397e-03 9.8500803303e-02)	(2.8685300070e-05 7.8146276699e-05 -8.3219034692e-04)
5.2000000000e+01	(-2.5153333289e-03 1.1912127901e-03 9.8802623814e-02)	(-2.5438288059e-03 1.1135500668e-03 9.9630125866e-02)	(2.8495477046e-05 7.7662723282e-05 -8.2750205137e-04)
5.3000000000e+01	(-2.5318185977e-03 1.1964201112e-03 1.0026430446e-01)	(-2.5601332904e-03 1.1192222910e-03 1.0108749646e-01)	(2.8314692735e-05 7.7197820129e-05 -8.2319200418e-04)
5.4000000000e+01	(-2.5453746301e-03 1.2003835251e-03 1.0145022368e-01)	(-2.5735162208e-03 1.1236353685e-03 1.0226942078e-01)	(2.8141590658e-05 7.6748156604e-05 -8.1919709528e-04)
5.5000000000e+01	(-2.5470389460e-03 1.2008954253e-03 1.0178684303e-01)	(-2.5750078826e-03 1.1245866852e-03 1.0260193421e-01)	(2.7968936584e-05 7.6308740115e-05 -8.1509118825e-04)
5.6000000000e+01	(-2.5598089075e-03 1.2053036967e-03 1.0292968955e-01)	(-2.5876073798e-03 1.1294216035e-03 1.0374066306e-01)	(2.7798472316e-05 7.5882093185e-05 -8.1097350446e-04)
5.7000000000e+01	(-2.5738875141e-03 1.2103238817e-03 1.0430378981e-01)	(-2.6015182398e-03 1.1348549952e-03 1.0511064490e-01)	(2.7630725779e-05 7.5468886511e-05 -8.0685508868e-04)
5.8000000000e+01	(-2.5898219695e-03 1.2161237535e-03 1.0575952641e-01)	(-2.6172880842e-03 1.1410538408e-03 1.0656225850e-01)	(2.7466114737e-05 7.5069912710e-05 -8.0273209664e-04)
5.9000000000e+01	(-2.6052387739e-03 1.2213982983e-03 1.0708177827e-01)	(-2.6325445810e-03 1.1467157646e-03 1.0788051234e-01)	(2.7305807120e-05 7.4682533755e-05 -7.9873407022e-04)
6.0000000000e+01	(-2.6241044059e-03 1.2282877295e-03 1.0876580169e-01)	(-2.6512566543e-03 1.1539803575e-03 1.0956079665e-01)	(2.7152248470e-05 7.4307371916e-05 -7.9499495697e-04)
6.1000000000e+01	(-2.6375247126e-03 1.2326965919e-03 1.0991212230e-01)	(-2.6645285069e-03 1.1587542678e-03 1.1070349814e-01)	(2.7003794244e-05 7.3942324107e-05 -7.9137583485e-04)
6.2000000000e+01	(-2.6526636693e-03 1.2383170233e-03 1.1120865353e-01)	(-2.6795227906e-03 1.1647297007e-03 1.1199642908e-01)	(2.6859121283e-05 7.3587322580e-05 -7.8777555130e-04)
6.3000000000e+01	(-2.6642204619e-03 1.2421632384e-03 1.1228198595e-01)	(-2.6909391749e-03 1.1689206853e-03 1.1306624141e-01)	(2.6718713018e-05 7.3242553163e-05 -7.8425546403e-04)
6.4000000000e+01	(-2.6767586841e-03 1.2460389520e-03 1.1333482393e-01)	(-2.7033409622e-03 1.1731321837e-03 1.1411566598e-01)	(2.6582278107e-05 7.2906768374e-05 -7.8084204937e-04)
6.5000000000e+01	(-2.6896330095e-03 1.2499090272e-03 1.1445117765e-01)	(-2.7160829349e-03 1.1773292714e-03 1.1522874116e-01)	(2.6449925406e-05 7.2579755815e-05 -7.7756351588e-04)
6.6000000000e+01	(-2.6981194136e-03 1.2524062498e-03 1.1518938581e-01)	(-2.7244410365e-03 1.1801450643e-03 1.1596376140e-01)	(2.6321622971e-05 7.2261185468e-05 -7.7437558167e-04)
6.7000000000e+01	(-2.7077042355e-03 1.2549774015e-03 1.1600213901e-01)	(-2.7339026681e-03 1.1830253837e-03 1.1677343045e-01)	(2.6198432592e-05 7.1952017822e-05 -7.7129144015e-04)
6.8000000000e+01	(-2.7184990815e-03 1.2577872198e-03 1.1674844219e-01)	(-2.7445785274e-03 1.1861367428e-03 1.1751673385e-01)	(2.6079445850e-05 7.1650476998e-05 -7.6829165400e-04)
6.9000000000e+01	(-2.7266954355e-03 1.2602359440e-03 1.1743469940e-01)	(-2.7526594401e-03 1.1888768001e-03 1.1820007786e-01)	(2.5964004638e-05 7.1359143832e-05 -7.6537845805e-04)
7.0000000000e+01	(-2.7363033466e-03 1.2629062453e-03 1.1813835092e-01)	(-2.7621557272e-03 1.1918318581e-03 1.1890106332e-01)	(2.5852380579e-05 7.1074387250e-05 -7.6271240088e-04)
7.1000000000e+01	(-2.7443382585e-03 1.2654817557e-03 1.1880175204e-01)	(-2.7700800301e-03 1.1946837022e-03 1.1956168244e-01)	(2.5741771591e-05 7.0798053529e-05 -7.5993039933e-04)
7.2000000000e+01	(-2.7535348676e-03 1.2684937824e-03 1.1957356405e-01)	(-2.7791676266e-03 1.1979656039e-03 1.2033067050e-01)	(2.5632758967e-05 7.0528178517e-05 -7.5710645583e-04)
7.3000000000e+01	(-2.7617429481e-03 1.2709360183e-03 1.2019980194e-01)	(-2.7872682282e-03 1.2006713277e-03 1.2095405190e-01)	(2.5525280107e-05 7.0264690603e-05 -7.5424995229e-04)
7.4000000000e+01	(-2.7720028747e-03 1.2739216417e-03 1.2095206577e-01)	(-2.7974227308e-03 1.2039148091e-03 1.2170350286e-01)	(2.5419856053e-05 7.0006832571e-05 -7.5143709080e-04)
7.5000000000e+01	(-2.7813016380e-03 1.2770934037e-03 1.2168388648e-01)	(-2.8066172166e-03 1.2073386325e-03 1.2243249374e-01)	(2.5315578622e-05 6.9754771253e-05 -7.4860726133e-04)
7.6000000000e+01	(-2.7917275138e-03 1.2801046297e-03 1.2246533067e-01)	(-2.8169404565e-03 1.2105957777e-03 1.2321111580e-01)	(2.5212942704e-05 6.9508851972e-05 -7.4578513087e-04)
7.7000000000e+01	(-2.8001394396e-03 1.2826942062e-03 1.2315898759e-01)	(-2.8252513421e-03 1.2134254954e-03 1.2390196337e-01)	(2.5111902535e-05 6.9268710733e-05 -7.4297578158e-04)
7.8000000000e+01	(-2.8097810305e-03 1.2857347652e-03 1.2389752117e-01)	(-2.8347933777e-03 1.2167003025e-03 1.2463767980e-01)	(2.5012347201e-05 6.9034462687e-05 -7.4015863458e-04)
7.9000000000e+01	(-2.8190371769e-03 1.2881588079e-03 1.2456955475e-01)	(-2.8439513052e-03 1.2193529668e-03 1.2530688078e-01)	(2.4914128305e-05 6.8805841101e-05 -7.3732603096e-04)
8.0000000000e+01	(-2.8293735222e-03 1.2915029742e-03 1.2534856372e-01)	(-2.8541912504e-03 1.2229203596e-03 1.2608307803e-01)	(2.4817728257e-05 6.8582614593e-05 -7.3451431032e-04)
8.1000000000e+01	(-2.8380636532e-03 1.2937334341e-03 1.2593155613e-01)	(-2.8627877843e-03 1.2253696434e-03 1.2666335672e-01)	(2.4724131178e-05 6.8363790638e-05 -7.3180058189e-04)
8.2000000000e+01	(-2.8463751297e-03 1.2962735579e-03 1.2659094742e-01)	(-2.8710080634e-03 1.2281228888e-03 1.2732007390e-01)	(2.4632933755e-05 6.8150669090e-05 -7.2912647649e-04)
8.3000000000e+01	(-2.8574792129e-03 1.2997046256e-03 1.2740550757e-01)	(-2.8820222772e-03 1.2317608321e-03 1.2813198271e-01)	(2.4543064307e-05 6.7943793502e-05 -7.2647514457e-04)
8.4000000000e+01	(-2.8680051473e-03 1.3036394519e-03 1.2821306225e-01)	(-2.8924602619e-03 1.2358996627e-03 1.2893692675e-01)	(2.4455114598e-05 6.7739789203e-05 -7.2386449664e-04)
8.5000000000e+01	(-2.8783369391e-03 1.3072062460e-03 1.2904423494e-01)	(-2.9027058306e-03 1.2396668959e-03 1.2976551001e-01)	(2.4368891522e-05 6.7539350060e-05 -7.2127507477e-04)
8.6000000000e+01	(-2.8860527840e-03 1.3098805983e-03 1.2967310133e-01)	(-2.9103386323e-03 1.2425407920e-03 1.3039200440e-01)	(2.4285848299e-05 6.7339806352e-05 -7.1890306520e-04)
8.7000000000e+01	(-2.8970409094e-03 1.3133733913e-03 1.3047589992e-01)	(-2.9212466600e-03 1.2462302496e-03 1.3119260412e-01)	(2.4205750543e-05 6.7143141776e-05 -7.1670419638e-04)
8.8000000000e+01	(-2.9061642073e-03 1.3162850643e-03 1.3116143535e-01)	(-2.9302908410e-03 1.2493337342e-03 1.3187588674e-01)	(2.4126633720e-05 6.6951330049e-05 -7.1445139349e-04)
8.9000000000e+01	(-2.9162525609e-03 1.3194064665e-03 1.3185347531e-01)	(-2.9403006813e-03 1.2526427011e-03 1.3256564525e-01)	(2.4048120371e-05 6.6763765471e-05 -7.1216994057e-04)
9.0000000000e+01	(-2.9245008065e-03 1.3225144610e-03 1.3248692798e-01)	(-2.9484713226e-03 1.2559363703e-03 1.3319680504e-01)	(2.3970516112e-05 6.6578090719e-05 -7.0987706087e-04)
9.1000000000e+01	(-2.9331609145e-03 1.3257512119e-03 1.3316151088e-01)	(-2.9570543585e-03 1.2593574089e-03 1.3386909700e-01)	(2.3893443972e-05 6.6393802989e-05 -7.0758611354e-04)
9.2000000000e+01	(-2.9421306070e-03 1.3287258666e-03 1.3380228586e-01)	(-2.9659475720e-03 1.2625139186e-03 1.3450758130e-01)	(2.3816964980e-05 6.6211947998e-05 -7.0529543834e-04)
9.3000000000e+01	(-2.9503970535e-03 1.3314845197e-03 1.3439696718e-01)	(-2.9741384613e-03 1.2654516907e-03 1.3509997143e-01)	(2.3741407815e-05 6.6032829002e-05 -7.0300424875e-04)
9.4000000000e+01	(-2.9596265728e-03 1.3345722248e-03 1.3504821867e-01)	(-2.9832931866e-03 1.2687157527e-03 1.3574894010e-01)	(2.3666613745e-05 6.5856472125e-05 -7.0072142995e-04)
9.5000000000e+01	(-2.9672572663e-03 1.3375406189e-03 1.3564865803e-01)	(-2.9908505207e-03 1.2718583128e-03 1.3634714771e-01)	(2.3593254403e-05 6.5682306171e-05 -6.9848968013e-04)
9.6000000000e+01	(-2.9750718641e-03 1.3408058070e-03 1.3625216762e-01)	(-2.9985933962e-03 1.2752962647e-03 1.3694848992e-01)	(2.3521532114e-05 6.5509542296e-05 -6.9632230727e-04)
9.7000000000e+01	(-2.9826175278e-03 1.3436787463e-03 1.3681955310e-01)	(-3.0060684678e-03 1.2783401828e-03 1.3751376472e-01)	(2.3450940008e-05 6.5338563478e-05 -6.9421162695e-04)
9.8000000000e+01	(-2.9908119364e-03 1.3468066676e-03 1.3742220824e-01)	(-3.0141929139e-03 1.2816367503e-03 1.3811432302e-01)	(2.3380977523e-05 6.5169917304e-05 -6.9211478417e-04)
9.9000000000e+01	(-2.9979186659e-03 1.3494487103e-03 1.3794561301e-01)	(-3.0212307997e-03 1.2844468433e-03 1.3863572717e-01)	(2.3312133845e-05 6.5001866997e-05 -6.9011415307e-04)
1.0000000000e+02	(-3.0049053884e-03 1.3520969007e-03 1.3851659328e-01)	(-3.0281491101e-03 1.2872612822e-03 1.3920471664e-01)	(2.3243721704e-05 6.4835618498e-05 -6.8812335940e-04)
1.0100000000e+02	(-3.0130232659e-03 1.3550675965e-03 1.3911235168e-01)	(-3.0361984890e-03 1.2903958598e-03 1.3979846037e-01)	(2.3175223128e-05 6.4671736675e-05 -6.8610869263e-04)
1.0200000000e+02	(-3.0212564257e-03 1.3580521806e-03 1.3970246884e-01)	(-3.0443630638e-03 1.2935424195e-03 1.4038653838e-01)	(2.3106638132e-05 6.4509761102e-05 -6.8406954272e-04)
1.0300000000e+02	(-3.0293380487e-03 1.3611322907e-03 1.4029522478e-01)	(-3.0523768032e-03 1.2967829679e-03 1.4097727716e-01)	(2.3038754506e-05 6.4349322859e-05 -6.8205238512e-04)
1.0400000000e+02	(-3.0367932245e-03 1.3638717418e-03 1.4084330829e-01)	(-3.0597647710e-03 1.2996805377e-03 1.4152334571e-01)	(2.2971546459e-05 6.4191204072e-05 -6.8003741780e-04)
1.0500000000e+02	(-3.0449863142e-03 1.3670667879e-03 1.4143679223e-01)	(-3.0678909490e-03 1.3030312640e-03 1.4211480546e-01)	(2.2904634884e-05 6.4035523907e-05 -6.7801323565e-04)
1.0600000000e+02	(-3.0527407120e-03 1.3700505169e-03 1.4200962161e-01)	(-3.0755789597e-03 1.3061683944e-03 1.4268561738e-01)	(2.2838247680e-05 6.3882122497e-05 -6.7599576274e-04)
1.0700000000e+02	(-3.0599466706e-03 1.3728242697e-03 1.4255424817e-01)	(-3.0827190073e-03 1.3090933294e-03 1.4322822805e-01)	(2.2772336663e-05 6.3730940381e-05 -6.7397987696e-04)
1.0800000000e+02	(-3.0676395476e-03 1.3755154309e-03 1.4309570820e-01)	(-3.0903461630e-03 1.3119332086e-03 1.4376768044e-01)	(2.2706615419e-05 6.3582222331e-05 -6.7197223981e-04)
1.0900000000e+02	(-3.0754644900e-03 1.3787321776e-03 1.4366126482e-01)	(-3.0981057843e-03 1.3152981440e-03 1.4433123994e-01)	(2.2641294371e-05 6.3434033603e-05 -6.6997511943e-04)
1.1000000000e+02	(-3.0829371684e-03 1.3816391468e-03 1.4421528287e-01)	(-3.1055135258e-03 1.3183524193e-03 1.4488325717e-01)	(2.2576357347e-05 6.3286727495e-05 -6.6797430054e-04)
1.1100000000e+02	(-3.0894047625e-03 1.3842907523e-03 1.4472317306e-01)	(-3.1119172525e-03 1.3211504688e-03 1.4538920891e-01)	(2.2512489917e-05 6.3140283532e-05 -6.6603584414e-04)
1.1200000000e+02	(-3.0973118703e-03 1.3871874344e-03 1.4528349051e-01)	(-3.1197613393e-03 1.3241920743e-03 1.4594761159e-01)	(2.2449468984e-05 6.2995360097e-05 -6.6412107679e-04)
1.1300000000e+02	(-3.1033308073e-03 1.3897278281e-03 1.4578165250e-01)	(-3.1257178032e-03 1.3268754545e-03 1.4644386049e-01)	(2.2386995807e-05 6.2852373605e-05 -6.6220799206e-04)
1.1400000000e+02	(-3.1111934722e-03 1.3927796532e-03 1.4632115805e-01)	(-3.1335181250e-03 1.3300688266e-03 1.4698143764e-01)	(2.2324652773e-05 6.2710826540e-05 -6.6027958899e-04)
1.1500000000e+02	(-3.1177084627e-03 1.3952309271e-03 1.4682244732e-01)	(-3.1399709409e-03 1.3326602358e-03 1.4748078094e-01)	(2.2262478196e-05 6.2570691307e-05 -6.5833361985e-04)
1.1600000000e+02	(-3.1251558173e-03 1.3981880491e-03 1.4736548506e-01)	(-3.1473559875e-03 1.3357562965e-03 1.4802185116e-01)	(2.2200170185e-05 6.2431752615e-05 -6.5636609494e-04)
1.1700000000e+02	(-3.1314218915e-03 1.4006062146e-03 1.4785451628e-01)	(-3.1535595993e-03 1.3383118739e-03 1.4850888683e-01)	(2.2137707833e-05 6.2294340718e-05 -6.5437054587e-04)
1.1800000000e+02	(-3.1379969726e-03 1.4032654828e-03 1.4833364666e-01)	(-3.1600723251e-03 1.3411068564e-03 1.4898600584e-01)	(2.2075352491e-05 6.2158626455e-05 -6.5235918096e-04)
1.1900000000e+02	(-3.1441691685e-03 1.4056741450e-03 1.4881195325e-01)	(-3.1661823442e-03 1.3436494238e-03 1.4946229128e-01)	(2.2013175700e-05 6.2024721179e-05 -6.5033802722e-04)
1.2000000000e+02	(-3.1502438881e-03 1.4080524686e-03 1.4927267094e-01)	(-3.1721950883e-03 1.3461597858e-03 1.4992097974e-01)	(2.1951200170e-05 6.1892682738e-05 -6.4830879981e-04)
1.2100000000e+02	(-3.1563694712e-03 1.4104098312e-03 1.4972882427e-01)	(-3.1782589758e-03 1.3486473272e-03 1.5037509880e-01)	(2.1889504587e-05 6.1762503961e-05 -6.4627453904e-04)
1.2200000000e+02	(-3.1624554331e-03 1.4126857292e-03 1.5017157660e-01)	(-3.1842836196e-03 1.3510515487e-03 1.5081581790e-01)	(2.1828186449e-05 6.1634180506e-05 -6.4424130296e-04)
1.2300000000e+02	(-3.1681408366e-03 1.4148813768e-03 1.5060193238e-01)	(-3.1899083884e-03 1.3533738779e-03 1.5124416517e-01)	(2.1767551814e-05 6.1507498932e-05 -6.4223278486e-04)
1.2400000000e+02	(-3.1741295083e-03 1.4171333955e-03 1.5103864695e-01)	(-3.1958373024e-03 1.3557509251e-03 1.5167890562e-01)	(2.1707794038e-05 6.1382470386e-05 -6.4025866617e-04)
1.2500000000e+02	(-3.1797245956e-03 1.4192153694e-03 1.5144884740e-01)	(-3.2013731764e-03 1.3579556985e-03 1.5208714134e-01)	(2.1648580797e-05 6.1259670898e-05 -6.3829394228e-04)
1.2600000000e+02	(-3.1851391662e-03 1.4213077136e-03 1.5185400664e-01)	(-3.2067291275e-03 1.3601688386e-03 1.5249033463e-01)	(2.1589961294e-05 6.1138875041e-05 -6.3632798304e-04)
1.2700000000e+02	(-3.1904983617e-03 1.4234618017e-03 1.5226918912e-01)	(-3.2120300444e-03 1.3624434992e-03 1.5290355950e-01)	(2.1531682751e-05 6.1018302556e-05 -6.3437038049e-04)
1.2800000000e+02	(-3.1958229557e-03 1.4254820965e-03 1.5266434595e-01)	(-3.2172967225e-03 1.3645836769e-03 1.5329676792e-01)	(2.1473766858e-05 6.0898419624e-05 -6.3242197104e-04)
1.2900000000e+02	(-3.2007242543e-03 1.4274290881e-03 1.5306209216e-01)	(-3.2221408939e-03 1.3666502883e-03 1.5369261622e-01)	(2.1416639580e-05 6.0778799789e-05 -6.3052406147e-04)
1.3000000000e+02	(-3.2059279000e-03 1.4295089943e-03 1.5346177159e-01)	(-3.2272880414e-03 1.3688490721e-03 1.5409042745e-01)	(2.1360141354e-05 6.0659922244e-05 -6.2865586120e-04)
1.3100000000e+02	(-3.2112063626e-03 1.4314821571e-03 1.5383927133e-01)	(-3.2325103484e-03 1.3709400283e-03 1.5446607303e-01)	(2.1303985809e-05 6.0542128806e-05 -6.2680170178e-04)
1.3200000000e+02	(-3.2163646606e-03 1.4336837685e-03 1.5425119037e-01)	(-3.2376130118e-03 1.3732585696e-03 1.5487614305e-01)	(2.1248351202e-05 6.0425198884e-05 -6.2495267816e-04)
1.3300000000e+02	(-3.2213201350e-03 1.4356759571e-03 1.5464378791e-01)	(-3.2425133653e-03 1.3753666790e-03 1.5526690228e-01)	(2.1193230324e-05 6.0309278037e-05 -6.2311436911e-04)
1.3400000000e+02	(-3.2259227436e-03 1.4374689200e-03 1.5498896050e-01)	(-3.2470610785e-03 1.3772742043e-03 1.5561022047e-01)	(2.1138334901e-05 6.0194715663e-05 -6.2125996899e-04)
1.3500000000e+02	(-3.2303843929e-03 1.4391492258e-03 1.5532804214e-01)	(-3.2514682862e-03 1.3790684622e-03 1.5594747010e-01)	(2.1083893321e-05 6.0080763530e-05 -6.1942796533e-04)
1.3600000000e+02	(-3.2346299377e-03 1.4407876271e-03 1.5565452551e-01)	(-3.2556598720e-03 1.3808200034e-03 1.5627214038e-01)	(2.1029934288e-05 5.9967623692e-05 -6.1761486642e-04)
1.3700000000e+02	(-3.2395676031e-03 1.4427363003e-03 1.5603974878e-01)	(-3.2605440946e-03 1.3828806669e-03 1.5665556289e-01)	(2.0976491474e-05 5.9855633444e-05 -6.1581411697e-04)
1.3800000000e+02	(-3.2434970352e-03 1.4441480043e-03 1.5632808186e-01)	(-3.2644207207e-03 1.3844033208e-03 1.5694212347e-01)	(2.0923685539e-05 5.9744683434e-05 -6.1404161848e-04)
1.3900000000e+02	(-3.2480248317e-03 1.4459506788e-03 1.5668278355e-01)	(-3.2688967062e-03 1.3863156045e-03 1.5729509474e-01)	(2.0871874483e-05 5.9635074282e-05 -6.1231119120e-04)
1.4000000000e+02	(-3.2525599594e-03 1.4477773539e-03 1.5703528946e-01)	(-3.2733802832e-03 1.3882502168e-03 1.5764585636e-01)	(2.0820323751e-05 5.9527137110e-05 -6.1056689567e-04)
1.4100000000e+02	(-3.2556970694e-03 1.4489459882e-03 1.5728223788e-01)	(-3.2764663066e-03 1.3895271458e-03 1.5789110223e-01)	(2.0769237163e-05 5.9418842440e-05 -6.0886434609e-04)
1.4200000000e+02	(-3.2601605266e-03 1.4507800550e-03 1.5764710412e-01)	(-3.2808783961e-03 1.3914683745e-03 1.5825422272e-01)	(2.0717869572e-05 5.9311680514e-05 -6.0711860350e-04)
1.4300000000e+02	(-3.2627901907e-03 1.4516638352e-03 1.5786329878e-01)	(-3.2834564695e-03 1.3924588286e-03 1.5846864927e-01)	(2.0666278822e-05 5.9205006537e-05 -6.0535049331e-04)
1.4400000000e+02	(-3.2669124964e-03 1.4532024913e-03 1.5818138357e-01)	(-3.2875271179e-03 1.3941037834e-03 1.5878495606e-01)	(2.0614621452e-05 5.9098707880e-05 -6.0357248695e-04)
1.4500000000e+02	(-3.2698626472e-03 1.4542688132e-03 1.5840896344e-01)	(-3.2904257957e-03 1.3952758449e-03 1.5901076141e-01)	(2.0563148486e-05 5.8992968324e-05 -6.0179797082e-04)
1.4600000000e+02	(-3.2734458685e-03 1.4557503231e-03 1.5869110044e-01)	(-3.2939575374e-03 1.3968620528e-03 1.5929110448e-01)	(2.0511668890e-05 5.8888270321e-05 -6.0000404473e-04)
1.4700000000e+02	(-3.2765501393e-03 1.4567817691e-03 1.5891669202e-01)	(-3.2970104398e-03 1.3979972883e-03 1.5951489245e-01)	(2.0460300415e-05 5.8784480783e-05 -5.9820043070e-04)
1.4800000000e+02	(-3.2794394617e-03 1.4579487629e-03 1.5915400253e-01)	(-3.2998484706e-03 1.3992671017e-03 1.5975038435e-01)	(2.0409008934e-05 5.8681661256e-05 -5.9638181812e-04)
1.4900000000e+02	(-3.2825019160e-03 1.4591537350e-03 1.5940331838e-01)	(-3.3028598789e-03 1.4005740463e-03 1.5999788261e-01)	(2.0357962952e-05 5.8579688709e-05 -5.9456423197e-04)
1.5000000000e+02	(-3.2856663365e-03 1.4601684294e-03 1.5961906963e-01)	(-3.3059736019e-03 1.4016898540e-03 1.6021182102e-01)	(2.0307265431e-05 5.8478575326e-05 -5.9275139910e-04)
1.5100000000e+02	(-3.2884246721e-03 1.4612320705e-03 1.5984223759e-01)	(-3.3086815930e-03 1.4028537158e-03 1.6043318431e-01)	(2.0256920923e-05 5.8378354663e-05 -5.9094671622e-04)
1.5200000000e+02	(-3.2912656424e-03 1.4622210182e-03 1.6004559866e-01)	(-3.3114726923e-03 1.4039421362e-03 1.6063476006e-01)	(2.0207049890e-05 5.8278881972e-05 -5.8916140081e-04)
1.5300000000e+02	(-3.2938902657e-03 1.4631659717e-03 1.6023289005e-01)	(-3.3140479669e-03 1.4049857522e-03 1.6082028594e-01)	(2.0157701273e-05 5.8180219512e-05 -5.8739589618e-04)
1.5400000000e+02	(-3.2965393099e-03 1.4640982815e-03 1.6042627927e-01)	(-3.3166482108e-03 1.4060159021e-03 1.6101192995e-01)	(2.0108900900e-05 5.8082379353e-05 -5.8565068211e-04)
1.5500000000e+02	(-3.2987325942e-03 1.4649125399e-03 1.6059155342e-01)	(-3.3187932910e-03 1.4069271316e-03 1.6117548016e-01)	(2.0060696799e-05 5.7985408328e-05 -5.8392674039e-04)
1.5600000000e+02	(-3.3013321381e-03 1.4658628274e-03 1.6078153342e-01)	(-3.3213452041e-03 1.4079735598e-03 1.6136375795e-01)	(2.0013065995e-05 5.7889267676e-05 -5.8222453381e-04)
1.5700000000e+02	(-3.3036749388e-03 1.4666291547e-03 1.6094257502e-01)	(-3.3236408625e-03 1.4088349242e-03 1.6152310938e-01)	(1.9965923715e-05 5.7794230441e-05 -5.8053436366e-04)
1.5800000000e+02	(-3.3056531857e-03 1.4673182715e-03 1.6109170653e-01)	(-3.3255719323e-03 1.4096177196e-03 1.6167052002e-01)	(1.9918746528e-05 5.7700551968e-05 -5.7881349556e-04)
1.5900000000e+02	(-3.3077414745e-03 1.4680062883e-03 1.6123690306e-01)	(-3.3276132525e-03 1.4103995557e-03 1.6181401103e-01)	(1.9871778011e-05 5.7606732629e-05 -5.7710796944e-04)
1.6000000000e+02	(-3.3096091001e-03 1.4687274426e-03 1.6138021616e-01)	(-3.3294343128e-03 1.4112142931e-03 1.6195564185e-01)	(1.9825212730e-05 5.7513149500e-05 -5.7542568967e-04)
1.6100000000e+02	(-3.3115972783e-03 1.4692738660e-03 1.6150902214e-01)	(-3.3313765065e-03 1.4118539068e-03 1.6208279903e-01)	(1.9779228198e-05 5.7419959159e-05 -5.7377689769e-04)
1.6200000000e+02	(-3.3134245022e-03 1.4698296412e-03 1.6162218428e-01)	(-3.3331583510e-03 1.4125021265e-03 1.6219434093e-01)	(1.9733848874e-05 5.7327514758e-05 -5.7215665182e-04)
1.6300000000e+02	(-3.3150567604e-03 1.4703195786e-03 1.6173025729e-01)	(-3.3347458239e-03 1.4130837033e-03 1.6230082021e-01)	(1.9689063527e-05 5.7235875296e-05 -5.7056291774e-04)
1.6400000000e+02	(-3.3173038541e-03 1.4710125697e-03 1.6187600735e-01)	(-3.3369480802e-03 1.4138666103e-03 1.6244494135e-01)	(1.9644226143e-05 5.7145959427e-05 -5.6893400318e-04)
1.6500000000e+02	(-3.3190444275e-03 1.4715602244e-03 1.6201340572e-01)	(-3.3386443229e-03 1.4145053864e-03 1.6258077233e-01)	(1.9599895426e-05 5.7054838035e-05 -5.6736661865e-04)
1.6600000000e+02	(-3.3201968817e-03 1.4718454170e-03 1.6206318553e-01)	(-3.3397527749e-03 1.4148817347e-03 1.6262901045e-01)	(1.9555893209e-05 5.6963682299e-05 -5.6582491751e-04)