/*--------------------------------*- C++ -*----------------------------------*\
| =========                 |                                                 |
| \\      /  F ield         | OpenFOAM: The Open Source CFD Toolbox           |
|  \\    /   O peration     | Version:  v3.0+                                 |
|   \\  /    A nd           | Web:      www.OpenFOAM.com                      |
|    \\/     M anipulation  |                                                 |
\*---------------------------------------------------------------------------*/
FoamFile
{
    version     2.0;
    format      ascii;
    class       volVectorField;
    location    "16000";
    object      D;
}
// * * * * * * * * * * * * * * * * * * * * * * * * * * * * * * * * * * * * * //

dimensions      [0 1 0 0 0 0 0];

internalField   nonuniform List<vector> 
24076
(
(4.36431e-06 4.28978e-06 0)
(4.91782e-09 5.4686e-08 0)
(3.84144e-11 7.71207e-10 0)
(3.8951e-11 7.48942e-10 0)
(1.14565e-06 3.34444e-06 0)
(6.2824e-09 6.49679e-08 0)
(4.7522e-09 5.49776e-08 0)
(4.46681e-06 4.32109e-06 0)
(-3.79562e-12 5.72612e-11 0)
(1.01239e-05 3.13951e-05 0)
(-1.34227e-06 2.85854e-06 0)
(1.03233e-05 3.17075e-05 0)
(1.76967e-06 1.83625e-06 0)
(1.05391e-06 3.32754e-06 0)
(1.10127e-05 2.56105e-05 0)
(1.87548e-06 2.41076e-05 0)
(-1.90919e-05 0.000159731 0)
(2.16178e-05 0.000159832 0)
(1.13322e-06 1.32443e-05 0)
(2.11079e-06 2.42415e-05 0)
(1.07355e-05 2.54177e-05 0)
(-1.30262e-06 5.64337e-06 0)
(6.15208e-09 8.78017e-08 0)
(-1.29171e-06 2.78886e-06 0)
(3.56459e-07 1.44626e-06 0)
(9.53959e-07 1.31864e-05 0)
(-1.43435e-07 2.2956e-07 0)
(6.13912e-09 6.4053e-08 0)
(1.3878e-07 2.8629e-05 0)
(2.80605e-07 1.42377e-06 0)
(-2.66348e-07 2.85946e-05 0)
(1.31775e-10 1.32846e-08 0)
(3.96092e-06 1.59957e-05 0)
(2.27993e-06 6.55814e-06 0)
(4.15888e-06 1.60565e-05 0)
(7.59715e-06 2.32507e-05 0)
(1.85192e-06 1.91343e-06 0)
(-1.90067e-05 0.000160923 0)
(2.15622e-05 0.000161036 0)
(3.57675e-06 2.12426e-06 0)
(-6.95297e-07 4.23424e-07 0)
(-8.43061e-07 5.86839e-05 0)
(1.63589e-06 2.3747e-06 0)
(2.17713e-06 6.56551e-06 0)
(7.31227e-06 2.31283e-05 0)
(-7.38148e-06 2.18035e-05 0)
(8.43827e-10 5.93219e-08 0)
(3.5478e-06 3.13648e-05 0)
(-1.5257e-07 2.34378e-07 0)
(-5.34053e-06 2.32153e-05 0)
(1.27051e-10 1.98386e-09 0)
(-1.27474e-07 2.08809e-07 0)
(-1.03949e-11 7.39195e-11 0)
(6.0412e-09 7.04868e-08 0)
(-3.79702e-12 6.13016e-11 0)
(1.02996e-05 8.5448e-05 0)
(1.55021e-06 5.77635e-06 0)
(6.48404e-06 9.40807e-06 0)
(4.51294e-06 0.000426473 0)
(1.10796e-05 8.55628e-05 0)
(-7.42902e-06 2.20915e-05 0)
(-1.23742e-09 2.66066e-08 0)
(-5.06157e-06 9.41465e-06 0)
(-5.05895e-06 2.30736e-05 0)
(-8.65837e-07 3.10114e-06 0)
(6.3557e-06 9.40611e-06 0)
(1.96935e-06 5.2748e-06 0)
(-7.81161e-07 3.09069e-06 0)
(2.25721e-09 3.99722e-08 0)
(1.99587e-06 5.18575e-06 0)
(3.14081e-06 0.000423255 0)
(-4.4267e-09 1.1542e-07 0)
(-1.08729e-05 6.12845e-05 0)
(-5.77239e-10 6.22745e-09 0)
(-6.86754e-07 4.18022e-07 0)
(3.25129e-06 3.12918e-05 0)
(-1.40326e-06 5.71666e-06 0)
(-1.12723e-05 6.17696e-05 0)
(3.9275e-06 6.42669e-06 0)
(-4.95116e-06 9.2708e-06 0)
(1.26872e-09 5.97523e-08 0)
(4.95782e-06 5.46451e-05 0)
(-3.90221e-07 7.51013e-06 0)
(3.8573e-08 2.34331e-06 0)
(-4.13711e-07 3.54033e-07 0)
(-9.12151e-12 6.3762e-11 0)
(1.31666e-05 0.000265495 0)
(-1.16996e-05 9.06447e-05 0)
(4.86926e-07 0.000422599 0)
(1.10051e-05 0.000265681 0)
(4.54075e-06 5.49938e-05 0)
(2.97743e-06 0.00042886 0)
(-2.05644e-06 1.00033e-05 0)
(1.6424e-06 5.8276e-06 0)
(-3.45455e-10 2.41109e-06 0)
(-1.16346e-06 1.21528e-06 0)
(-2.21555e-06 0.000179995 0)
(8.11983e-06 0.000274077 0)
(3.21311e-11 1.28823e-08 0)
(1.80413e-06 3.9502e-06 0)
(-4.54563e-07 7.64559e-06 0)
(-9.90807e-07 1.98567e-06 0)
(-5.39054e-07 5.92294e-05 0)
(3.853e-06 6.31994e-06 0)
(-9.8415e-07 4.05391e-05 0)
(-7.54034e-07 5.20717e-07 0)
(-1.73938e-10 2.60104e-09 0)
(-6.40039e-10 1.09738e-07 0)
(-2.97536e-06 7.916e-06 0)
(-3.14973e-06 4.37276e-05 0)
(-2.49831e-06 0.000181531 0)
(2.80875e-06 3.1769e-05 0)
(-2.93147e-12 1.72123e-10 0)
(-1.37519e-09 2.60548e-08 0)
(1.89827e-05 0.000344799 0)
(1.09039e-10 1.93467e-09 0)
(-1.16022e-06 2.96911e-06 0)
(-2.74329e-06 4.35657e-05 0)
(7.76205e-06 0.00027583 0)
(-3.61542e-06 4.36089e-05 0)
(6.69961e-07 3.55436e-05 0)
(-6.05473e-06 3.51952e-05 0)
(-7.29629e-07 5.32462e-07 0)
(3.47913e-06 2.06714e-06 0)
(7.35511e-06 2.69589e-05 0)
(-1.19448e-05 9.14399e-05 0)
(-3.00921e-06 8.04641e-06 0)
(8.47256e-06 4.48118e-05 0)
(-1.30489e-06 4.02169e-05 0)
(5.11119e-10 9.29565e-09 0)
(-6.0364e-06 3.48282e-05 0)
(-3.85918e-06 4.32896e-05 0)
(-4.25409e-06 8.3067e-05 0)
(5.71372e-09 8.86475e-08 0)
(-2.00237e-06 1.01357e-05 0)
(-1.72251e-07 2.28507e-07 0)
(1.39878e-06 9.55316e-06 0)
(1.55251e-06 2.30924e-06 0)
(3.36684e-06 0.000243525 0)
(1.71583e-06 1.03719e-05 0)
(1.86546e-06 1.04029e-05 0)
(-3.60192e-12 1.62253e-10 0)
(-1.18041e-08 2.82513e-08 0)
(-2.90349e-06 0.000203756 0)
(1.64549e-05 0.000210619 0)
(2.93493e-06 3.14572e-05 0)
(-4.51521e-06 8.37546e-05 0)
(1.07809e-05 0.000123706 0)
(1.32249e-06 1.14047e-05 0)
(1.91627e-10 4.37455e-09 0)
(-5.19988e-06 1.95558e-05 0)
(-3.67395e-13 2.83871e-12 0)
(1.65627e-06 5.75338e-07 0)
(1.67943e-06 3.06303e-06 0)
(4.56927e-06 9.11185e-06 0)
(2.75612e-06 5.60711e-05 0)
(3.68999e-06 2.64406e-06 0)
(-6.89334e-07 3.58456e-05 0)
(1.31189e-06 9.65422e-06 0)
(-2.66358e-11 9.46048e-10 0)
(1.94793e-08 -4.66892e-08 0)
(-3.79942e-12 4.59265e-11 0)
(1.28457e-05 3.34414e-05 0)
(-3.39637e-06 6.68938e-06 0)
(1.31562e-06 8.78672e-05 0)
(2.58621e-05 0.000244562 0)
(-2.36231e-05 0.000244566 0)
(-1.9507e-06 1.44496e-05 0)
(-1.33096e-06 4.30362e-06 0)
(-5.35607e-07 2.70682e-07 0)
(3.15176e-06 9.12376e-06 0)
(2.11153e-09 1.05171e-07 0)
(3.11445e-07 1.66357e-05 0)
(3.12189e-06 1.37037e-05 0)
(-3.37035e-06 1.4481e-05 0)
(5.61386e-06 1.4484e-05 0)
(-1.17402e-05 8.56396e-05 0)
(1.39457e-05 8.56448e-05 0)
(1.22382e-05 3.61866e-05 0)
(-5.80933e-06 1.80898e-05 0)
(-4.79449e-06 9.25674e-06 0)
(-9.29851e-10 6.81665e-09 0)
(2.91474e-06 6.25236e-06 0)
(-1.81208e-07 -1.89317e-08 0)
(-1.98574e-07 -8.86573e-09 0)
(-1.04823e-07 4.22038e-06 0)
(-1.35076e-06 4.4109e-06 0)
(-6.19527e-07 5.28386e-07 0)
(-1.74706e-06 3.38941e-06 0)
(1.07579e-06 5.65685e-07 0)
(1.23551e-09 1.6717e-08 0)
(-3.55212e-06 1.97939e-05 0)
(-1.36275e-05 0.000236594 0)
(-7.15938e-06 5.50861e-05 0)
(6.49779e-06 5.17891e-05 0)
(7.86203e-06 1.52675e-05 0)
(5.99253e-09 6.71786e-08 0)
(1.26009e-05 8.46671e-05 0)
(-1.03857e-05 8.4654e-05 0)
(-5.62396e-06 1.52654e-05 0)
(2.91103e-06 6.13728e-06 0)
(-5.65961e-07 4.81435e-07 0)
(-2.40535e-05 0.000271439 0)
(2.62959e-05 0.000271439 0)
(3.98894e-06 0.000211736 0)
(1.49148e-06 3.44544e-06 0)
(-6.53165e-06 2.06118e-05 0)
(-1.27907e-05 0.000117779 0)
(3.15663e-06 2.15153e-06 0)
(6.36479e-08 1.67087e-05 0)
(-2.66765e-09 7.08473e-08 0)
(1.68299e-06 1.89279e-05 0)
(-4.89904e-08 1.58346e-07 0)
(-5.30595e-06 1.92511e-05 0)
(-4.0385e-12 4.5561e-11 0)
(5.13232e-07 1.38168e-05 0)
(-1.78662e-07 2.32019e-07 0)
(-5.15074e-06 1.23248e-05 0)
(-2.72523e-05 0.000411874 0)
(2.9495e-05 0.000411874 0)
(-5.4726e-07 0.000151947 0)
(1.13803e-05 2.55205e-05 0)
(5.09112e-06 4.29351e-06 0)
(-1.11593e-06 6.81145e-06 0)
(8.33427e-06 1.79549e-05 0)
(-6.30903e-11 3.96943e-10 0)
(-4.75328e-11 8.67814e-10 0)
(-7.55452e-06 4.62228e-05 0)
(-8.03925e-11 5.47833e-10 0)
(9.54094e-06 0.000263091 0)
(-3.44169e-11 8.82957e-10 0)
(-3.63101e-06 2.00402e-05 0)
(-9.06906e-11 1.57964e-09 0)
(-1.04211e-09 7.77117e-09 0)
(1.67443e-06 7.50605e-06 0)
(6.35697e-06 9.60688e-05 0)
(-8.64613e-07 7.62497e-07 0)
(8.55653e-07 2.0017e-07 0)
(-7.27025e-06 8.61934e-05 0)
(-1.40648e-05 6.1693e-05 0)
(1.63522e-05 6.17106e-05 0)
(-4.27283e-07 3.58543e-07 0)
(-9.45925e-06 0.000109746 0)
(-8.52659e-06 0.000108903 0)
(2.05898e-05 0.000114064 0)
(-1.84488e-05 0.000114092 0)
(-7.20301e-06 6.25115e-05 0)
(8.12873e-06 1.53662e-05 0)
(-5.89118e-06 1.53641e-05 0)
(-1.18186e-06 2.54267e-06 0)
(-1.84304e-05 0.00020545 0)
(5.96737e-06 0.000177296 0)
(6.34842e-08 -5.30779e-08 0)
(5.55902e-06 7.33934e-06 0)
(2.14882e-05 0.000114558 0)
(-1.92463e-05 0.000114558 0)
(2.25834e-09 3.43207e-08 0)
(-5.86864e-11 1.13872e-08 0)
(-7.18823e-08 1.63388e-07 0)
(8.39063e-06 0.000250121 0)
(1.58423e-06 2.99666e-06 0)
(5.88828e-06 5.78704e-06 0)
(6.06486e-06 1.72375e-05 0)
(-2.52846e-12 4.87318e-11 0)
(-1.90996e-06 8.81379e-06 0)
(4.6138e-07 1.41998e-06 0)
(-6.42568e-06 2.03756e-05 0)
(2.1298e-06 5.10065e-05 0)
(-6.82347e-06 5.54381e-05 0)
(3.49609e-11 5.1553e-10 0)
(-1.45325e-05 0.00019524 0)
(1.68738e-05 0.000195279 0)
(5.4275e-06 7.27004e-06 0)
(2.31027e-06 3.24889e-05 0)
(-2.24686e-07 2.71554e-07 0)
(-7.88333e-06 7.71018e-05 0)
(-1.21998e-05 9.3469e-05 0)
(2.22637e-09 1.04224e-07 0)
(-6.11574e-06 2.24389e-05 0)
(1.31072e-05 3.37665e-05 0)
(1.467e-10 3.18508e-09 0)
(-2.42467e-07 0.000217351 0)
(1.2407e-06 9.25912e-05 0)
(-1.3445e-07 1.97842e-07 0)
(1.02154e-06 8.52719e-06 0)
(-8.34203e-07 7.14428e-07 0)
(-1.29208e-09 1.27589e-08 0)
(6.56472e-06 1.7284e-05 0)
(-2.35846e-06 3.40112e-06 0)
(2.79437e-06 5.42483e-06 0)
(-4.34601e-06 0.000203425 0)
(4.55613e-06 5.2146e-06 0)
(3.04404e-06 1.38658e-05 0)
(1.65795e-06 4.03788e-06 0)
(2.68224e-05 0.0002465 0)
(-2.45798e-05 0.0002465 0)
(-3.90713e-06 2.05092e-05 0)
(1.57537e-11 7.96073e-10 0)
(-2.85796e-10 3.09622e-09 0)
(6.17782e-06 3.74813e-05 0)
(-7.51738e-06 6.31722e-05 0)
(9.83962e-06 6.32175e-05 0)
(-1.06767e-05 0.000125647 0)
(1.29555e-05 0.000125744 0)
(-8.45459e-07 6.93551e-07 0)
(-4.42455e-12 1.18179e-10 0)
(-7.11888e-07 0.000154998 0)
(-7.33574e-06 4.57944e-05 0)
(-1.48835e-07 6.74218e-06 0)
(-4.15608e-06 0.000183802 0)
(-1.30332e-06 2.94284e-05 0)
(1.61883e-06 5.08673e-05 0)
(3.24426e-12 9.47435e-11 0)
(-4.92256e-06 2.79054e-05 0)
(-2.26413e-06 1.92402e-05 0)
(6.95843e-06 9.19154e-06 0)
(5.21902e-06 2.78173e-05 0)
(-2.52945e-10 1.49596e-09 0)
(-1.6989e-06 2.04736e-06 0)
(5.7663e-07 1.36301e-05 0)
(1.02902e-05 6.8569e-05 0)
(-6.10444e-06 1.7981e-05 0)
(-4.58258e-06 2.78295e-05 0)
(-1.38312e-09 2.02449e-08 0)
(5.61812e-09 7.00363e-08 0)
(5.79273e-06 1.7363e-05 0)
(2.49872e-05 0.000185853 0)
(-2.27519e-05 0.000185844 0)
(3.24096e-06 2.25255e-06 0)
(-1.85539e-07 3.02798e-06 0)
(-3.59889e-07 8.65834e-06 0)
(1.46269e-05 8.50349e-05 0)
(-1.23889e-05 8.50334e-05 0)
(2.1376e-06 9.29011e-05 0)
(6.68905e-06 4.2395e-05 0)
(6.85579e-06 1.62057e-05 0)
(-1.22242e-06 2.93554e-06 0)
(6.83988e-09 7.56972e-08 0)
(-3.8167e-06 1.12718e-05 0)
(1.08271e-06 8.42481e-07 0)
(-4.1155e-06 7.36523e-06 0)
(-3.74619e-07 0.000164569 0)
(2.11801e-09 3.15452e-08 0)
(-7.16747e-06 9.42932e-05 0)
(1.11581e-06 3.55965e-05 0)
(-8.88859e-07 7.76243e-07 0)
(-7.46752e-08 1.70297e-07 0)
(1.04521e-07 4.80904e-06 0)
(2.72225e-06 5.69045e-05 0)
(9.38441e-06 3.10814e-05 0)
(-1.1241e-06 4.47202e-06 0)
(4.03918e-07 3.14709e-06 0)
(-7.3303e-06 4.41065e-05 0)
(1.81337e-06 1.42067e-05 0)
(5.21806e-06 6.08804e-06 0)
(6.13398e-06 5.13408e-05 0)
(5.01948e-06 1.5373e-05 0)
(1.54668e-06 1.19271e-05 0)
(-1.53134e-05 0.000235389 0)
(4.9372e-07 1.18279e-06 0)
(1.14101e-06 3.43317e-05 0)
(5.17898e-06 9.14995e-06 0)
(2.28848e-06 5.34663e-06 0)
(-1.29549e-09 3.18326e-08 0)
(-5.09915e-06 1.01512e-05 0)
(7.71185e-08 4.96623e-09 0)
(-9.37608e-07 2.95726e-05 0)
(8.91023e-06 3.1073e-05 0)
(3.66485e-06 6.36943e-06 0)
(1.55668e-06 1.87382e-05 0)
(5.33508e-06 6.13495e-06 0)
(8.87242e-07 1.49131e-06 0)
(1.08497e-05 2.68617e-05 0)
(-2.90447e-08 1.34045e-07 0)
(7.78873e-06 1.50382e-05 0)
(-5.55081e-06 1.50357e-05 0)
(-9.73798e-11 3.7094e-09 0)
(-1.63975e-05 0.000164772 0)
(1.86221e-05 0.000164576 0)
(-1.29905e-07 2.12521e-07 0)
(-6.85885e-07 5.89212e-07 0)
(-1.01944e-06 3.61865e-05 0)
(1.53584e-06 8.96274e-07 0)
(-4.97826e-07 1.85495e-06 0)
(-8.26787e-06 6.17268e-05 0)
(1.31956e-09 2.4181e-08 0)
(-1.64335e-06 1.37698e-05 0)
(2.39001e-09 1.04782e-07 0)
(9.73306e-12 5.65083e-10 0)
(4.28534e-06 5.49106e-06 0)
(2.75888e-07 2.84181e-06 0)
(-2.56589e-05 0.000270308 0)
(2.79014e-05 0.000270308 0)
(1.0014e-05 0.000251199 0)
(-1.36502e-05 0.000117066 0)
(-5.35414e-06 1.48784e-05 0)
(7.59238e-06 1.48812e-05 0)
(-2.32905e-06 4.98088e-06 0)
(-7.66814e-06 6.16739e-05 0)
(1.76007e-06 4.0278e-06 0)
(-6.0043e-06 2.80818e-05 0)
(1.11614e-05 9.36063e-05 0)
(-6.39482e-12 4.36792e-10 0)
(-7.58219e-07 2.5891e-06 0)
(9.76112e-06 2.19523e-05 0)
(-1.38525e-05 0.000196845 0)
(1.62532e-05 0.000196881 0)
(4.44717e-06 3.68429e-05 0)
(1.66532e-06 1.54944e-05 0)
(-2.83868e-06 0.000217309 0)
(-8.78389e-06 2.27061e-05 0)
(1.30911e-05 4.89629e-05 0)
(5.08741e-12 5.40511e-10 0)
(8.26489e-07 1.60297e-05 0)
(6.85764e-06 0.000179061 0)
(1.03598e-06 6.05607e-07 0)
(1.44095e-05 0.000208326 0)
(6.09101e-12 1.44785e-10 0)
(-2.37058e-06 3.46012e-06 0)
(-1.0251e-05 0.000124616 0)
(1.25282e-05 0.000124706 0)
(-1.90781e-06 8.94156e-06 0)
(2.57605e-06 2.69904e-06 0)
(-6.75286e-07 1.28758e-06 0)
(7.4255e-06 0.000268969 0)
(-1.17133e-06 4.4008e-06 0)
(1.58665e-06 3.44911e-06 0)
(3.22468e-06 5.45179e-06 0)
(-3.64909e-07 8.78459e-06 0)
(-7.02256e-08 1.62873e-07 0)
(4.75958e-06 7.61522e-06 0)
(-2.56248e-06 2.75024e-05 0)
(-5.94838e-08 4.29605e-06 0)
(1.40011e-06 6.68834e-06 0)
(1.37612e-05 0.000199012 0)
(-1.37104e-06 2.15782e-05 0)
(8.11897e-09 7.04113e-08 0)
(5.52179e-06 0.000169655 0)
(-7.17153e-07 5.9422e-07 0)
(2.15399e-06 3.59797e-06 0)
(4.52174e-10 1.68277e-08 0)
(-9.5401e-08 1.66514e-07 0)
(-1.57198e-06 2.59375e-06 0)
(2.76655e-06 5.33694e-06 0)
(9.41797e-07 8.86642e-05 0)
(5.72548e-06 5.89037e-06 0)
(5.14227e-09 5.95133e-08 0)
(1.25362e-05 4.91998e-05 0)
(-5.3318e-06 6.03366e-05 0)
(2.71429e-06 1.19861e-05 0)
(1.37739e-06 6.58383e-06 0)
(-7.1272e-06 8.71396e-05 0)
(1.55487e-05 0.000296253 0)
(1.15498e-05 5.58073e-05 0)
(2.42545e-06 3.12067e-06 0)
(-2.1913e-10 6.01131e-09 0)
(1.63911e-05 0.000345017 0)
(1.60887e-09 3.78205e-08 0)
(-7.08172e-10 4.64872e-09 0)
(2.61828e-07 2.1824e-06 0)
(-4.23413e-09 6.77315e-06 0)
(1.30104e-05 4.29176e-05 0)
(3.71761e-06 6.29243e-06 0)
(-1.88036e-10 2.22102e-09 0)
(-5.5149e-12 3.91702e-11 0)
(-1.73473e-05 0.000137066 0)
(1.98404e-05 0.000137142 0)
(8.9503e-06 4.50331e-05 0)
(-1.53202e-09 1.90243e-08 0)
(-1.28692e-06 1.4123e-06 0)
(-4.38337e-12 1.42627e-10 0)
(8.2375e-07 1.16895e-05 0)
(-1.74323e-06 8.22091e-06 0)
(-1.03023e-05 4.92219e-05 0)
(-1.50307e-05 0.00016453 0)
(1.72562e-05 0.000164335 0)
(3.95963e-06 4.23689e-06 0)
(6.73149e-06 3.98316e-05 0)
(-1.1869e-10 1.34149e-09 0)
(3.01966e-06 6.65798e-06 0)
(1.8332e-06 2.49228e-06 0)
(-6.57573e-06 6.23838e-05 0)
(-5.30457e-06 5.0695e-05 0)
(7.05078e-06 9.36785e-06 0)
(3.39906e-06 8.56264e-06 0)
(1.43749e-06 1.45162e-06 0)
(5.43762e-06 3.42833e-05 0)
(-3.4383e-06 6.61054e-06 0)
(1.02819e-05 0.000114977 0)
(9.96112e-06 6.94442e-05 0)
(2.38693e-05 0.000184596 0)
(-2.1634e-05 0.000184587 0)
(-1.99941e-08 1.34812e-07 0)
(1.10416e-05 2.27192e-05 0)
(-1.86711e-06 8.20073e-06 0)
(8.6708e-06 0.000134908 0)
(-7.96057e-10 6.43518e-09 0)
(-1.71616e-05 0.000180955 0)
(-3.06406e-10 2.70741e-09 0)
(1.22511e-05 0.000106779 0)
(-1.50469e-06 1.38688e-05 0)
(8.99415e-06 1.95879e-05 0)
(-1.05817e-11 4.27879e-10 0)
(6.93325e-07 0.000263373 0)
(-6.80446e-09 6.18728e-08 0)
(-5.82001e-07 1.59313e-05 0)
(-4.93626e-07 1.22651e-05 0)
(6.23158e-06 1.68085e-05 0)
(-3.70249e-06 6.37469e-06 0)
(-6.84505e-06 3.20692e-05 0)
(-1.24647e-05 5.63394e-05 0)
(-1.82698e-07 2.49516e-07 0)
(1.46203e-05 0.000200537 0)
(1.23398e-05 5.69556e-05 0)
(6.06201e-13 5.29231e-11 0)
(2.82099e-06 1.32749e-06 0)
(1.34769e-05 0.000233497 0)
(-1.0183e-08 6.70752e-08 0)
(-2.06795e-06 5.30993e-06 0)
(6.98039e-06 0.00010074 0)
(2.0943e-07 2.11295e-06 0)
(2.13569e-06 0.000138887 0)
(-1.68877e-06 3.30218e-06 0)
(-5.86461e-10 5.70185e-09 0)
(-6.27414e-07 6.70248e-07 0)
(5.24737e-10 1.18459e-08 0)
(1.80947e-06 1.5681e-05 0)
(-1.83443e-05 0.000299892 0)
(2.04543e-05 0.000299843 0)
(-3.51177e-06 2.73558e-05 0)
(-1.57368e-09 1.97078e-08 0)
(4.84758e-06 4.40253e-06 0)
(-1.25297e-09 1.01552e-08 0)
(8.86621e-06 3.32353e-05 0)
(2.68943e-05 0.000428839 0)
(-2.46729e-05 0.000428817 0)
(-1.12437e-11 1.69889e-10 0)
(-8.84852e-09 1.22072e-07 0)
(4.96809e-06 4.20613e-06 0)
(-3.7722e-06 3.62813e-05 0)
(-2.34434e-06 4.88263e-06 0)
(2.83844e-07 2.76594e-06 0)
(9.77245e-06 0.000268805 0)
(-1.50736e-06 4.5902e-05 0)
(6.57253e-11 8.24498e-10 0)
(1.18861e-06 5.4502e-05 0)
(2.19599e-05 0.000283876 0)
(-1.95695e-05 0.000283988 0)
(-1.18493e-11 7.41045e-10 0)
(1.22535e-10 3.10115e-09 0)
(6.73474e-06 4.56542e-05 0)
(-1.55231e-05 0.000300234 0)
(1.76411e-05 0.000300395 0)
(5.10684e-06 1.04997e-05 0)
(3.97869e-07 7.6096e-06 0)
(-1.13714e-10 1.2753e-09 0)
(1.03247e-05 0.000286673 0)
(5.87107e-06 1.59964e-05 0)
(5.24296e-07 5.60566e-06 0)
(1.83646e-05 0.000109323 0)
(-1.61227e-05 0.000109322 0)
(-5.75625e-06 1.59528e-05 0)
(8.00255e-06 1.59507e-05 0)
(5.39883e-06 5.37095e-06 0)
(-1.43011e-12 8.4519e-12 0)
(1.05164e-10 2.17431e-08 0)
(9.92088e-07 1.91316e-05 0)
(3.69739e-06 3.70656e-05 0)
(-2.17859e-10 1.47089e-09 0)
(5.62863e-06 6.42648e-06 0)
(1.43537e-06 2.32893e-06 0)
(3.20343e-12 6.33378e-10 0)
(1.24092e-05 7.01104e-05 0)
(-2.07371e-05 0.000274354 0)
(2.29797e-05 0.000274354 0)
(-7.30937e-07 1.28541e-06 0)
(-2.66703e-06 3.3428e-05 0)
(5.69172e-06 1.60259e-05 0)
(1.51633e-05 0.000298513 0)
(1.10356e-06 1.42919e-05 0)
(-1.06461e-10 2.03119e-09 0)
(4.65751e-06 5.22102e-06 0)
(-2.50337e-11 1.51576e-09 0)
(-3.70956e-09 6.45679e-08 0)
(-5.99452e-06 6.00587e-05 0)
(-5.36358e-07 4.2895e-07 0)
(-7.88919e-07 1.60526e-05 0)
(-1.94344e-06 2.47297e-06 0)
(2.33531e-05 0.000285868 0)
(-2.10282e-05 0.000285931 0)
(5.21814e-06 0.000168239 0)
(1.14039e-05 0.000289132 0)
(-2.749e-06 3.37892e-05 0)
(-3.47953e-07 3.26438e-07 0)
(2.93763e-06 6.71331e-06 0)
(-4.03033e-08 1.4365e-07 0)
(5.34462e-06 3.46099e-05 0)
(-1.88295e-10 2.44667e-09 0)
(-3.44827e-06 7.73466e-06 0)
(-7.31383e-06 3.22866e-05 0)
(-3.8129e-06 1.68095e-05 0)
(1.74658e-06 1.43789e-05 0)
(-1.40249e-06 2.19029e-05 0)
(2.03446e-06 3.0992e-06 0)
(-1.91989e-07 4.78995e-06 0)
(1.58675e-05 0.000209119 0)
(2.85675e-06 1.84006e-06 0)
(4.95572e-06 1.05446e-05 0)
(-5.05985e-06 1.24539e-05 0)
(6.52514e-06 4.0249e-05 0)
(6.76531e-07 3.27805e-06 0)
(3.3126e-06 1.2759e-05 0)
(-2.2095e-06 9.75989e-05 0)
(-5.55297e-07 4.38147e-07 0)
(1.16451e-05 5.64889e-05 0)
(1.16922e-05 2.58496e-05 0)
(-7.10675e-07 6.13986e-07 0)
(-1.07467e-05 0.000218744 0)
(1.3071e-05 0.000218697 0)
(4.80015e-09 7.0216e-08 0)
(-3.20338e-06 0.000256137 0)
(-1.17742e-06 6.93326e-06 0)
(4.20591e-11 1.40981e-09 0)
(6.82607e-06 1.73976e-05 0)
(-1.46867e-05 9.26944e-05 0)
(2.65575e-05 0.000329804 0)
(-2.43516e-05 0.000329834 0)
(-6.78268e-06 3.82963e-05 0)
(-2.25094e-12 6.34635e-10 0)
(4.30124e-07 1.19596e-05 0)
(-6.28878e-06 2.40913e-05 0)
(1.66047e-06 5.96517e-06 0)
(-8.0593e-06 7.78395e-05 0)
(-3.24141e-06 2.7552e-05 0)
(1.19465e-09 3.60919e-08 0)
(-6.99623e-11 5.6819e-10 0)
(1.54998e-06 2.00503e-05 0)
(1.07406e-05 0.000117901 0)
(2.92357e-06 0.00013997 0)
(-5.93719e-07 1.24412e-05 0)
(-2.44721e-11 1.46324e-09 0)
(-2.55336e-11 1.72475e-10 0)
(-5.98277e-06 2.40705e-05 0)
(-5.06374e-07 2.53971e-07 0)
(-1.61788e-05 0.000179778 0)
(1.6266e-06 6.00276e-07 0)
(3.03411e-06 5.56278e-06 0)
(-2.02203e-06 1.92888e-05 0)
(-2.48523e-10 1.66719e-09 0)
(-6.35366e-07 5.04893e-07 0)
(1.30408e-05 5.67207e-05 0)
(1.41604e-05 5.5087e-05 0)
(1.21792e-05 3.57944e-05 0)
(1.29855e-05 0.000208687 0)
(-6.33938e-06 0.000275063 0)
(7.75763e-06 0.000101638 0)
(2.03561e-06 7.62803e-06 0)
(2.6104e-06 1.21458e-05 0)
(1.09315e-05 2.72681e-05 0)
(-1.086e-05 4.89817e-05 0)
(-4.04638e-06 1.19747e-05 0)
(-8.12622e-06 3.21311e-05 0)
(-1.88935e-12 4.86661e-11 0)
(1.73948e-09 3.86866e-08 0)
(4.02238e-07 1.97109e-06 0)
(-4.40589e-06 8.94911e-06 0)
(-4.16968e-09 1.14609e-07 0)
(-3.8814e-06 3.66578e-05 0)
(2.18581e-06 7.46016e-06 0)
(1.64208e-06 5.42573e-05 0)
(-1.05591e-10 1.94044e-09 0)
(-2.33921e-06 2.30559e-05 0)
(1.94315e-06 7.70369e-06 0)
(-1.92708e-06 4.15401e-05 0)
(-1.14347e-06 1.17215e-06 0)
(2.83798e-05 0.000289645 0)
(-2.61373e-05 0.000289644 0)
(1.4008e-05 0.000235973 0)
(2.02044e-05 9.99299e-05 0)
(-1.79623e-05 9.993e-05 0)
(-5.99756e-06 2.26964e-05 0)
(-1.63428e-06 1.98252e-06 0)
(1.15025e-09 2.60378e-08 0)
(-3.79403e-06 1.51752e-05 0)
(1.09707e-05 2.34946e-05 0)
(-2.27368e-07 2.72055e-07 0)
(-9.48177e-10 6.85816e-09 0)
(-2.43908e-05 0.000261245 0)
(2.66343e-05 0.000261245 0)
(3.51959e-06 8.62829e-06 0)
(-1.95288e-06 1.15289e-05 0)
(1.03798e-06 8.65912e-06 0)
(6.04385e-06 1.51889e-05 0)
(4.88642e-06 3.28185e-05 0)
(5.88016e-09 6.80169e-08 0)
(2.62996e-06 2.05839e-06 0)
(-3.70344e-06 6.48595e-06 0)
(9.14192e-07 8.75874e-06 0)
(-9.01746e-07 6.90485e-06 0)
(1.82395e-05 0.000110348 0)
(-1.60006e-05 0.000110332 0)
(-5.67979e-09 5.72572e-08 0)
(5.63111e-06 6.52378e-06 0)
(-8.27409e-12 8.57528e-11 0)
(5.10138e-06 6.32651e-06 0)
(-6.91879e-11 7.32463e-10 0)
(3.67583e-06 1.46619e-05 0)
(4.42679e-06 3.28323e-05 0)
(1.28176e-07 -9.73137e-08 0)
(-8.73407e-06 2.34838e-05 0)
(-9.65594e-11 1.64252e-09 0)
(1.29555e-06 6.74704e-07 0)
(-8.129e-07 6.44998e-07 0)
(3.8099e-06 1.45366e-05 0)
(1.31145e-09 5.82805e-08 0)
(-9.99967e-06 0.000220054 0)
(1.22774e-05 0.000220047 0)
(-4.68311e-06 9.10351e-06 0)
(8.92594e-06 2.35956e-05 0)
(1.46606e-06 1.98457e-06 0)
(-4.04359e-06 7.29065e-05 0)
(5.80558e-06 7.00784e-06 0)
(-1.43495e-06 1.55379e-06 0)
(4.75104e-09 9.14172e-08 0)
(1.1585e-06 1.94208e-05 0)
(8.77626e-07 0.000104555 0)
(1.94814e-10 7.33004e-09 0)
(-5.92817e-08 1.73526e-07 0)
(-2.32828e-06 5.80594e-06 0)
(-1.97614e-05 0.000249706 0)
(2.20042e-05 0.000249706 0)
(-7.04096e-07 2.52081e-06 0)
(-4.06905e-12 3.94957e-11 0)
(8.82326e-06 0.000241927 0)
(-4.70333e-07 9.56965e-06 0)
(-3.66326e-06 2.40221e-05 0)
(-9.1561e-07 7.0233e-06 0)
(6.94629e-06 4.52579e-05 0)
(-6.09192e-07 5.17239e-07 0)
(-5.62701e-06 1.36742e-05 0)
(7.86219e-06 1.36808e-05 0)
(-1.96729e-06 5.21442e-06 0)
(-2.32013e-08 -1.09552e-08 0)
(2.16538e-09 4.81118e-08 0)
(-7.38704e-06 3.28067e-05 0)
(3.48396e-06 1.28993e-05 0)
(5.6932e-06 6.97765e-06 0)
(4.63699e-06 3.59071e-06 0)
(1.46285e-05 8.99385e-05 0)
(9.19402e-08 -6.85887e-08 0)
(-5.82788e-07 4.94357e-07 0)
(-1.85281e-06 1.59159e-05 0)
(-8.3155e-07 1.1774e-05 0)
(-5.89824e-06 5.93257e-05 0)
(-7.21929e-06 3.86618e-05 0)
(4.32094e-07 5.60429e-06 0)
(-7.15502e-07 5.15864e-07 0)
(4.97937e-07 0.000269397 0)
(-1.13302e-07 2.96622e-06 0)
(6.17068e-06 1.02193e-05 0)
(3.35619e-07 4.20733e-06 0)
(-1.11117e-07 1.84756e-07 0)
(-1.8309e-12 1.22593e-10 0)
(-1.11742e-06 3.92318e-06 0)
(-1.59635e-11 1.6744e-09 0)
(-3.66661e-06 1.6608e-05 0)
(-2.04914e-06 7.85305e-06 0)
(7.26722e-06 6.197e-05 0)
(-6.79006e-08 1.6145e-07 0)
(-6.11547e-08 1.24563e-07 0)
(-2.61596e-05 0.000297402 0)
(2.84023e-05 0.000297402 0)
(-2.30358e-06 3.33116e-06 0)
(-5.4605e-07 6.85478e-07 0)
(-1.0533e-11 4.19912e-11 0)
(5.39148e-10 2.80364e-08 0)
(2.07711e-05 0.00011654 0)
(-1.86205e-05 0.00011655 0)
(-7.64503e-06 0.000134478 0)
(1.41256e-10 7.35157e-09 0)
(3.90969e-06 1.31331e-05 0)
(-8.72431e-07 7.58279e-07 0)
(-5.22581e-06 1.02659e-05 0)
(4.74756e-06 1.61126e-05 0)
(-8.93642e-07 6.59558e-07 0)
(-2.73328e-06 2.26324e-05 0)
(2.02617e-07 -4.46689e-08 0)
(-2.65466e-07 1.76256e-07 0)
(-2.25001e-07 2.43688e-07 0)
(-1.67377e-06 2.14831e-06 0)
(4.93791e-07 1.35621e-06 0)
(3.05721e-06 5.72208e-06 0)
(4.04852e-06 1.46178e-05 0)
(-1.13566e-11 1.57309e-10 0)
(-9.59009e-07 1.92045e-06 0)
(-1.68593e-06 2.04893e-06 0)
(-2.03952e-06 4.56363e-06 0)
(2.26905e-06 7.5443e-06 0)
(3.3115e-09 9.2556e-08 0)
(-1.56143e-05 9.2499e-05 0)
(5.2385e-08 6.22018e-05 0)
(7.34811e-06 0.000263576 0)
(-3.12044e-07 1.32587e-07 0)
(1.09542e-06 2.53082e-05 0)
(2.21174e-09 3.55225e-08 0)
(4.4342e-10 9.23695e-09 0)
(1.14057e-06 8.0326e-07 0)
(2.1291e-06 3.10843e-06 0)
(6.44824e-06 1.68267e-05 0)
(5.18197e-06 0.000173901 0)
(7.92617e-06 0.000356237 0)
(5.44409e-06 0.00040351 0)
(1.84372e-06 9.21152e-06 0)
(3.27077e-06 6.30861e-06 0)
(1.69704e-09 2.918e-08 0)
(-1.34136e-06 1.4097e-06 0)
(5.71682e-06 6.00666e-06 0)
(4.10007e-06 1.32048e-05 0)
(-6.75169e-12 4.67522e-11 0)
(-1.24549e-07 3.09447e-05 0)
(1.77975e-06 9.08774e-06 0)
(-1.70024e-07 2.42083e-07 0)
(4.50199e-06 6.37711e-05 0)
(5.45935e-06 8.73549e-05 0)
(5.59093e-07 1.58974e-05 0)
(1.0703e-05 2.73984e-05 0)
(2.94529e-06 5.51264e-06 0)
(-3.46232e-10 3.11306e-09 0)
(-3.91445e-06 2.42411e-05 0)
(-3.57878e-10 3.23419e-09 0)
(1.35923e-05 0.000109276 0)
(2.81166e-06 6.3188e-06 0)
(-2.71643e-06 4.12046e-05 0)
(4.60907e-06 9.79574e-05 0)
(1.32265e-10 4.50833e-09 0)
(-1.19738e-11 4.12297e-11 0)
(1.60996e-06 1.10601e-05 0)
(-1.28151e-09 1.10682e-07 0)
(2.68243e-06 5.16552e-06 0)
(-2.06938e-06 1.14416e-05 0)
(-2.98102e-06 1.22571e-05 0)
(-5.87045e-06 2.33653e-05 0)
(-1.88681e-05 0.000365682 0)
(2.1261e-05 0.0003657 0)
(3.9748e-06 5.76875e-06 0)
(6.79413e-09 6.16274e-08 0)
(-1.62849e-06 3.65367e-06 0)
(6.28478e-06 1.0153e-05 0)
(-9.47113e-09 1.2256e-07 0)
(4.568e-06 1.61206e-05 0)
(-1.45346e-06 1.56128e-06 0)
(-7.40812e-07 5.02597e-07 0)
(-1.58675e-06 1.55403e-05 0)
(5.41754e-07 0.000105489 0)
(-2.57789e-10 5.94337e-09 0)
(-5.33502e-06 1.05067e-05 0)
(-8.97339e-06 9.17013e-05 0)
(-2.7431e-07 2.95627e-07 0)
(1.64405e-06 1.83669e-06 0)
(-4.68728e-06 1.51541e-05 0)
(2.07543e-07 -8.43069e-08 0)
(6.92763e-06 1.5156e-05 0)
(-5.26322e-12 3.39492e-11 0)
(-8.37175e-06 2.14974e-05 0)
(1.77546e-06 5.77028e-06 0)
(-1.00514e-05 0.000311671 0)
(1.30834e-05 4.84504e-05 0)
(1.57936e-06 7.43705e-06 0)
(-2.30625e-07 2.50626e-07 0)
(-7.59659e-06 0.000368615 0)
(-2.03841e-12 1.95397e-11 0)
(5.01151e-09 4.45483e-08 0)
(-3.86065e-07 3.13836e-07 0)
(2.1185e-07 5.22197e-06 0)
(2.27334e-06 1.08446e-05 0)
(-4.42707e-06 9.66515e-05 0)
(7.79595e-06 1.25537e-05 0)
(4.53513e-12 1.42253e-10 0)
(-1.18035e-05 0.000129645 0)
(-1.23175e-09 3.37235e-08 0)
(-1.98033e-06 1.17292e-05 0)
(7.73314e-07 3.43261e-05 0)
(9.23786e-06 3.65729e-05 0)
(1.49822e-05 0.000102624 0)
(-1.27403e-05 0.000102624 0)
(1.3905e-05 0.000145507 0)
(-1.16357e-05 0.000145489 0)
(-7.83344e-12 7.8222e-11 0)
(-4.25044e-06 0.000182223 0)
(5.89203e-11 8.03145e-10 0)
(8.55386e-06 0.00017488 0)
(-1.31551e-06 2.56148e-05 0)
(5.32186e-06 5.14752e-06 0)
(6.5189e-06 3.73113e-05 0)
(2.47883e-09 1.04361e-07 0)
(4.92258e-06 4.36633e-06 0)
(1.46533e-06 8.27697e-07 0)
(4.28981e-06 7.26617e-06 0)
(9.43499e-06 4.38669e-05 0)
(2.67039e-05 0.000288648 0)
(-2.44613e-05 0.000288648 0)
(1.78395e-06 5.67818e-06 0)
(1.74181e-11 4.29794e-10 0)
(3.61241e-11 7.03347e-10 0)
(1.64142e-07 -8.46877e-08 0)
(5.58814e-06 5.77923e-06 0)
(-1.59144e-05 9.90144e-05 0)
(1.81564e-05 9.90143e-05 0)
(-2.43863e-06 6.10245e-05 0)
(4.51482e-07 3.07688e-06 0)
(-8.57347e-07 8.15282e-07 0)
(2.08466e-05 0.000117553 0)
(-1.86069e-05 0.000117582 0)
(1.46942e-05 0.000107808 0)
(6.82426e-07 1.17848e-05 0)
(2.69301e-06 9.72707e-06 0)
(1.49901e-05 0.000145192 0)
(-1.27204e-05 0.000145174 0)
(-2.75708e-06 0.000111768 0)
(5.2793e-13 5.20313e-11 0)
(1.62071e-06 1.91168e-06 0)
(1.81999e-06 2.01857e-06 0)
(-3.60339e-10 4.07244e-09 0)
(2.73265e-06 0.000274249 0)
(-3.17763e-06 7.78693e-06 0)
(6.01771e-06 8.34257e-05 0)
(-4.58916e-06 0.000100759 0)
(1.41687e-05 0.000162184 0)
(-1.19211e-05 0.000162257 0)
(-1.63223e-12 1.08812e-11 0)
(6.99366e-06 4.61284e-05 0)
(1.21265e-05 5.77113e-05 0)
(-1.49788e-06 2.5362e-06 0)
(-2.39402e-06 2.27066e-05 0)
(1.40643e-06 2.88666e-05 0)
(-6.68535e-11 6.64196e-10 0)
(9.4732e-06 2.19746e-05 0)
(-5.14997e-06 1.00139e-05 0)
(6.24196e-07 3.20304e-06 0)
(-2.96471e-10 3.2425e-09 0)
(-8.98372e-07 7.83522e-07 0)
(-1.4105e-06 3.78754e-06 0)
(-6.17775e-08 1.76692e-07 0)
(-4.71652e-06 0.000128634 0)
(1.96857e-06 1.93947e-06 0)
(-1.37373e-07 1.95576e-07 0)
(1.95815e-09 3.07739e-08 0)
(3.63025e-06 3.74605e-05 0)
(-3.95781e-06 1.1235e-05 0)
(-2.53178e-06 5.16562e-06 0)
(-4.44144e-11 8.42839e-10 0)
(2.44962e-06 3.04144e-06 0)
(-8.66835e-10 4.99887e-08 0)
(-2.39984e-06 5.08882e-06 0)
(3.32789e-06 6.40628e-06 0)
(6.66476e-06 0.000175498 0)
(-1.23105e-11 1.39334e-10 0)
(5.16125e-06 5.22316e-06 0)
(-2.51131e-05 0.000299208 0)
(2.7356e-05 0.000299208 0)
(3.78499e-10 1.21598e-08 0)
(-6.15862e-06 2.33612e-05 0)
(7.76959e-07 1.5569e-07 0)
(6.64129e-06 0.000353626 0)
(4.09196e-07 1.21361e-06 0)
(-6.23464e-09 6.09331e-08 0)
(-4.70216e-06 9.75951e-05 0)
(-1.62348e-09 2.39866e-08 0)
(-2.42771e-11 1.52578e-10 0)
(4.08598e-06 2.94767e-05 0)
(9.21536e-06 3.31992e-05 0)
(4.79917e-07 -2.5388e-08 0)
(4.15182e-06 2.54563e-05 0)
(-8.17535e-06 3.45659e-05 0)
(1.32289e-05 5.60272e-05 0)
(-8.23413e-07 1.00848e-06 0)
(-7.89097e-06 3.34839e-05 0)
(7.48772e-12 4.34423e-10 0)
(5.40556e-06 9.88155e-05 0)
(-1.09535e-06 2.52415e-05 0)
(-1.06e-05 3.34191e-05 0)
(9.22511e-07 1.42748e-06 0)
(5.00636e-06 2.94456e-05 0)
(-9.68405e-08 4.79784e-06 0)
(1.8589e-10 4.52436e-09 0)
(-1.15392e-05 8.82902e-05 0)
(-3.05317e-06 7.79528e-06 0)
(2.97875e-06 5.75854e-06 0)
(7.83707e-07 3.32344e-06 0)
(9.46249e-06 2.72956e-05 0)
(1.34713e-05 5.47198e-05 0)
(-5.65681e-06 2.8033e-05 0)
(1.48393e-05 5.49348e-05 0)
(-2.30658e-08 1.27502e-07 0)
(-2.78332e-06 1.5359e-05 0)
(6.35086e-06 4.207e-05 0)
(-1.34856e-10 8.19783e-10 0)
(-1.70247e-06 0.000165227 0)
(-6.5455e-08 7.305e-08 0)
(1.45476e-05 0.000108701 0)
(9.17879e-06 3.69498e-05 0)
(1.07107e-06 2.57133e-05 0)
(2.04567e-11 4.48549e-10 0)
(-8.06305e-07 3.83291e-05 0)
(-5.5095e-06 5.4405e-05 0)
(1.12993e-05 6.83559e-05 0)
(-8.11598e-08 1.59687e-07 0)
(-5.3738e-06 1.16763e-05 0)
(-4.67379e-07 3.01777e-07 0)
(-8.16789e-06 9.09676e-05 0)
(-1.49044e-07 -3.74486e-08 0)
(-2.06142e-07 8.5464e-06 0)
(-5.42e-06 6.22364e-05 0)
(-8.51809e-10 2.87084e-08 0)
(-1.33587e-06 9.80087e-05 0)
(-9.14925e-06 5.5538e-05 0)
(-1.61887e-06 1.9943e-06 0)
(-3.67079e-12 3.20104e-11 0)
(-3.64253e-06 8.60186e-06 0)
(-9.586e-06 4.1329e-05 0)
(-7.99089e-07 1.03295e-06 0)
(2.02101e-09 3.96637e-08 0)
(-1.78248e-06 3.73916e-06 0)
(2.74462e-06 2.12117e-06 0)
(-2.18078e-05 0.000157971 0)
(2.40496e-05 0.000157972 0)
(4.62639e-06 2.3707e-05 0)
(2.93833e-06 1.9367e-05 0)
(1.50213e-06 1.14294e-05 0)
(1.6852e-06 1.21676e-05 0)