/*--------------------------------*- C++ -*----------------------------------*\
| =========                 |                                                 |
| \\      /  F ield         | OpenFOAM: The Open Source CFD Toolbox           |
|  \\    /   O peration     | Version:  v3.0+                                 |
|   \\  /    A nd           | Web:      www.OpenFOAM.com                      |
|    \\/     M anipulation  |                                                 |
\*---------------------------------------------------------------------------*/
FoamFile
{
    version     2.0;
    format      ascii;
    class       volScalarField;
    location    "18000";
    object      sigmayy;
}
// * * * * * * * * * * * * * * * * * * * * * * * * * * * * * * * * * * * * * //

dimensions      [1 -1 -2 0 0 0 0];

internalField   nonuniform List<scalar> 
27023
(
-1.59056e+07
1.5908e+07
1.26371e+07
-1.26373e+07
-1.49432e+07
1.49452e+07
5.70936e+06
-5.70845e+06
8.84719e+06
-8.85343e+06
8.84965e+06
-8.85048e+06
2.33324e+06
-2.33404e+06
-836227
132381
484074
-1.46055e+06
1.46112e+06
2.27064e+06
-2.26562e+06
4.87775e+06
-4.87685e+06
7.30539e+06
-7.30144e+06
832698
-5.21074e+06
-39784.9
-5.70241e+06
-144713
1.05326e+06
2.25646e+06
-2.2534e+06
-102668
-907273
138292
3.85934e+06
-3.8604e+06
8.26319e+06
-8.26782e+06
-1.33923e+07
1.33923e+07
-212537
-1.4665e+07
1.46673e+07
1.36542e+06
-1.36484e+06
5.67083e+06
-5.66716e+06
-163556
5.33725e+06
-5.33371e+06
-75816.1
579194
-576312
207742
281964
-42160.4
36651.9
1.38967e+07
-1.38966e+07
75409.6
264645
-177174
-94593.6
1.14553e+06
1.47993e+06
900592
-4.3752e+06
-224258
4.05386e+06
-4.05485e+06
6.91995e+06
-6.91765e+06
138491
-138482
1.00489e+06
-1.00444e+06
-1.65287e+06
1.65296e+06
-3.86467e+06
8.38831e+06
-8.38883e+06
7.31578e+06
-7.31337e+06
16183.8
-16186.8
-1.43877e+06
195623
82279.9
183100
1.31621e+07
-1.31596e+07
2.36757e+06
-498837
-6.84833e+06
6.85119e+06
-4.00527e+06
-202920
-35930
-12522.1
-115724
429750
7.17886e+06
-7.17679e+06
-154304
5.4441e+06
-5.44301e+06
457912
407357
-178107
6.44355e+06
-6.44235e+06
6.74885e+06
-6.74647e+06
173960
-173903
-1.37068e+06
-2.59103e+06
-2.47214e+06
364830
32922.2
-1.32895e+07
1.32908e+07
2.46258e+06
-2.46226e+06
1.23489e+07
-1.23463e+07
7.76357e+06
-7.76117e+06
-180773
-1.27188e+06
1.16698e+06
-1.26463e+06
231762
-182133
182132
1.41403e+06
2.14409e+06
-2.14346e+06
-7.36901e+06
7.37069e+06
-828947
6.07128e+06
-6.07007e+06
-926252
7969.62
6.21747e+06
1.48936e+06
1.73158e+07
-1.73139e+07
1.26782e+07
-1.26755e+07
-6300.46
-2.33961e+06
-369722
661478
945765
2.16338e+06
-2.16282e+06
217072
-32667.3
-45643.5
428637
-1.17892e+07
1.17901e+07
-7.2781e+06
7.28026e+06
-2.86121e+06
249957
175123
-1.92595e+06
1.92599e+06
162303
319536
-527326
163136
-1.27201e+06
148212
1.87958e+06
-1.50194e+06
-6.46508e+06
6.46675e+06
226681
-267646
-390328
-7.00904e+06
7.01421e+06
-30898.3
21027.4
-8.28956e+06
8.29143e+06
-3.75682e+06
19001.2
3.84696e+06
-3.8467e+06
-23420.6
-8.10264e+06
8.10409e+06
-2.716e+06
886990
-4.63168e+06
-12747
12693.8
-1.30978e+07
1.30997e+07
-2.17037e+06
-151159
118956
-119012
113618
-113118
1.73369e+06
-2.38857e+06
-1.8585e+06
1.85581e+06
-4.25906e+06
532890
44269.7
-727587
727623
-80339.7
-1.1819e+07
1.18198e+07
-46564.9
2.4654e+06
-2.46511e+06
7.31966e+06
-7.31691e+06
4.79148e+06
-4.79555e+06
-449157
2.04395e+06
-2.04373e+06
-87008.9
672160
-672056
117579
312967
-4.55944e+06
4.55976e+06
5.42738e+06
88380.6
170268
-653335
1.49473e+06
535049
-4.63526e+06
-89059.3
-517138
-4.0128e+06
4.01329e+06
140920
-2.55565e+06
3199.37
-165467
12955.9
-165947
2.20725e+06
-2.20549e+06
-1.81547e+06
855160
453491
653751
-653613
5.37756e+06
-5.37655e+06
241870
-1.66296e+06
1.24513e+07
-1.2451e+07
698880
-1.03239e+06
66527.9
185094
-113385
-1.1002e+07
1.10024e+07
-1.51549e+06
1.51279e+06
-291275
-12910.1
-164908
31184.8
-856010
859678
-71023.2
-179950
460202
4.96409e+06
-332376
-201188
-4.21532e+06
4.21585e+06
19325.5
-19330.6
89125.8
104701
87705.9
-87688
2.38507e+06
619723
-7.15771e+06
7.15981e+06
2.70961e+06
2.76341e+06
-2.77139e+06
4.88899e+06
317896
425158
587765
500122
-498462
6.7607e+06
-6.76626e+06
177688
-3.82318e+06
3.82321e+06
146452
145428
2.9159e+06
-2.92318e+06
-6.26006e+06
135501
2.60892e+06
-51719.7
-116207
20306.5
5.4224e+06
-6.21448e+06
-2.71244e+06
6.11422e+06
485758
732856
248452
-1.87631e+07
1.87657e+07
-1.47215e+06
913423
6.91118e+06
-6.90933e+06
520934
-543550
134003
-133420
-4.05989e+06
1.81373e+07
-1.81343e+07
411532
358554
-409224
359937
1.88487e+06
-1.88464e+06
124437
-123398
-173114
-3.15785e+06
3.15813e+06
-64796.9
-3.61827e+06
-206846
206831
-8.16724e+06
8.16864e+06
-234414
207847
-687839
-1.41651e+07
1.41682e+07
-1.93278e+06
1.93285e+06
-1.01195e+06
-477721
1.46656e+06
184016
-427961
-5.45832e+06
-86200.8
4.42951e+06
73386.8
-4.43166e+06
5.28089e+06
-5.28009e+06
-4.78503e+06
2.1021e+06
142128
46080.6
-6.55666e+06
1.21699e+06
-3.91436e+06
52531.2
3.78948e+06
153741
118220
88763.8
430577
449218
-31015.1
-381331
7.7379e+06
-7.73501e+06
2.05278e+06
-4.36396e+06
-444683
-1.3068e+07
1.30709e+07
-158056
599428
-6.62418e+06
76577
6.6347e+06
897080
-893106
-520390
41787.7
3.95379e+06
404651
-228249
-481022
3.07279e+06
-23232.2
-3.14586e+06
672612
64720.2
232654
-213956
213941
-318412
-24885.6
-1.02872e+06
-5.07741e+06
456291
-456211
-6.50104e+06
6.50345e+06
-80874.1
-2.0707e+06
1.19888e+07
-1.19913e+07
193299
-188598
3.19916e+06
-3.19843e+06
-308330
309642
-2.81586e+06
73241.9
-425940
332750
938237
-9.27949e+06
9.28048e+06
-8.02487e+06
8.02625e+06
794652
-789691
1.55447e+07
-1.55427e+07
-2.08444e+06
519883
-548364
-227896
3.7043e+06
274365
-173147
-3.30361e+06
3.30421e+06
-125640
155391
172263
-130528
132899
-5.76062e+06
-1.30002e+06
4.79985e+06
-4.79908e+06
228681
11553.2
8.82049e+06
-8.8231e+06
2.08918e+06
-2.08894e+06
78247.2
2.2862e+06
-1.69357e+06
-2.47196e+06
-35756.5
-702549
-9.59347e+06
9.59246e+06
-330838
4.6142e+06
149655
-3.58211e+06
3.58216e+06
1.79689e+07
-1.79659e+07
3.88217e+06
-332997
-315623
-5.92536e+06
5.93004e+06
34473.4
-964728
4.75939e+06
-4.75636e+06
-5.1332e+06
7.14798e+06
-7.14683e+06
7.85753e+06
-7.85749e+06
-6.64268e+06
-1.45909e+07
1.45917e+07
-289123
-241980
599490
-599341
-395965
189853
-189817
-670347
-6.02628e+06
6.02737e+06
-1.55269e+06
1.55212e+06
-954625
1.91322e+07
-1.91306e+07
-367722
41953.1
-704716
-1.76925e+06
7.96339e+06
-7.95792e+06
-3.24428e+06
3.24445e+06
-111329
227780
5.46689e+06
-33729.3
-6.12036e+06
-5.74878e+06
-139202
-1.24333e+07
1.24311e+07
180097
-198859
198882
46941.5
-2915.78
-7.05709e+06
7.05914e+06
-4.38483e+06
-221629
206291
283118
-967924
231781
-5.14903e+06
-220559
5.30463e+06
-5.30005e+06
-76019.3
106338
2.3604e+06
-2.35994e+06
223936
-2.02545e+06
2.03046e+06
-331416
1.99286e+07
-1.99259e+07
-8.34179e+06
8.34313e+06
-2.13424e+07
2.13448e+07
-298330
-5.32776e+06
5.28964e+06
208496
-1.72044e+07
1.72064e+07
128500
2.04444e+06
-2.53263e+06
-17717.8
-75968
205885
-971457
-88477.6
7.09152e+06
-7.08813e+06
-197754
6.98759e+06
-6.98392e+06
349190
-7.06908e+06
7.07178e+06
-526089
61911.9
-1.99422e+06
1.99701e+06
549221
-549098
102541
3.6847e+06
5.77359e+06
5.06793e+06
-5.06671e+06
1.15933e+06
-1.15921e+06
-398719
-225236
208691
-110552
4.08654e+06
-4.09048e+06
-376524
4065.39
-88721.3
89136.9
-4085.26
-323532
2.06131e+06
-2.05702e+06
-1.43469e+07
1.43483e+07
-1.26524e+07
1.2655e+07
2.03536e+07
-2.03509e+07
1.36475e+06
7.26406e+06
-7.26067e+06
-194571
40672.9
-7.59029e+06
7.59428e+06
-181227
5.80648e+06
-5.80482e+06
159510
-1.63714e+06
19240.7
-2.14552e+07
2.14577e+07
30469.4
-74932.7
-145081
188647
-5.75622e+06
5.75735e+06
859548
5.96238e+06
-3.32895e+06
3.32917e+06
-286928
288088
766027
-762126
438477
182316
155112
-155115
-4.7176e+06
-5.92789e+06
-1.24482e+06
-797079
4.29437e+06
1.1294e+06
-99136.5
-2.1618e+06
-1.92304e+06
76725.9
3.05274e+06
212557
-327042
-738601
551318
647470
-645966
7.1208e+06
-7.11839e+06
3.34162e+06
-487992
916.991
150339
101979
-63369.5
-6.29557e+06
-211753
532672
21440.7
-1.70833e+06
9.40421e+06
-9.40273e+06
5.78943e+06
96548.9
-17318.5
-60293.6
4.83518e+06
-4.83456e+06
-119102
119086
556091
-553602
183199
-869692
-836226
-715441
-6.13316e+06
6.14343e+06
323464
9.93423e+06
-9.93814e+06
-822169
822232
-325884
6.10687e+06
-6.10548e+06
1.39038e+06
-45106.4
-50319.7
213698
4446.86
100144
746888
-746727
-156169
-1.44861e+06
6.87002e+06
-6.8685e+06
-91252.8
102285
-4.08257e+06
-101308
-999853
1.06984e+06
177266
1.14444e+06
48455.7
38561.9
-114400
-3.07317e+06
-137738
-1.20084e+06
4.11049e+06
-4.10375e+06
-59397.4
59440.9
124795
516118
-5.33769e+06
5.33859e+06
-132841
-404550
-493285
1.04818e+06
-156733
1.92859e+07
-1.92827e+07
-395868
6.30592e+06
-6.30042e+06
-261898
261974
197594
-113129
-1.11251e+06
129595
9.4433e+06
-9.44519e+06
-220824
359910
277045
88571.5
197883
-4.8373e+06
-1.90538e+06
-2.16525e+06
401372
93116.1
-93093.4
9.39136e+06
-9.39153e+06
166932
-217447
-640703
-599064
488652
-488614
36150.1
119412
-19224.3
116793
376603
2.86661e+06
-2.87203e+06
-1.08485e+06
-335758
5.61798e+06
-5.61674e+06
-571909
60383.7
891349
1.52227e+06
-1.52226e+06
-4.29333e+06
4.29993e+06
-5.34839e+06
-9.73905e+06
9.74032e+06
186113
-87247.2
-145566
-239571
702718
-702582
298835
-3.41888e+06
3.41879e+06
18035.6
-18021.6
-4.74369e+06
4.89585e+06
1.62449e+07
-1.62427e+07
-6.6442e+06
6.64587e+06
905046
-248027
5.47241e+06
-5.47116e+06
-152765
-743653
1.28984e+07
-1.28963e+07
1.06285e+06
-1.06271e+06
-7.01441e+06
-5.58537e+06
5.58632e+06
-344285
344256
7.01451e+06
323085
272958
-472646
1.60469e+06
-1.6042e+06
51331.7
553083
1.12802e+06
-50432.5
4.0228e+06
6.28024e+06
-182816
6.03472e+06
-6.03122e+06
65652.1
2.25644e+06
-21304.8
478735
-479074
-59701.3
-289223
794250
-793840
-4.77089e+06
-5.67967e+06
-293382
6.0615e+06
-6.06038e+06
-7.09669e+06
-342394
-6.72044e+06
-230179
1.73234e+07
-1.73213e+07
195506
3.457e+06
7.08686e+06
-148168
199296
6.72834e+06
230483
1.18217e+07
-1.18191e+07
-316326
316254
56421.1
-2.51341e+06
51183.2
7.94516e+06
-7.94433e+06
-3.37806e+06
3.37863e+06
-151279
368406
1.60846e+06
-1.60792e+06
-93809.7
4.52778e+06
-4.53143e+06
-458139
-1.71531e+06
138222
-56612.7
229553
-139293
1.00971e+06
-1.29907e+06
65997.2
537318
-537267
-416082
588872
964234
-313491
123161
-572581
-864595
-239941
474826
539020
2.65078e+06
-4.52997e+06
3.57793e+06
-190528
-237695
-234778
-1.28955e+07
1.28936e+07
4.45225e+06
-2.50381e+06
2.49946e+06
-1.06111e+06
-1.63462e+06
7.59446e+06
-7.58927e+06
1.57106e+06
2.313e+06
-2.31362e+06
-3.81524e+06
-92252.7
1.72382e+06
-4.49866e+06
6.32038e+06
3.72909e+06
-179044
5.13115e+06
258514
165076
1.65339e+07
-1.6531e+07
532243
-1.76673e+06
3.07521e+06
-3.07824e+06
6.37774e+06
209963
409138
341486
-2.68922e+06
2.69577e+06
-25491.7
-1.21709e+06
-462061
-1.69891e+06
1.69884e+06
-254064
-32416.8
426853
3891.65
-2.39918e+06
-96586.6
4.31003e+06
162910
-2.49365e+06
2.49457e+06
6130.89
-235683
604463
586648
22496.9
-9.03492e+06
9.03335e+06
557186
-1.83654e+06
49257.7
-1.33041e+07
1.33025e+07
1337.62
1.23737e+06
-225335
-3.6319e+06
3.63243e+06
-1.19241e+06
-6.42042e+06
6.46805e+06
1.01757e+07
-1.01752e+07
-31984.1
-1.20852e+06
1.06417e+06
-1.06401e+06
-4.4742e+06
2.0865e+06
-306480
671825
-671721
-639916
6.87729e+06
-6.87654e+06
-417903
-354096
-1.4355e+06
-8.04966e+06
-4.34926e+06
-92108
8.04689e+06
455485
612011
-1.82258e+06
-2.862e+06
2.86445e+06
3.98274e+06
-4.28424e+06
367324
4.64284e+06
270108
-88002.4
-31546.6
-258017
-3.38949e+06
-223429
42821.1
1.17424e+06
-1.25721e+06
-154906
-277317
811022
-210085
162301
-1.80618e+06
168352
242665
-1.85731e+07
1.85749e+07
760661
-649109
-2.43e+06
2.43473e+06
2.86769e+06
-2.86718e+06
-114118
-307977
82145.4
-1.78079e+06
1.78223e+06
465470
-465417
177972
482954
-22447.3
-1.21071e+06
-514700
-338131
-1.12447e+06
345502
8698.33
7.31255e+06
-7.30867e+06
4.98166e+06
-4.85579e+06
2.29646e+06
559193
597374
-597288
1.23262e+06
1.85761e+06
4.59916e+06
80880.1
-158561
182021
32187.8
-290499
-158679
-306463
-142443
-183320
7.55666e+06
-7.55274e+06
-262651
1.51876e+06
3.6998e+06
-104940
-112404
932303
-930370
-4.07601e+06
23232.4
-7.12499e+06
7.12068e+06
7.96962e+06
-7.97397e+06
965390
-453215
226823
632420
-8.6464e+06
8.64754e+06
3.40324e+06
-3.41059e+06
1.71898e+06
574790
-574721
-548646
201173
-1.00473e+06
258144
-256979
-4.19824e+06
-2.52969e+06
272015
-489416
-7.43624e+06
7.43852e+06
4.62716e+06
-125667
128250
15862.5
425888
-132022
5.26479e+06
-5.24881e+06
-591438
591508
-1.15496e+06
-5.89634e+06
5.91432e+06
-3.29265e+06
3.29307e+06
2.19311e+06
33593.6
473861
226973
5.35029e+06
-5.34806e+06
-869963
-2.01334e+06
-84796.8
35224
-1.55541e+07
1.55571e+07
205494
1.05136e+06
63284
3.06109e+06
-3.06068e+06
-204417
-1.37319e+06
-66543.7
-73310.4
5.96343e+06
-5.96223e+06
112203
5.96005e+06
-5.95818e+06
210428
-70233.4
236156
-249560
5.16224e+06
629150
71237.1
-492671
-106381
2.14521e+06
-2.00779e+06
460575
-457697
93921.1
6.30302e+06
-6.30692e+06
9.18396e+06
-9.1837e+06
-27012.7
8.38318e+06
-8.38169e+06
-1.33062e+07
1.33069e+07
-182566
182551
30387.8
457482
-457421
-557840
772994
-2.33219e+06
-1.43107e+06
-178053
77081.2
52091.5
-49855.4
-4.24694e+06
4.2455e+06
1.09045e+06
-150050
171017
205443
-381272
151490
-161302
-544353
61040.2
6.05625e+06
-6.06058e+06
100055
-5.40146e+06
-63681
-102185
-2.9646e+06
-2.56856e+06
5.63412e+06
-5.6376e+06
5.14288e+06
-213288
-909838
1.02816e+06
-342276
268928
-94404
-6.76843e+06
6.77335e+06
127182
-1.54343e+06
4.21716e+06
-5.79286e+06
6.58314e+06
95492
5.78198e+06
-173924
396671
3.24242e+06
3.15842e+06
-2.06561e+06
1.21659e+06
225063
25252.8
-35972.9
-29057.2
425499
-4.21916e+06
121005
331142
-331109
108984
1.30672e+06
-2.02336e+06
-2.37981e+06
443723
-7.94647e+06
1.01824e+06
-271777
138441
231037
7.94055e+06
419109
-919744
899183
-189470
31044
-16653.8
-160820
834284
-833134
196501
-8.35258e+06
8.35162e+06
275755
8.41647e+06
-8.41442e+06
840416
1.8818e+07
-1.88149e+07
234414
169469
-593830
265075
-265093
437007
-1797.29
-259254
-426515
9.06983e+06
-9.06951e+06
-5.17786e+06
1.77841e+06
1.49073e+06
-180136
3.02727e+06
-3.03055e+06
604308
-601651
871717
47093.7
1.75097e+07
-1.75075e+07
6.63776e+06
-6.6361e+06
-8780.23
463802
1.98386e+06
7.64925e+06
-7.64635e+06
-174176
-976738
980247
107978
-102136
-6.13748e+06
6.13854e+06
174656
825158
-825056
8.92418e+06
-8.92504e+06
-599979
-131339
-974784
46066
4.14313e+06
738587
-43490.3
2.26328e+06
5.59053e+06
-130090
924796
-134341
529580
-529484
-2.8232e+06
-1.33316e+07
1.3332e+07
5.72487e+06
-5.72403e+06
-1.44494e+06
-6.88115e+06
6.88413e+06
2.62677e+06
-2.62123e+06
-968770
2.86981e+06
-2.85685e+06
115044
-229666
229699
65895.3
-149229
-491273
260446
5.04676e+06
-5.11606e+06
272352
173349
-2.6368e+06
-213306
-300556
302357
-4.01015e+06
4.01055e+06
83546.6
384445
8.00327e+06
-8.00207e+06
-107468
4.4148e+06
113314
-1.26066e+06
1.06327e+06
5.45628e+06
-400598
-383525
36937.3
-7.07127e+06
7.07239e+06
-2.4552e+06
2.45739e+06
-1.95794e+06
1.9586e+06
1.68552e+06
-1.67238e+06
-21881.5
232777
27587.6
231786
-4.42194e+06
-876782
4.40494e+06
-4.40905e+06
-62160.4
110360
1.97957e+06
-5.92332e+06
5.92352e+06
3.46622e+06
506005
-2956.01
5.81554e+06
-5.81391e+06
-6.07102e+06
-210544
-1.3625e+06
1.36309e+06
-3.37949e+06
-7.25601e+06
7.25923e+06
-315600
-2.64845e+06
-5.87143e+06
-123709
-1.08382e+06
983130
57035.8
1.71412e+06
1.0807e+07
-1.08039e+07
-47438.1
1.33311e+07
-1.33297e+07
1.28358e+06
6.14784e+06
-6.14629e+06
-1.65409e+07
1.65439e+07
-102292
-1.65975e+06
1.65871e+06
-986652
986945
63668.1
-4.17133e+06
186482
1.51328e+07
-1.51312e+07
-127955
-404427
-5.15131e+06
5.13299e+06
168688
1.1985e+07
-1.19836e+07
2.12585e+06
-107058
-19342.4
19385.3
-1.10355e+06
1.10642e+06
-8.89901e+06
6.82329e+06
-6.82167e+06
192730
2.97685e+06
-2.98456e+06
3.98079e+06
-3.98465e+06
316337
4.15267e+06
1.05692e+07
-1.0568e+07
-4.0297e+06
4.03004e+06
1.98678e+06
190079
-1.18893e+07
1.18865e+07
735416
204689
-203714
177084
-177082
-3.63777e+06
1.36003e+07
-1.36011e+07
591799
-6.13785e+06
6.13913e+06
-3.15392e+06
-973208
-1.53545e+06
1.53562e+06
-9.10284e+06
9.10397e+06
-1.91201e+06
380135
-181272
3.17157e+06
-218429
-1.3052e+06
3.41377e+06
4.78079e+06
70860.4
-321018
-2.43117e+06
2.43154e+06
624380
-624277
210372
-63534.7
-11946.6
258395
207803
-23872.7
-24053.7
93426
77299.4
2.82861e+06
-2.82697e+06
-1.63312e+07
1.63337e+07
1.12049e+06
37890.3
-4.15707e+06
-203462
-214610
1.43617e+06
-2.23711e+06
-1.00583e+06
3.32259e+06
-3.32403e+06
318780
-4.60467e+06
4.60526e+06
-2.18621e+06
-8.64135e+06
8.64252e+06
-7.29716e+06
7.29904e+06
-2.37393e+06
-7.28312e+06
7.28585e+06
2.36584e+06
-2.36578e+06
7.6348e+06
-7.63206e+06
1.96043e+07
-1.96021e+07
-47838.5
2.14016e+06
1.18735e+06
-406877
-1.39411e+07
1.39441e+07
-7.35749e+06
7.36024e+06
-67253.3
-439916
-2.20997e+06
256281
-256263
1.37665e+06
209357
-379380
-1.87807e+06
-438299
-96340.2
-405536
4.45083e+06
-4.45528e+06
-444348
-546242
1.0061e+06
3.16102e+06
-3.16367e+06
113683
674210
1.96502e+06
-1.1311e+06
-192517
134132
-53038.4
1.41877e+07
-1.41872e+07
2.7825e+06
-2.78205e+06
1.27997e+07
-1.27986e+07
-56129.9
112402
-219370
2.28595e+06
-3.25906e+06
126633
-75715.4
274913
1.1378e+06
-1.34976e+06
1.3491e+06
6.94626e+06
-6.95197e+06
738818
2.64365e+06
-1.10126e+06
1.10643e+06
2.12076e+07
-2.12051e+07
63774.3
-63792.6
-2.42269e+06
-105887
157576
725718
-218741
211186
-657846
657996
238587
-1464.06
8.23705e+06
-8.23929e+06
-408341
285050
665933
-317108
-322316
181214
4.99011e+06
-5.05506e+06
1.32206e+07
-1.32182e+07
-288556
2.29001e+06
-2.28974e+06
8.96447e+06
-8.96515e+06
-161098
5.46959e+06
-5.50445e+06
-1.05224e+07
1.05235e+07
-1.99598e+06
-259470
-6.76069e+06
-3.63406e+06
3.63276e+06
-1.15158e+07
1.15131e+07
134694
6.89147e+06
-6.83466e+06
6.83748e+06
179552
-322607
-4.34917e+06
4.34978e+06
-41726.7
165720
-176367
621510
-7.34258e+06
-6.80641e+06
6.80859e+06
3.69462e+06
6.54396e+06
-6.54226e+06
1.27161e+06
2.42731e+06
7.33749e+06
-6.42614e+06
6.42892e+06
-1.84476e+06
3.44876e+06
48243.6
1.62544e+06
-1.62529e+06
952132
1.62769e+06
4.81126e+06
-4.81031e+06
96524.4
-2.21277e+06
2.22054e+06
8.88487e+06
2.28437e+06
-2.23125e+06
2.63416e+06
-2.63248e+06
1.53328e+06
-1.25223e+06
-230637
-266900
189907
-2.26663e+06
-609268
-165562
3.66307e+06
171877
-1.8087e+06
1.17015e+07
-1.17012e+07
-4.04352e+06
4.28561e+06
-4.28989e+06
7.6988e+06
-7.69639e+06
864889
-8.36756e+06
8.36918e+06
1.1531e+06
671797
170317
-2.3576e+06
2.35544e+06
845619
-4.02578e+06
4.02654e+06
-4.47035e+06
13397.8
5.62998e+06
-336001
-148932
-372636
-1.08025e+06
1.07895e+06
1.57197e+07
-1.57179e+07
66172.5
169278
2.69527e+06
-7.58712e+06
7.59001e+06
-34381.1
3.46464e+06
-3.46741e+06
312363
-284387
284427
-406998
3.24469e+06
-775482
-1.36583e+06
1.28452e+06
3.26428e+06
-3.26532e+06
-3.45136e+06
221883
361130
-14858.8
-222395
-798529
-34827.6
-873891
395530
-1.40434e+06
3.26724e+06
-3.27155e+06
292511
1.28611e+07
-1.28612e+07
355262
-350208
431081
-345689
357679
-3.18324e+06
5.58479e+06
91174.4
142930
26134.4
-19334.8
948904
913.43
-389717
52369.2
-2.27137e+06
2.27346e+06
6.59429e+06
-6.59741e+06
1.69067e+06
-1.08121e+06
2.40688e+06
-3.66209e+06
3.6613e+06
-306977
-17249.2
78332
-6.76643e+06
6.76811e+06
2.43041e+06
257481
-328142
152033
-85748.2
-287773
289591
275885
-21795.6
-434021
-2.52125e+06
524831
5.52058e+06
-5.51922e+06
-7.75494e+06
7.75874e+06
3.34453e+06
83688.5
550990
-550910
-7.69755e+06
7.70212e+06
16652.1
2.96396e+06
162966
1.39405e+06
225267
132111
708273
359278
-452837
-2.13752e+07
2.13776e+07
-89501.2
1.59219e+07
-1.5919e+07
3.06036e+06
-3.07201e+06
5.30425e+06
-681548
541495
-2.26166e+06
1.73817e+06
-34793.9
-2.32953e+06
-3.9724e+06
7.84714e+06
-7.85443e+06
-4.07079e+06
3.96812e+06
-3.34491e+06
3.34553e+06
1.71151e+06
-324083
-17080.5
459922
1.4704e+07
-1.4702e+07
465972
-6.86434e+06
6.8661e+06
4.13115e+06
175936
-2.79189e+06
203073
6.90418e+06
-6.90061e+06
1.47917e+06
216173
42650.5
-223080
222997
-440999
437468
4.7393e+06
-5.04963e+06
-132767
-1.07889e+06
1.17467e+06
343225
12387
-153146
261954
-8960.07
-7.59255e+06
7.59584e+06
-224499
353049
-6.68429e+06
6.68633e+06
148155
-6.77644e+06
-40989.1
-2.11754e+06
6.7854e+06
-47814.5
47760.1
116342
5.44816e+06
-8.16411e+06
8.16822e+06
5.00273e+06
-297309
849.11
-3026.05
3735.97
1.92433e+06
8.31976e+06
-8.31813e+06
-161003
84547
36339.7
292413
-89878.3
-346468
-352997
1.48796e+06
-1.48673e+06
287437
-118522
966921
1.09278e+06
-1.09321e+06
5.78835e+06
-5.93655e+06
5.93875e+06
6.86981e+06
-6.86848e+06
-2.10102e+07
2.10126e+07
328747
2.11021e+06
-2.18064e+06
-180514
108005
3.151e+06
-639259
-3.19959e+06
-4.56507e+06
295530
-275018
-4.33116e+06
4.33194e+06
-432799
-4.67473e+06
491569
2.14936e+06
-200309
-82422.7
-134458
229287
8.68195e+06
-8.68086e+06
-277230
36298
-1.71065e+06
1.70978e+06
-353464
-277769
-19660
9189.09
-110512
109350
507997
2.24134e+06
-2.24184e+06
-259177
-7.92709e+06
7.92956e+06
-391175
-5.39509e+06
120338
5.3761e+06
192894
-171665
653499
-2.25823e+06
-765052
-17254.2
-7.76255e+06
7.76496e+06
485237
-392662
-87114.3
495847
-5.09703e+06
5.0976e+06
2.0097e+07
-2.00937e+07
-4.00925e+06
-651633
-586207
-7.15511e+06
7.1594e+06
143567
-143552
-143320
-309218
4.20945e+06
156958
4.00279e+06
1.65679e+06
-6.44953e+06
6.45201e+06
-956190
112456
-4.66289e+06
-195063
-406564
-3.56339e+06
3.15843e+06
-3.15771e+06
-612802
-281583
281642
420265
-418614
212947
4.91709e+06
-82173.7
-5.07279e+06
-954210
957823
-824899
4.06135e+06
-220236
4.69396e+06
-234158
-1.34446e+06
1.34457e+06
378267
-1.95029e+07
1.95048e+07
-4.8832e+06
4.88404e+06
82701.5
301432
-299976
-10770
-187088
187084
-3.95137e+06
3.95185e+06
-1.13449e+07
1.13419e+07
35882.4
2.09531e+06
1.77764e+06
-1.77725e+06
-175876
-174962
6.28194e+06
-6.27963e+06
-1.36371e+06
-20494.4
7.01788e+06
-7.01587e+06
-2.67112e+06
6.65335e+06
-6.65738e+06
169291
101098
-1.41045e+06
7.42996e+06
-7.42891e+06
123466
2.58024e+06
-2.57774e+06
-6.7404e+06
6.74176e+06
4.43976e+06
-4.44342e+06
2.64573e+06
-4509.7
-3.56199e+06
3.55904e+06
-3.2831e+06
3.28374e+06
-2.13338e+06
-864397
1.16737e+06
826154
21128.6
1.29189e+06
1.1786e+07
-1.1786e+07
5.97862e+06
-5.97715e+06
-3.87689e+06
3.87716e+06
-141335
-1.92194e+06
1.69122e+06
4.59818e+06
-4.59727e+06
-4.73173e+06
-687513
690384
-143429
-207977
2.71431e+06
-2.70072e+06
-401223
-318553
233913
-40117
40143
-158146
-5.58756e+06
5.57678e+06
141801
1.48985e+06
-379276
186405
-9.5575e+06
9.55509e+06
209468
-5.17138e+06
515809
-1.37983e+07
1.38001e+07
672452
5.67831e+06
-5.67697e+06
-255244
-3.66516e+06
-898843
29764.1
-2.77878e+06
-38073.2
-1.13551e+06
1.1359e+06
485533
-487789
596600
-4.32443e+06
4.32492e+06
-2.20211e+06
-1.7447e+06
2.20166e+06
-3.7448e+06
3.74918e+06
2.87906e+06
-1.24766e+06
-36402.6
744576
-2.76802e+06
2.11261e+06
366102
-371435
754361
-4.66413e+06
-268530
-1.83529e+06
-106167
316716
-512777
1.17365e+06
173962
-113298
-3.41639e+06
3.41669e+06
-752706
752803
-304789
1.963e+06
-1.94594e+06
-1.02607e+06
-1.85278e+06
2.77933e+06
-284380
1.40467e+06
61546.9
-730224
847360
-1.1719e+06
1.17196e+06
-2.07917e+06
-133201
238547
2.089e+07
-2.08869e+07
11083.8
196073
1.0412e+06
76962
131448
-1.15626e+06
527471
191441
-2.91015e+06
45936.9
32363
-32372.3
2.09064e+06
-2.13657e+06
264877
548264
6.39577e+06
-6.4027e+06
2.45616e+06
289221
2.05524e+06
-5.51753e+06
5.51938e+06
49778.8
249242
5.79991e+06
-2.85413e+06
427874
-168766
459918
-130485
76300.6
96133.6
147497
133719
2.28947e+06
-29912.9
252575
-252558
-2.17124e+06
2.17566e+06
506243
-510144
294261
-301517
3.54718e+06
-1.01677e+07
1.01711e+07
-103681
270776
-69475.3
3.31637e+06
-5.55528e+06
-4.20882e+06
251202
-1.22169e+06
1.21825e+06
-3.50113e+06
3.49957e+06
-7.71091e+06
7.70515e+06
78290.6
-6.9671e+06
191865
-163346
-229141
4.16347e+06
-85938.7
-219087
421999
-6343.14
6.96841e+06
-311024
951202
6.87425e+06
-56719.9
63736.5
-278870
446499
-1.45907e+06
1.60174e+06
-1.60142e+06
5.85151e+06
-5.84988e+06
-3.90837e+06
688494
-414534
-2.70868e+06
2.70758e+06
2.72941e+06
319363
-152300
152404
108929
-133550
-126638
-881253
1.28901e+06
-1.27737e+06
249031
-5.32231e+06
-132312
-223917
-6.80471e+06
6.81571e+06
-769945
4.94184e+06
-4.94072e+06
336815
-336443
-373502
5.8337e+06
-5.83212e+06
-108411
-369289
-152082
-1.25929e+06
-1.06513e+06
1.06694e+06
-6.09857e+06
6.1005e+06
117143
589392
5.40156e+06
7.42413e+06
-7.42238e+06
7.36603e+06
-7.36318e+06
927521
-6.58365e+06
6.58501e+06
3.90354e+06
-197433
-1.98199e+06
1.98224e+06
-2.59287e+06
257604
257191
1.41301e+06
-13345.3
11851
-5.35299e+06
5.35466e+06
-3.50005e+06
3.50036e+06
6.37445e+06
-6.3787e+06
129298
3.43663e+06
-3.43936e+06
-297052
2587.91
-11144.9
4.8233e+06
-4.8224e+06
662191
210.564
1.03731e+06
-451607
-50.5913
-1.62794e+07
1.62811e+07
-613462
421290
-264486
-7.42403e+06
7.42566e+06
82044.9
433840
-443518
5.55327e+06
-5.54906e+06
-48234.3
47361.5
3.34283e+06
2.95203e+06
3.24352e+06
112161
5.01182e+06
3.15092e+06
-3.34454e+06
-2.72135e+06
1.7758e+06
-1.77564e+06
494174
394129
-394048
381939
-1.97678e+06
1.97913e+06
49991.4
-74192.6
-6.81028e+06
6.8121e+06
-405797
2.40887e+06
6.64364e+06
2.34123e+06
-59356.2
-5.98085e+06
5.98292e+06
1.43332e+06
-1.42101e+06
-1.90971e+06
-37265.8
-1217.5
205327
-357798
410958
-442030
-1.96202e+06
-484286
484342
-6.94855e+06
6.95053e+06
-252053
-860493
825211
154042
88847.9
368762
-341187
48792.7
-72178
65865.1
-71078.8
-25074
1.42e+06
-3.93713e+06
-224199
5.05042e+06
-5.04902e+06
736853
-4.20167e+06
4.20241e+06
1.41432e+06
-1.41303e+06
-5.12985e+06
-197333
-1.10403e+06
42979.1
158168
1.44204e+06
-1.44183e+06
-292793
-80229.6
2.23081e+06
-266869
992195
-990471
-76544.3
407598
7.54124e+06
-7.53719e+06
-1.56388e+07
1.56412e+07
-2.8253e+06
2.82333e+06
-6.6365e+06
871611
-229890
6.608e+06
281780
4.78817e+06
-4.76191e+06
445601
-7.0539e+06
7.05824e+06
-4.50067e+06
-305281
296626
47303.9
3.18155e+06
302387
4.95606e+06
378488
-1.41989e+06
-31692.5
-932520
932640
5.56135e+06
-7.8759e+06
7.87655e+06
-2.57142e+06
2.57168e+06
1.3482e+06
3.91646e+06
-7.65668e+06
7.66129e+06
-161551
22070.2
2.68892e+06
5.31268e+06
-3.15138e+06
364350
9.51989e+06
-9.51673e+06
138598
1.15832e+07
-1.15867e+07
-97998.7
97999.6
-5.51458e+06
-6.41296e+06
-54265.8
-4.78583e+06
6.38503e+06
-283382
1.296e+06
-1.29419e+06
6.26188e+06
-6.25992e+06
-399991
-2.72449e+06
-542128
339520
-3.77416e+06
265935
-264770
7.0649e+06
82229.8
-34414.1
48477.5
-2277.22
-3.67217e+06
3.67201e+06
82288.2
-289403
289430
1.63839e+06
2.44889e+06
-2.45028e+06
-214787
3.42797e+06
482685
1.7523e+07
-1.75203e+07
106213
-134008
-51285.3
-186544
-937212
129304
457895
-1.22206e+06
-7.96687e+06
7.96869e+06
315181
292857
70901.4
81790
-3.40512e+06
170904
280915
-382101
-1.36798e+07
1.36798e+07
-7.3646e+06
-139149
7.338e+06
1.71043e+06
1.9301e+07
-1.92988e+07
235042
-7.74385e+06
-366795
7.66938e+06
1.42433e+06
-1.42422e+06
-1.22306e+06
1.2236e+06
177453
-192887
339554
-133822
4.8198e+06
-4.81866e+06
-92761.4
-2.8002e+06
-610945
496086
962742
5.18493e+06
-5.19025e+06
-1.46439e+06
-341605
-840112
-7.47329e+06
7.47581e+06
5.4861e+06
-5.49152e+06
-24083.2
10121.8
-5159.82
-135930
-798265
-501099
890389
-890354
83977.1
37150.1
1.14524e+06
138757
191188
-1.84179e+06
1.84198e+06
80924.1
3.47625e+06
-86813.7
-6.31975e+06
6.32302e+06
2.68324e+06
-2.6812e+06
-4.1075e+06
-210044
5.07298e+06
-5.08396e+06
-872768
-3.52558e+06
275058
811850
-2.54274e+06
7.90359e+06
-7.89933e+06
-142051
-3.17265e+06
-1.54193e+06
1.53408e+06
1.34714e+06
-1.34582e+06
338548
7.7572e+06
-7.75193e+06
1.33197e+07
-1.33169e+07
402664
-388975
-3.89744e+06
-1.81507e+06
988801
-246249
6.30636e+06
-6.31037e+06
22860.7
-7.77906e+06
7.78728e+06
343785
507852
-27455.9
2.93617e+06
-2.94511e+06
55563.9
-582987
-81021.2
186905
-5049.02
-2.54455e+06
2.54497e+06
-363747
1.10475e+06
2.64454e+06
9.39187e+06
-9.392e+06
-1.96673e+07
1.96695e+07
-4.1212e+06
-2.65736e+06
-6.92615e+06
6.93119e+06
-2.09685e+07
2.09709e+07
-5.37349e+06
5.36873e+06
-3.83095e+06
3.83147e+06
940405
1.40782e+06
1.73185e+07
-1.73165e+07
105290
1.57242e+06
-1.57217e+06
2.15213e+06
215911
300915
2.10669e+06
-2.10546e+06
5.78265e+06
-3.73447e+06
361818
-178826
5.71561e+06
2.47273e+06
-131688
301179
-1.88003e+06
8.31695e+06
-8.31546e+06
1.04429e+07
-1.04457e+07
4.11773e+06
-4.11705e+06
-5.78342e+06
1.54322e+06
-1.54273e+06
-1.44338e+06
1.44345e+06
42629.9
47484.9
-243703
225946
7.27802e+06
-7.27438e+06
-3.36074e+06
3.36108e+06
2.13677e+07
-2.13652e+07
110402
-661153
-100711
429009
-404076
-1.76201e+06
1.76191e+06
-35955.8
-93304.2
-2.38634e+06
83813.5
-1.51242e+06
-5.71627e+06
-7.42071e+06
7.42325e+06
-2.46002e+06
166813
-74641.9
-5.82036e+06
5.82299e+06
352883
4.68395e+06
-4.68363e+06
-68813
-1.22343e+06
-891461
-465120
465142
-475309
1.4559e+07
-1.45574e+07
-3.58477e+06
873665
516612
3.17176e+06
-43233.9
-29459.7
207175
-206339
-1.85357e+06
83371.7
-895665
-1.69958e+06
5.73715e+06
6.00112e+06
283140
2.66789e+06
-2.15879e+06
2.04657e+06
115542
-119540
-7.23135e+06
1.97402e+06
1.338e+06
63094.6
-275114
1.67823e+07
-1.67802e+07
2.36322e+06
7.20321e+06
728494
-727161
-1.12425e+06
1.05644e+06
-1.05614e+06
-5.68543e+06
5.68704e+06
644534
-2.01446e+07
2.01469e+07
257726
4.39601e+06
86748.5
44022.9
272097
2.94329e+06
-2.94924e+06
245443
6.42612e+06
-6.42959e+06
-186783
138748
48303
-48090.6
-2.46557e+06
-886101
-409470
1.63174e+07
-1.63144e+07
2.46185e+06
-218257
905403
419693
1.60887e+06
-1.60875e+06
8.76572e+06
-8.76438e+06
67102.6
-376955
-1.55713e+06
267358
1.21346e+06
2.37359e+06
481934
-484838
514837
-97761.1
196346
126880
-396690
132118
268027
-431953
766674
1.09879e+07
-1.0985e+07
-63059.2
-6.30458e+06
6.30742e+06
-2.12974e+06
2.1324e+06
110577
-5.93466e+06
5.93666e+06
-2.94201e+06
-3.61436e+06
6.23157e+06
787291
364055
-382205
338218
-7.63678e+06
7.64204e+06
1.95102e+06
67901.7
-67740.3
1.87239e+07
-1.87207e+07
1244.35
-7.22857e+06
7.29217e+06
51901.6
378696
335625
5.42667e+06
-5.42572e+06
-2.58823e+06
-100150
3.58918e+06
-3.58862e+06
-205210
21055.5
-103824
1.91228e+06
-8.05547e+06
8.05835e+06
1.86586e+06
239091
14394.2
-1.43991e+06
9.0144e+06
-9.01297e+06
-1270.72
6.70375e+06
-6.60766e+06
-4.29294e+06
8.69442e+06
-8.69387e+06
6.61207e+06
317228
1.3963e+06
-263821
1.80718e+06