0 	31.937 	-2.7381e-07 	3.80212e-18
0.000254254 	31.9428 	-2.74178e-07 	6.92972e-15
0.000508509 	31.9486 	-2.74178e-07 	6.92972e-15
0.000762763 	31.9543 	-2.74178e-07 	6.92972e-15
0.00101702 	31.9601 	-2.74178e-07 	6.92972e-15
0.00127127 	31.9659 	-2.74178e-07 	6.92972e-15
0.00152553 	31.9717 	-2.74178e-07 	6.92972e-15
0.00177978 	31.9775 	-2.74178e-07 	6.92972e-15
0.00203403 	31.9832 	-2.74178e-07 	6.92972e-15
0.00228829 	31.989 	-2.74178e-07 	6.92972e-15
0.00254254 	31.9948 	-2.74178e-07 	6.92972e-15
0.0027968 	32.0082 	-2.7962e-07 	6.93648e-15
0.00305105 	32.0225 	-2.7962e-07 	6.93648e-15
0.00330531 	32.0367 	-2.7962e-07 	6.93648e-15
0.00355956 	32.0509 	-2.7962e-07 	6.93648e-15
0.00381381 	32.0651 	-2.7962e-07 	6.93648e-15
0.00406807 	32.0793 	-2.7962e-07 	6.93648e-15
0.00432232 	32.0935 	-2.7962e-07 	6.93648e-15
0.00457658 	32.1077 	-2.7962e-07 	6.93648e-15
0.00483083 	32.122 	-2.7962e-07 	6.93647e-15
0.00508509 	32.1362 	-2.7962e-07 	6.93647e-15
0.00533934 	32.1529 	-3.02995e-07 	6.99497e-15
0.00559359 	32.1702 	-3.02995e-07 	6.99496e-15
0.00584785 	32.1875 	-3.02995e-07 	6.99496e-15
0.0061021 	32.2048 	-3.02995e-07 	6.99496e-15
0.00635636 	32.2221 	-3.02995e-07 	6.99496e-15
0.00661061 	32.2394 	-3.02995e-07 	6.99496e-15
0.00686486 	32.2567 	-3.02995e-07 	6.99496e-15
0.00711912 	32.274 	-3.02995e-07 	6.99496e-15
0.00737337 	32.2913 	-3.02995e-07 	6.99496e-15
0.00762763 	32.3086 	-3.02995e-07 	6.99496e-15
0.00788188 	32.3267 	-3.43394e-07 	7.01581e-15
0.00813614 	32.345 	-3.43394e-07 	7.01581e-15
0.00839039 	32.3634 	-3.43394e-07 	7.0158e-15
0.00864464 	32.3817 	-3.43394e-07 	7.0158e-15
0.0088989 	32.4 	-3.43394e-07 	7.0158e-15
0.00915315 	32.4184 	-3.43394e-07 	7.0158e-15
0.00940741 	32.4367 	-3.43394e-07 	7.0158e-15
0.00966166 	32.455 	-3.43394e-07 	7.0158e-15
0.00991592 	32.4734 	-3.43394e-07 	7.0158e-15
0.0101702 	32.4917 	-3.43394e-07 	7.0158e-15
0.0104244 	32.5112 	-3.96952e-07 	7.08582e-15
0.0106787 	32.5314 	-3.96952e-07 	7.08582e-15
0.0109329 	32.5515 	-3.96952e-07 	7.08582e-15
0.0111872 	32.5717 	-3.96952e-07 	7.08582e-15
0.0114414 	32.5919 	-3.96952e-07 	7.08581e-15
0.0116957 	32.612 	-3.96952e-07 	7.08581e-15
0.0119499 	32.6322 	-3.96952e-07 	7.08581e-15
0.0122042 	32.6524 	-3.96952e-07 	7.08581e-15
0.0124585 	32.6726 	-3.96952e-07 	7.08581e-15
0.0127127 	32.6927 	-3.96952e-07 	7.08581e-15
0.012967 	32.7145 	-4.60197e-07 	7.16614e-15
0.0132212 	32.7376 	-4.60197e-07 	7.16613e-15
0.0134755 	32.7607 	-4.60197e-07 	7.16613e-15
0.0137297 	32.7838 	-4.60197e-07 	7.16613e-15
0.013984 	32.8069 	-4.60197e-07 	7.16613e-15
0.0142382 	32.83 	-4.60197e-07 	7.16613e-15
0.0144925 	32.8531 	-4.60197e-07 	7.16613e-15
0.0147467 	32.8762 	-4.60197e-07 	7.16613e-15
0.015001 	32.8993 	-4.60197e-07 	7.16612e-15
0.0152553 	32.9224 	-4.60197e-07 	7.16612e-15
0.0155095 	32.9471 	-5.30502e-07 	7.22144e-15
0.0157638 	32.9738 	-5.30502e-07 	7.22144e-15
0.016018 	33.0005 	-5.30502e-07 	7.22144e-15
0.0162723 	33.0272 	-5.30502e-07 	7.22144e-15
0.0165265 	33.0539 	-5.30502e-07 	7.22144e-15
0.0167808 	33.0807 	-5.30502e-07 	7.22143e-15
0.017035 	33.1074 	-5.30502e-07 	7.22143e-15
0.0172893 	33.1341 	-5.30502e-07 	7.22143e-15
0.0175435 	33.1608 	-5.30502e-07 	7.22143e-15
0.0177978 	33.1875 	-5.30502e-07 	7.22143e-15
0.0180521 	33.2157 	-6.06029e-07 	7.28659e-15
0.0183063 	33.2464 	-6.06029e-07 	7.28659e-15
0.0185606 	33.2771 	-6.06029e-07 	7.28659e-15
0.0188148 	33.3078 	-6.06029e-07 	7.28658e-15
0.0190691 	33.3385 	-6.06029e-07 	7.28658e-15
0.0193233 	33.3692 	-6.06029e-07 	7.28658e-15
0.0195776 	33.3999 	-6.06029e-07 	7.28658e-15
0.0198318 	33.4306 	-6.06029e-07 	7.28658e-15
0.0200861 	33.4613 	-6.06029e-07 	7.28657e-15
0.0203403 	33.492 	-6.06029e-07 	7.28657e-15
0.0205946 	33.5239 	-6.85621e-07 	7.36068e-15
0.0208488 	33.5588 	-6.85621e-07 	7.36068e-15
0.0211031 	33.5938 	-6.85621e-07 	7.36068e-15
0.0213574 	33.6287 	-6.85621e-07 	7.36068e-15
0.0216116 	33.6636 	-6.85621e-07 	7.36067e-15
0.0218659 	33.6986 	-6.85621e-07 	7.36067e-15
0.0221201 	33.7335 	-6.85621e-07 	7.36067e-15
0.0223744 	33.7684 	-6.85621e-07 	7.36067e-15
0.0226286 	33.8034 	-6.85621e-07 	7.36066e-15
0.0228829 	33.8383 	-6.85621e-07 	7.36066e-15
0.0231371 	33.874 	-7.6861e-07 	7.44492e-15
0.0233914 	33.9134 	-7.6861e-07 	7.44491e-15
0.0236456 	33.9527 	-7.6861e-07 	7.44491e-15
0.0238999 	33.9921 	-7.6861e-07 	7.44491e-15
0.0241542 	34.0314 	-7.6861e-07 	7.44491e-15
0.0244084 	34.0708 	-7.6861e-07 	7.4449e-15
0.0246627 	34.1101 	-7.6861e-07 	7.4449e-15
0.0249169 	34.1495 	-7.6861e-07 	7.4449e-15
0.0251712 	34.1888 	-7.6861e-07 	7.4449e-15
0.0254254 	34.2282 	-7.6861e-07 	7.44489e-15
0.0256797 	34.2679 	-8.5445e-07 	7.54026e-15
0.0259339 	34.3119 	-8.5445e-07 	7.54026e-15
0.0261882 	34.3558 	-8.5445e-07 	7.54025e-15
0.0264424 	34.3998 	-8.5445e-07 	7.54025e-15
0.0266967 	34.4437 	-8.5445e-07 	7.54025e-15
0.026951 	34.4877 	-8.5445e-07 	7.54025e-15
0.0272052 	34.5316 	-8.5445e-07 	7.54024e-15
0.0274595 	34.5756 	-8.5445e-07 	7.54024e-15
0.0277137 	34.6195 	-8.5445e-07 	7.54024e-15
0.027968 	34.6635 	-8.5445e-07 	7.54024e-15
0.0282222 	34.7074 	-9.92729e-07 	2.60674e-18
0.0284765 	34.7561 	-9.41795e-07 	7.64721e-15
0.0287307 	34.8048 	-9.41795e-07 	7.64721e-15
0.028985 	34.8536 	-9.41795e-07 	7.6472e-15
0.0292392 	34.9023 	-9.41795e-07 	7.6472e-15
0.0294935 	34.951 	-9.41795e-07 	7.6472e-15
0.0297477 	34.9997 	-9.41795e-07 	7.64719e-15
0.030002 	35.0484 	-9.41795e-07 	7.64719e-15
0.0302563 	35.0972 	-9.41795e-07 	7.64719e-15
0.0305105 	35.1459 	-9.41795e-07 	7.64718e-15
0.0307648 	35.1946 	-9.41795e-07 	7.64718e-15
0.031019 	35.2478 	-1.02859e-06 	7.81098e-15
0.0312733 	35.3015 	-1.02859e-06 	7.81098e-15
0.0315275 	35.3552 	-1.02859e-06 	7.81097e-15
0.0317818 	35.4089 	-1.02859e-06 	7.81097e-15
0.032036 	35.4625 	-1.02859e-06 	7.81097e-15
0.0322903 	35.5162 	-1.02859e-06 	7.81096e-15
0.0325445 	35.5699 	-1.02859e-06 	7.81096e-15
0.0327988 	35.6236 	-1.02859e-06 	7.81096e-15
0.0330531 	35.6773 	-1.02859e-06 	7.81095e-15
0.0333073 	35.7309 	-1.02859e-06 	7.81095e-15
0.0335616 	35.7888 	-1.11689e-06 	7.90393e-15
0.0338158 	35.8477 	-1.11689e-06 	7.90393e-15
0.0340701 	35.9065 	-1.11689e-06 	7.90393e-15
0.0343243 	35.9653 	-1.11689e-06 	7.90392e-15
0.0345786 	36.0241 	-1.11689e-06 	7.90392e-15
0.0348328 	36.083 	-1.11689e-06 	7.90391e-15
0.0350871 	36.1418 	-1.11689e-06 	7.90391e-15
0.0353413 	36.2006 	-1.11689e-06 	7.90391e-15
0.0355956 	36.2594 	-1.11689e-06 	7.9039e-15
0.0358498 	36.3182 	-1.11689e-06 	7.9039e-15
0.0361041 	36.381 	-1.20775e-06 	8.08529e-15
0.0363584 	36.4451 	-1.20775e-06 	8.08529e-15
0.0366126 	36.5093 	-1.20775e-06 	8.08528e-15
0.0368669 	36.5734 	-1.20775e-06 	8.08528e-15
0.0371211 	36.6376 	-1.20775e-06 	8.08528e-15
0.0373754 	36.7018 	-1.20775e-06 	8.08527e-15
0.0376296 	36.7659 	-1.20775e-06 	8.08527e-15
0.0378839 	36.8301 	-1.20775e-06 	8.08526e-15
0.0381381 	36.8943 	-1.20775e-06 	8.08526e-15
0.0383924 	36.9584 	-1.20775e-06 	8.08525e-15
0.0386466 	37.0261 	-1.30304e-06 	8.29026e-15
0.0389009 	37.0958 	-1.30304e-06 	8.29026e-15
0.0391552 	37.1656 	-1.30304e-06 	8.29025e-15
0.0394094 	37.2353 	-1.30304e-06 	8.29025e-15
0.0396637 	37.305 	-1.30304e-06 	8.29025e-15
0.0399179 	37.3747 	-1.30304e-06 	8.29024e-15
0.0401722 	37.4444 	-1.30304e-06 	8.29024e-15
0.0404264 	37.5141 	-1.30304e-06 	8.29023e-15
0.0406807 	37.5838 	-1.30304e-06 	8.29023e-15
0.0409349 	37.6535 	-1.30304e-06 	8.29022e-15
0.0411892 	37.7264 	-1.40212e-06 	8.48838e-15
0.0414434 	37.8019 	-1.40212e-06 	8.48837e-15
0.0416977 	37.8773 	-1.40212e-06 	8.48837e-15
0.041952 	37.9528 	-1.40212e-06 	8.48836e-15
0.0422062 	38.0283 	-1.40212e-06 	8.48836e-15
0.0424605 	38.1037 	-1.40212e-06 	8.48835e-15
0.0427147 	38.1792 	-1.40212e-06 	8.48835e-15
0.042969 	38.2547 	-1.40212e-06 	8.48834e-15
0.0432232 	38.3302 	-1.40212e-06 	8.48834e-15
0.0434775 	38.4056 	-1.40212e-06 	8.48833e-15
0.0437317 	38.4838 	-1.50463e-06 	8.67316e-15
0.043986 	38.5653 	-1.50463e-06 	8.67315e-15
0.0442402 	38.6468 	-1.50463e-06 	8.67315e-15
0.0444945 	38.7282 	-1.50463e-06 	8.67314e-15
0.0447487 	38.8097 	-1.50463e-06 	8.67314e-15
0.045003 	38.8912 	-1.50463e-06 	8.67313e-15
0.0452573 	38.9726 	-1.50463e-06 	8.67313e-15
0.0455115 	39.0541 	-1.50463e-06 	8.67312e-15
0.0457658 	39.1355 	-1.50463e-06 	8.67312e-15
0.04602 	39.217 	-1.50463e-06 	8.67311e-15
0.0462743 	39.3007 	-1.61048e-06 	8.83097e-15
0.0465285 	39.3884 	-1.61048e-06 	8.83097e-15
0.0467828 	39.4761 	-1.61048e-06 	8.83096e-15
0.047037 	39.5638 	-1.61048e-06 	8.83096e-15
0.0472913 	39.6515 	-1.61048e-06 	8.83095e-15
0.0475455 	39.7392 	-1.61048e-06 	8.83095e-15
0.0477998 	39.8269 	-1.61048e-06 	8.83094e-15
0.0480541 	39.9146 	-1.61048e-06 	8.83093e-15
0.0483083 	40.0022 	-1.61048e-06 	8.83093e-15
0.0485626 	40.0899 	-1.61048e-06 	8.83092e-15
0.0488168 	40.1794 	-1.71952e-06 	9.01197e-15
0.0490711 	40.2736 	-1.71952e-06 	9.01197e-15
0.0493253 	40.3677 	-1.71952e-06 	9.01196e-15
0.0495796 	40.4619 	-1.71952e-06 	9.01195e-15
0.0498338 	40.556 	-1.71952e-06 	9.01195e-15
0.0500881 	40.6502 	-1.71952e-06 	9.01194e-15
0.0503423 	40.7444 	-1.71952e-06 	9.01194e-15
0.0505966 	40.8385 	-1.71952e-06 	9.01193e-15
0.0508509 	40.9327 	-1.71952e-06 	9.01192e-15
0.0511051 	41.0269 	-1.71952e-06 	9.01192e-15
0.0513594 	41.1222 	-1.83144e-06 	9.23393e-15
0.0516136 	41.2231 	-1.83144e-06 	9.23392e-15
0.0518679 	41.324 	-1.83144e-06 	9.23392e-15
0.0521221 	41.4249 	-1.83144e-06 	9.23391e-15
0.0523764 	41.5258 	-1.83144e-06 	9.2339e-15
0.0526306 	41.6267 	-1.83144e-06 	9.2339e-15
0.0528849 	41.7276 	-1.83144e-06 	9.23389e-15
0.0531391 	41.8285 	-1.83144e-06 	9.23389e-15
0.0533934 	41.9293 	-1.83144e-06 	9.23388e-15
0.0536476 	42.0302 	-1.83144e-06 	9.23387e-15
0.0539019 	42.1318 	-1.94582e-06 	9.42292e-15
0.0541562 	42.2396 	-1.94582e-06 	9.42291e-15
0.0544104 	42.3475 	-1.94582e-06 	9.42291e-15
0.0546647 	42.4554 	-1.94582e-06 	9.4229e-15
0.0549189 	42.5632 	-1.94582e-06 	9.42289e-15
0.0551732 	42.6711 	-1.94582e-06 	9.42289e-15
0.0554274 	42.779 	-1.94582e-06 	9.42288e-15
0.0556817 	42.8868 	-1.94582e-06 	9.42287e-15
0.0559359 	42.9947 	-1.94582e-06 	9.42287e-15
0.0561902 	43.1026 	-1.94582e-06 	9.42286e-15
0.0564444 	43.2105 	-2.31612e-06 	1.71238e-18
0.0566987 	43.3256 	-2.06193e-06 	9.69062e-15
0.056953 	43.4407 	-2.06193e-06 	9.69061e-15
0.0572072 	43.5558 	-2.06193e-06 	9.6906e-15
0.0574615 	43.6709 	-2.06193e-06 	9.69059e-15
0.0577157 	43.786 	-2.06193e-06 	9.69059e-15
0.05797 	43.9011 	-2.06193e-06 	9.69058e-15
0.0582242 	44.0162 	-2.06193e-06 	9.69057e-15
0.0584785 	44.1313 	-2.06193e-06 	9.69057e-15
0.0587327 	44.2464 	-2.06193e-06 	9.69056e-15
0.058987 	44.3615 	-2.06193e-06 	9.69055e-15
0.0592412 	44.4834 	-2.17874e-06 	9.97163e-15
0.0594955 	44.606 	-2.17874e-06 	9.97163e-15
0.0597497 	44.7286 	-2.17874e-06 	9.97162e-15
0.060004 	44.8512 	-2.17874e-06 	9.97161e-15
0.0602583 	44.9738 	-2.17874e-06 	9.9716e-15
0.0605125 	45.0964 	-2.17874e-06 	9.97159e-15
0.0607668 	45.219 	-2.17874e-06 	9.97159e-15
0.061021 	45.3416 	-2.17874e-06 	9.97158e-15
0.0612753 	45.4642 	-2.17874e-06 	9.97157e-15
0.0615295 	45.5868 	-2.17874e-06 	9.97156e-15
0.0617838 	45.7158 	-2.29624e-06 	1.03208e-14
0.062038 	45.8461 	-2.29624e-06 	1.03208e-14
0.0622923 	45.9764 	-2.29624e-06 	1.03208e-14
0.0625465 	46.1068 	-2.29624e-06 	1.03208e-14
0.0628008 	46.2371 	-2.29624e-06 	1.03208e-14
0.0630551 	46.3674 	-2.29624e-06 	1.03208e-14
0.0633093 	46.4978 	-2.29624e-06 	1.03207e-14
0.0635636 	46.6281 	-2.29624e-06 	1.03207e-14
0.0638178 	46.7584 	-2.29624e-06 	1.03207e-14
0.0640721 	46.8888 	-2.29624e-06 	1.03207e-14
0.0643263 	47.0249 	-2.41389e-06 	1.05771e-14
0.0645806 	47.1632 	-2.41389e-06 	1.05771e-14
0.0648348 	47.3015 	-2.41389e-06 	1.05771e-14
0.0650891 	47.4398 	-2.41389e-06 	1.05771e-14
0.0653433 	47.5781 	-2.41389e-06 	1.05771e-14
0.0655976 	47.7164 	-2.41389e-06 	1.05771e-14
0.0658519 	47.8547 	-2.41389e-06 	1.0577e-14
0.0661061 	47.9929 	-2.41389e-06 	1.0577e-14
0.0663604 	48.1312 	-2.41389e-06 	1.0577e-14
0.0666146 	48.2695 	-2.41389e-06 	1.0577e-14
0.0668689 	48.413 	-2.53036e-06 	1.09078e-14
0.0671231 	48.5595 	-2.53036e-06 	1.09078e-14
0.0673774 	48.706 	-2.53036e-06 	1.09078e-14
0.0676316 	48.8525 	-2.53036e-06 	1.09078e-14
0.0678859 	48.999 	-2.53036e-06 	1.09078e-14
0.0681401 	49.1455 	-2.53036e-06 	1.09078e-14
0.0683944 	49.2919 	-2.53036e-06 	1.09078e-14
0.0686486 	49.4384 	-2.53036e-06 	1.09078e-14
0.0689029 	49.5849 	-2.53036e-06 	1.09078e-14
0.0691572 	49.7314 	-2.53036e-06 	1.09078e-14
0.0694114 	49.8825 	-2.64474e-06 	1.12531e-14
0.0696657 	50.0374 	-2.64474e-06 	1.12531e-14
0.0699199 	50.1923 	-2.64474e-06 	1.12531e-14
0.0701742 	50.3472 	-2.64474e-06 	1.12531e-14
0.0704284 	50.5022 	-2.64474e-06 	1.12531e-14
0.0706827 	50.6571 	-2.64474e-06 	1.12531e-14
0.0709369 	50.812 	-2.64474e-06 	1.12531e-14
0.0711912 	50.9669 	-2.64474e-06 	1.12531e-14
0.0714454 	51.1218 	-2.64474e-06 	1.1253e-14
0.0716997 	51.2768 	-2.64474e-06 	1.1253e-14
0.071954 	51.4356 	-2.74751e-06 	1.16116e-14
0.0722082 	51.5992 	-2.74751e-06 	1.16115e-14
0.0724625 	51.7627 	-2.74751e-06 	1.16115e-14
0.0727167 	51.9263 	-2.74751e-06 	1.16115e-14
0.072971 	52.0899 	-2.74751e-06 	1.16115e-14
0.0732252 	52.2534 	-2.74751e-06 	1.16115e-14
0.0734795 	52.417 	-2.74751e-06 	1.16115e-14
0.0737337 	52.5805 	-2.74751e-06 	1.16115e-14
0.073988 	52.7441 	-2.74751e-06 	1.16115e-14
0.0742422 	52.9077 	-2.74751e-06 	1.16115e-14
0.0744965 	53.0744 	-2.82208e-06 	1.19809e-14
0.0747508 	53.2467 	-2.82208e-06 	1.19809e-14
0.075005 	53.4189 	-2.82208e-06 	1.19809e-14
0.0752593 	53.5912 	-2.82208e-06 	1.19809e-14
0.0755135 	53.7635 	-2.82208e-06 	1.19808e-14
0.0757678 	53.9358 	-2.82208e-06 	1.19808e-14
0.076022 	54.1081 	-2.82208e-06 	1.19808e-14
0.0762763 	54.2803 	-2.82208e-06 	1.19808e-14
0.0765305 	54.4526 	-2.82208e-06 	1.19808e-14
0.0767848 	54.6249 	-2.82208e-06 	1.19808e-14
0.077039 	54.7995 	-2.88494e-06 	1.23174e-14
0.0772933 	54.9805 	-2.88494e-06 	1.23174e-14
0.0775475 	55.1615 	-2.88494e-06 	1.23174e-14
0.0778018 	55.3424 	-2.88494e-06 	1.23173e-14
0.0780561 	55.5234 	-2.88494e-06 	1.23173e-14
0.0783103 	55.7043 	-2.88494e-06 	1.23173e-14
0.0785646 	55.8853 	-2.88494e-06 	1.23173e-14
0.0788188 	56.0662 	-2.88494e-06 	1.23173e-14
0.0790731 	56.2472 	-2.88494e-06 	1.23173e-14
0.0793273 	56.4282 	-2.88494e-06 	1.23173e-14
0.0795816 	56.6107 	-2.91612e-06 	1.26953e-14
0.0798358 	56.8002 	-2.91612e-06 	1.26952e-14
0.0800901 	56.9898 	-2.91612e-06 	1.26952e-14
0.0803443 	57.1793 	-2.91612e-06 	1.26952e-14
0.0805986 	57.3688 	-2.91612e-06 	1.26952e-14
0.0808529 	57.5584 	-2.91612e-06 	1.26952e-14
0.0811071 	57.7479 	-2.91612e-06 	1.26952e-14
0.0813614 	57.9375 	-2.91612e-06 	1.26952e-14
0.0816156 	58.127 	-2.91612e-06 	1.26952e-14
0.0818699 	58.3165 	-2.91612e-06 	1.26951e-14
0.0821241 	58.5069 	-2.926e-06 	1.3084e-14
0.0823784 	58.7048 	-2.926e-06 	1.3084e-14
0.0826326 	58.9027 	-2.926e-06 	1.3084e-14
0.0828869 	59.1006 	-2.926e-06 	1.3084e-14
0.0831411 	59.2985 	-2.926e-06 	1.30839e-14
0.0833954 	59.4964 	-2.926e-06 	1.30839e-14
0.0836496 	59.6943 	-2.926e-06 	1.30839e-14
0.0839039 	59.8922 	-2.926e-06 	1.30839e-14
0.0841582 	60.0902 	-2.926e-06 	1.30839e-14
0.0844124 	60.2881 	-2.926e-06 	1.30839e-14
0.0846667 	60.486 	-3.85385e-06 	3.90621e-17
0.0849209 	60.6919 	-2.95046e-06 	1.34801e-14
0.0851752 	60.8979 	-2.95046e-06 	1.34801e-14
0.0854294 	61.1038 	-2.95046e-06 	1.34801e-14
0.0856837 	61.3098 	-2.95046e-06 	1.34801e-14
0.0859379 	61.5157 	-2.95046e-06 	1.34801e-14
0.0861922 	61.7217 	-2.95046e-06 	1.34801e-14
0.0864464 	61.9276 	-2.95046e-06 	1.34801e-14
0.0867007 	62.1336 	-2.95046e-06 	1.348e-14
0.086955 	62.3395 	-2.95046e-06 	1.348e-14
0.0872092 	62.5455 	-2.95046e-06 	1.348e-14
0.0874635 	62.7584 	-2.96453e-06 	1.38809e-14
0.0877177 	62.972 	-2.96453e-06 	1.38809e-14
0.087972 	63.1856 	-2.96453e-06 	1.38809e-14
0.0882262 	63.3992 	-2.96453e-06 	1.38809e-14
0.0884805 	63.6128 	-2.96453e-06 	1.38809e-14
0.0887347 	63.8264 	-2.96453e-06 	1.38808e-14
0.088989 	64.04 	-2.96453e-06 	1.38808e-14
0.0892432 	64.2536 	-2.96453e-06 	1.38808e-14
0.0894975 	64.4673 	-2.96453e-06 	1.38808e-14
0.0897518 	64.6809 	-2.96453e-06 	1.38808e-14
0.090006 	64.9003 	-2.95289e-06 	1.42839e-14
0.0902603 	65.121 	-2.95289e-06 	1.42839e-14
0.0905145 	65.3418 	-2.95289e-06 	1.42839e-14
0.0907688 	65.5625 	-2.95289e-06 	1.42839e-14
0.091023 	65.7833 	-2.95289e-06 	1.42839e-14
0.0912773 	66.004 	-2.95289e-06 	1.42839e-14
0.0915315 	66.2248 	-2.95289e-06 	1.42839e-14
0.0917858 	66.4455 	-2.95289e-06 	1.42838e-14
0.09204 	66.6662 	-2.95289e-06 	1.42838e-14
0.0922943 	66.887 	-2.95289e-06 	1.42838e-14
0.0925485 	67.1123 	-2.93057e-06 	1.4686e-14
0.0928028 	67.3394 	-2.93057e-06 	1.4686e-14
0.0930571 	67.5665 	-2.93057e-06 	1.4686e-14
0.0933113 	67.7935 	-2.93057e-06 	1.4686e-14
0.0935656 	68.0206 	-2.93057e-06 	1.46859e-14
0.0938198 	68.2477 	-2.93057e-06 	1.46859e-14
0.0940741 	68.4747 	-2.93057e-06 	1.46859e-14
0.0943283 	68.7018 	-2.93057e-06 	1.46859e-14
0.0945826 	68.9289 	-2.93057e-06 	1.46859e-14
0.0948368 	69.1559 	-2.93057e-06 	1.46859e-14
0.0950911 	69.3863 	-2.89899e-06 	1.50262e-14
0.0953453 	69.6186 	-2.89899e-06 	1.50262e-14
0.0955996 	69.8509 	-2.89899e-06 	1.50262e-14
0.0958539 	70.0832 	-2.89899e-06 	1.50262e-14
0.0961081 	70.3155 	-2.89899e-06 	1.50261e-14
0.0963624 	70.5477 	-2.89899e-06 	1.50261e-14
0.0966166 	70.78 	-2.89899e-06 	1.50261e-14
0.0968709 	71.0123 	-2.89899e-06 	1.50261e-14
0.0971251 	71.2446 	-2.89899e-06 	1.50261e-14
0.0973794 	71.4769 	-2.89899e-06 	1.50261e-14
0.0976336 	71.7112 	-2.82958e-06 	1.54834e-14
0.0978879 	71.9473 	-2.82958e-06 	1.54833e-14
0.0981421 	72.1834 	-2.82958e-06 	1.54833e-14
0.0983964 	72.4195 	-2.82958e-06 	1.54833e-14
0.0986507 	72.6555 	-2.82958e-06 	1.54833e-14
0.0989049 	72.8916 	-2.82958e-06 	1.54833e-14
0.0991592 	73.1277 	-2.82958e-06 	1.54833e-14
0.0994134 	73.3638 	-2.82958e-06 	1.54833e-14
0.0996677 	73.5999 	-2.82958e-06 	1.54832e-14
0.0999219 	73.8359 	-2.82958e-06 	1.54832e-14
0.100176 	74.0729 	-2.71489e-06 	1.59147e-14
0.10043 	74.311 	-2.71489e-06 	1.59146e-14
0.100685 	74.5491 	-2.71489e-06 	1.59146e-14
0.100939 	74.7872 	-2.71489e-06 	1.59146e-14
0.101193 	75.0253 	-2.71489e-06 	1.59146e-14
0.101447 	75.2634 	-2.71489e-06 	1.59146e-14
0.101702 	75.5014 	-2.71489e-06 	1.59146e-14
0.101956 	75.7395 	-2.71489e-06 	1.59146e-14
0.10221 	75.9776 	-2.71489e-06 	1.59145e-14
0.102464 	76.2157 	-2.71489e-06 	1.59145e-14
0.102719 	76.4537 	-2.53853e-06 	1.62646e-14
0.102973 	76.6917 	-2.53853e-06 	1.62646e-14
0.103227 	76.9296 	-2.53853e-06 	1.62646e-14
0.103481 	77.1675 	-2.53853e-06 	1.62646e-14
0.103736 	77.4055 	-2.53853e-06 	1.62646e-14
0.10399 	77.6434 	-2.53853e-06 	1.62646e-14
0.104244 	77.8813 	-2.53853e-06 	1.62646e-14
0.104498 	78.1193 	-2.53853e-06 	1.62645e-14
0.104753 	78.3572 	-2.53853e-06 	1.62645e-14
0.105007 	78.5951 	-2.53853e-06 	1.62645e-14
0.105261 	78.8324 	-2.35633e-06 	1.66471e-14
0.105516 	79.0677 	-2.35633e-06 	1.66471e-14
0.10577 	79.303 	-2.35633e-06 	1.66471e-14
0.106024 	79.5384 	-2.35633e-06 	1.66471e-14
0.106278 	79.7737 	-2.35633e-06 	1.6647e-14
0.106533 	80.0091 	-2.35633e-06 	1.6647e-14
0.106787 	80.2444 	-2.35633e-06 	1.6647e-14
0.107041 	80.4797 	-2.35633e-06 	1.6647e-14
0.107295 	80.7151 	-2.35633e-06 	1.6647e-14
0.10755 	80.9504 	-2.35633e-06 	1.6647e-14
0.107804 	81.1848 	-2.07397e-06 	1.69991e-14
0.108058 	81.415 	-2.07397e-06 	1.69991e-14
0.108312 	81.6452 	-2.07397e-06 	1.6999e-14
0.108567 	81.8754 	-2.07397e-06 	1.6999e-14
0.108821 	82.1056 	-2.07397e-06 	1.6999e-14
0.109075 	82.3358 	-2.07397e-06 	1.6999e-14
0.109329 	82.566 	-2.07397e-06 	1.6999e-14
0.109584 	82.7962 	-2.07397e-06 	1.6999e-14
0.109838 	83.0264 	-2.07397e-06 	1.6999e-14
0.110092 	83.2566 	-2.07397e-06 	1.69989e-14
0.110346 	83.486 	-1.75529e-06 	1.72638e-14
0.110601 	83.7083 	-1.75529e-06 	1.72638e-14
0.110855 	83.9305 	-1.75529e-06 	1.72637e-14
0.111109 	84.1528 	-1.75529e-06 	1.72637e-14
0.111363 	84.375 	-1.75529e-06 	1.72637e-14
0.111618 	84.5972 	-1.75529e-06 	1.72637e-14
0.111872 	84.8195 	-1.75529e-06 	1.72637e-14
0.112126 	85.0417 	-1.75529e-06 	1.72637e-14
0.11238 	85.2639 	-1.75529e-06 	1.72637e-14
0.112635 	85.4862 	-1.75529e-06 	1.72636e-14
0.112889 	85.7084 	-2.87025e-06 	7.07121e-17
0.113143 	85.9195 	-1.42135e-06 	1.74758e-14
0.113397 	86.1307 	-1.42135e-06 	1.74757e-14
0.113652 	86.3418 	-1.42135e-06 	1.74757e-14
0.113906 	86.553 	-1.42135e-06 	1.74757e-14
0.11416 	86.7641 	-1.42135e-06 	1.74757e-14
0.114414 	86.9753 	-1.42135e-06 	1.74757e-14
0.114669 	87.1864 	-1.42135e-06 	1.74757e-14
0.114923 	87.3976 	-1.42135e-06 	1.74757e-14
0.115177 	87.6087 	-1.42135e-06 	1.74756e-14
0.115431 	87.8198 	-1.42135e-06 	1.74756e-14
0.115686 	88.0179 	-1.01488e-06 	1.76423e-14
0.11594 	88.2146 	-1.01488e-06 	1.76422e-14
0.116194 	88.4114 	-1.01488e-06 	1.76422e-14
0.116448 	88.6081 	-1.01488e-06 	1.76422e-14
0.116703 	88.8049 	-1.01488e-06 	1.76422e-14
0.116957 	89.0016 	-1.01488e-06 	1.76422e-14
0.117211 	89.1983 	-1.01488e-06 	1.76422e-14
0.117465 	89.3951 	-1.01488e-06 	1.76422e-14
0.11772 	89.5918 	-1.01488e-06 	1.76422e-14
0.117974 	89.7886 	-1.01488e-06 	1.76421e-14
0.118228 	89.9707 	-6.04827e-07 	1.77573e-14
0.118482 	90.1496 	-6.04827e-07 	1.77573e-14
0.118737 	90.3285 	-6.04827e-07 	1.77573e-14
0.118991 	90.5074 	-6.04827e-07 	1.77573e-14
0.119245 	90.6863 	-6.04827e-07 	1.77572e-14
0.119499 	90.8651 	-6.04827e-07 	1.77572e-14
0.119754 	91.044 	-6.04827e-07 	1.77572e-14
0.120008 	91.2229 	-6.04827e-07 	1.77572e-14
0.120262 	91.4018 	-6.04827e-07 	1.77572e-14
0.120517 	91.5807 	-6.04827e-07 	1.77572e-14
0.120771 	91.7441 	-1.92258e-07 	1.7819e-14
0.121025 	91.9018 	-1.92258e-07 	1.78189e-14
0.121279 	92.0594 	-1.92258e-07 	1.78189e-14
0.121534 	92.2171 	-1.92258e-07 	1.78189e-14
0.121788 	92.3747 	-1.92258e-07 	1.78189e-14
0.122042 	92.5324 	-1.92258e-07 	1.78189e-14
0.122296 	92.69 	-1.92258e-07 	1.78189e-14
0.122551 	92.8476 	-1.92258e-07 	1.78189e-14
0.122805 	93.0053 	-1.92258e-07 	1.78189e-14
0.123059 	93.1629 	-1.92258e-07 	1.78189e-14
0.123313 	93.3052 	2.21795e-07 	1.78257e-14
0.123568 	93.4386 	2.21795e-07 	1.78257e-14
0.123822 	93.572 	2.21795e-07 	1.78257e-14
0.124076 	93.7054 	2.21795e-07 	1.78257e-14
0.12433 	93.8389 	2.21795e-07 	1.78257e-14
0.124585 	93.9723 	2.21795e-07 	1.78257e-14
0.124839 	94.1057 	2.21795e-07 	1.78257e-14
0.125093 	94.2391 	2.21795e-07 	1.78257e-14
0.125347 	94.3726 	2.21795e-07 	1.78257e-14
0.125602 	94.506 	2.21795e-07 	1.78257e-14
0.125856 	94.6249 	5.97203e-07 	1.77828e-14
0.12611 	94.7318 	5.97203e-07 	1.77828e-14
0.126364 	94.8387 	5.97203e-07 	1.77828e-14
0.126619 	94.9457 	5.97203e-07 	1.77828e-14
0.126873 	95.0526 	5.97203e-07 	1.77828e-14
0.127127 	95.1595 	5.97203e-07 	1.77828e-14
0.127381 	95.2664 	5.97203e-07 	1.77828e-14
0.127636 	95.3733 	5.97203e-07 	1.77827e-14
0.12789 	95.4802 	5.97203e-07 	1.77827e-14
0.128144 	95.5871 	5.97203e-07 	1.77827e-14
0.128398 	95.6814 	9.26137e-07 	1.77044e-14
0.128653 	95.7605 	9.26137e-07 	1.77044e-14
0.128907 	95.8396 	9.26137e-07 	1.77044e-14
0.129161 	95.9187 	9.26137e-07 	1.77044e-14
0.129415 	95.9978 	9.26137e-07 	1.77044e-14
0.12967 	96.077 	9.26137e-07 	1.77044e-14
0.129924 	96.1561 	9.26137e-07 	1.77044e-14
0.130178 	96.2352 	9.26137e-07 	1.77043e-14
0.130432 	96.3143 	9.26137e-07 	1.77043e-14
0.130687 	96.3935 	9.26137e-07 	1.77043e-14
0.130941 	96.4624 	1.20557e-06 	1.76017e-14
0.131195 	96.5137 	1.20557e-06 	1.76017e-14
0.131449 	96.5649 	1.20557e-06 	1.76017e-14
0.131704 	96.6162 	1.20557e-06 	1.76017e-14
0.131958 	96.6674 	1.20557e-06 	1.76017e-14
0.132212 	96.7187 	1.20557e-06 	1.76016e-14
0.132466 	96.7699 	1.20557e-06 	1.76016e-14
0.132721 	96.8212 	1.20557e-06 	1.76016e-14
0.132975 	96.8724 	1.20557e-06 	1.76016e-14
0.133229 	96.9237 	1.20557e-06 	1.76016e-14
0.133483 	96.9676 	1.4266e-06 	1.74792e-14
0.133738 	96.9919 	1.4266e-06 	1.74792e-14
0.133992 	97.0162 	1.4266e-06 	1.74792e-14
0.134246 	97.0406 	1.4266e-06 	1.74792e-14
0.134501 	97.0649 	1.4266e-06 	1.74792e-14
0.134755 	97.0892 	1.4266e-06 	1.74792e-14
0.135009 	97.1135 	1.4266e-06 	1.74792e-14
0.135263 	97.1378 	1.4266e-06 	1.74792e-14
0.135518 	97.1622 	1.4266e-06 	1.74792e-14
0.135772 	97.1865 	1.4266e-06 	1.74792e-14
0.136026 	97.2062 	1.62526e-06 	1.73905e-14
0.13628 	97.2053 	1.62526e-06 	1.73905e-14
0.136535 	97.2044 	1.62526e-06 	1.73905e-14
0.136789 	97.2034 	1.62526e-06 	1.73905e-14
0.137043 	97.2025 	1.62526e-06 	1.73905e-14
0.137297 	97.2016 	1.62526e-06 	1.73905e-14
0.137552 	97.2007 	1.62526e-06 	1.73905e-14
0.137806 	97.1997 	1.62526e-06 	1.73905e-14
0.13806 	97.1988 	1.62526e-06 	1.73905e-14
0.138314 	97.1979 	1.62526e-06 	1.73905e-14
0.138569 	97.1949 	1.78173e-06 	1.71586e-14
0.138823 	97.1707 	1.78173e-06 	1.71586e-14
0.139077 	97.1466 	1.78173e-06 	1.71586e-14
0.139331 	97.1224 	1.78173e-06 	1.71586e-14
0.139586 	97.0983 	1.78173e-06 	1.71586e-14
0.13984 	97.0742 	1.78173e-06 	1.71586e-14
0.140094 	97.05 	1.78173e-06 	1.71586e-14
0.140348 	97.0259 	1.78173e-06 	1.71586e-14
0.140603 	97.0017 	1.78173e-06 	1.71586e-14
0.140857 	96.9776 	1.78173e-06 	1.71586e-14
0.141111 	96.9535 	9.67978e-07 	5.06258e-17
0.141365 	96.9083 	1.90713e-06 	1.69976e-14
0.14162 	96.8631 	1.90713e-06 	1.69976e-14
0.141874 	96.8178 	1.90713e-06 	1.69976e-14
0.142128 	96.7726 	1.90713e-06 	1.69976e-14
0.142382 	96.7274 	1.90713e-06 	1.69976e-14
0.142637 	96.6822 	1.90713e-06 	1.69976e-14
0.142891 	96.637 	1.90713e-06 	1.69976e-14
0.143145 	96.5918 	1.90713e-06 	1.69976e-14
0.143399 	96.5466 	1.90713e-06 	1.69976e-14
0.143654 	96.5014 	1.90713e-06 	1.69976e-14
0.143908 	96.439 	2.02441e-06 	1.67653e-14
0.144162 	96.3749 	2.02441e-06 	1.67653e-14
0.144416 	96.3108 	2.02441e-06 	1.67653e-14
0.144671 	96.2467 	2.02441e-06 	1.67653e-14
0.144925 	96.1825 	2.02441e-06 	1.67653e-14
0.145179 	96.1184 	2.02441e-06 	1.67653e-14
0.145433 	96.0543 	2.02441e-06 	1.67654e-14
0.145688 	95.9902 	2.02441e-06 	1.67654e-14
0.145942 	95.9261 	2.02441e-06 	1.67654e-14
0.146196 	95.8619 	2.02441e-06 	1.67654e-14
0.14645 	95.784 	2.13045e-06 	1.6503e-14
0.146705 	95.703 	2.13045e-06 	1.6503e-14
0.146959 	95.622 	2.13045e-06 	1.6503e-14
0.147213 	95.541 	2.13045e-06 	1.6503e-14
0.147467 	95.46 	2.13045e-06 	1.6503e-14
0.147722 	95.379 	2.13045e-06 	1.6503e-14
0.147976 	95.298 	2.13045e-06 	1.6503e-14
0.14823 	95.217 	2.13045e-06 	1.6503e-14
0.148484 	95.136 	2.13045e-06 	1.6503e-14
0.148739 	95.055 	2.13045e-06 	1.6503e-14
0.148993 	94.9631 	2.23134e-06 	1.62943e-14
0.149247 	94.8672 	2.23134e-06 	1.62943e-14
0.149502 	94.7712 	2.23134e-06 	1.62943e-14
0.149756 	94.6752 	2.23134e-06 	1.62943e-14
0.15001 	94.5792 	2.23134e-06 	1.62943e-14
0.150264 	94.4832 	2.23134e-06 	1.62943e-14
0.150519 	94.3873 	2.23134e-06 	1.62943e-14
0.150773 	94.2913 	2.23134e-06 	1.62943e-14
0.151027 	94.1953 	2.23134e-06 	1.62943e-14
0.151281 	94.0993 	2.23134e-06 	1.62943e-14
0.151536 	93.995 	2.32717e-06 	1.60661e-14
0.15179 	93.8858 	2.32717e-06 	1.60661e-14
0.152044 	93.7767 	2.32717e-06 	1.60661e-14
0.152298 	93.6675 	2.32717e-06 	1.60661e-14
0.152553 	93.5584 	2.32717e-06 	1.60661e-14
0.152807 	93.4492 	2.32717e-06 	1.60661e-14
0.153061 	93.3401 	2.32717e-06 	1.60661e-14
0.153315 	93.2309 	2.32717e-06 	1.60661e-14
0.15357 	93.1218 	2.32717e-06 	1.60661e-14
0.153824 	93.0126 	2.32717e-06 	1.60661e-14
0.154078 	92.8973 	2.41463e-06 	1.58316e-14
0.154332 	92.7768 	2.41463e-06 	1.58316e-14
0.154587 	92.6563 	2.41463e-06 	1.58316e-14
0.154841 	92.5358 	2.41463e-06 	1.58316e-14
0.155095 	92.4153 	2.41463e-06 	1.58316e-14
0.155349 	92.2947 	2.41463e-06 	1.58316e-14
0.155604 	92.1742 	2.41463e-06 	1.58316e-14
0.155858 	92.0537 	2.41463e-06 	1.58316e-14
0.156112 	91.9332 	2.41463e-06 	1.58316e-14
0.156366 	91.8127 	2.41463e-06 	1.58316e-14
0.156621 	91.6879 	2.49037e-06 	1.55916e-14
0.156875 	91.5579 	2.49037e-06 	1.55916e-14
0.157129 	91.4278 	2.49037e-06 	1.55916e-14
0.157383 	91.2978 	2.49037e-06 	1.55916e-14
0.157638 	91.1678 	2.49037e-06 	1.55916e-14
0.157892 	91.0378 	2.49037e-06 	1.55916e-14
0.158146 	90.9077 	2.49037e-06 	1.55916e-14
0.1584 	90.7777 	2.49037e-06 	1.55916e-14
0.158655 	90.6477 	2.49037e-06 	1.55916e-14
0.158909 	90.5177 	2.49037e-06 	1.55916e-14
0.159163 	90.3849 	2.55222e-06 	1.54013e-14
0.159417 	90.2472 	2.55222e-06 	1.54013e-14
0.159672 	90.1096 	2.55222e-06 	1.54013e-14
0.159926 	89.9719 	2.55222e-06 	1.54013e-14
0.16018 	89.8343 	2.55222e-06 	1.54013e-14
0.160434 	89.6966 	2.55222e-06 	1.54013e-14
0.160689 	89.559 	2.55222e-06 	1.54013e-14
0.160943 	89.4213 	2.55222e-06 	1.54013e-14
0.161197 	89.2836 	2.55222e-06 	1.54013e-14
0.161451 	89.146 	2.55222e-06 	1.54014e-14
0.161706 	89.0068 	2.59948e-06 	1.51998e-14
0.16196 	88.8634 	2.59948e-06 	1.51998e-14
0.162214 	88.72 	2.59948e-06 	1.51998e-14
0.162468 	88.5766 	2.59948e-06 	1.51998e-14
0.162723 	88.4331 	2.59948e-06 	1.51998e-14
0.162977 	88.2897 	2.59948e-06 	1.51998e-14
0.163231 	88.1463 	2.59948e-06 	1.51998e-14
0.163485 	88.0029 	2.59948e-06 	1.51998e-14
0.16374 	87.8595 	2.59948e-06 	1.51998e-14
0.163994 	87.7161 	2.59948e-06 	1.51998e-14
0.164248 	87.572 	2.63255e-06 	1.49453e-14
0.164503 	87.4247 	2.63255e-06 	1.49453e-14
0.164757 	87.2773 	2.63255e-06 	1.49453e-14
0.165011 	87.13 	2.63255e-06 	1.49453e-14
0.165265 	86.9826 	2.63255e-06 	1.49453e-14
0.16552 	86.8353 	2.63255e-06 	1.49453e-14
0.165774 	86.6879 	2.63255e-06 	1.49453e-14
0.166028 	86.5406 	2.63255e-06 	1.49454e-14
0.166282 	86.3932 	2.63255e-06 	1.49454e-14
0.166537 	86.2459 	2.63255e-06 	1.49454e-14
0.166791 	86.0983 	2.65229e-06 	1.46868e-14
0.167045 	85.9487 	2.65229e-06 	1.46868e-14
0.167299 	85.7991 	2.65229e-06 	1.46868e-14
0.167554 	85.6495 	2.65229e-06 	1.46868e-14
0.167808 	85.4999 	2.65229e-06 	1.46868e-14
0.168062 	85.3503 	2.65229e-06 	1.46868e-14
0.168316 	85.2007 	2.65229e-06 	1.46868e-14
0.168571 	85.0511 	2.65229e-06 	1.46868e-14
0.168825 	84.9015 	2.65229e-06 	1.46868e-14
0.169079 	84.7519 	2.65229e-06 	1.46868e-14
0.169333 	84.6023 	2.01291e-06 	3.02631e-17