0 	31.937 	-0.027381 	5.76184e-13
0.000254254 	31.937 	-0.0273868 	1.09596e-10
0.000508509 	31.937 	-0.0273926 	2.18615e-10
0.000762763 	31.9403 	-0.0275592 	-7.16309e-06
0.00101702 	31.946 	-0.0278473 	-1.97447e-05
0.00127127 	31.9518 	-0.0281355 	-3.23263e-05
0.00152553 	31.9576 	-0.0284237 	-2.09117e-05
0.00177978 	31.9633 	-0.0287118 	-8.34026e-06
0.00203403 	31.971 	-0.0290303 	2.28152e-10
0.00228829 	31.9826 	-0.0294085 	1.19071e-10
0.00254254 	31.9941 	-0.0297868 	9.98999e-12
0.0027968 	32.0057 	-0.0295557 	9.91658e-11
0.00305105 	32.0173 	-0.0292631 	2.08329e-10
0.00330531 	32.0301 	-0.0292112 	-4.3098e-06
0.00355956 	32.0443 	-0.0294154 	-1.32052e-05
0.00381381 	32.0585 	-0.0296195 	-2.21006e-05
0.00406807 	32.0727 	-0.0298236 	-1.56712e-05
0.00432232 	32.0868 	-0.0300278 	-6.79198e-06
0.00457658 	32.1016 	-0.0303164 	2.38177e-10
0.00483083 	32.1184 	-0.0308801 	1.29079e-10
0.00508509 	32.1352 	-0.0314438 	1.99819e-11
0.00533934 	32.1522 	-0.0313869 	8.98305e-11
0.00559359 	32.1691 	-0.0311908 	1.99803e-10
0.00584785 	32.1862 	-0.0312488 	-7.60521e-06
0.0061021 	32.2034 	-0.0316779 	-2.63176e-05
0.00635636 	32.2207 	-0.0321069 	-4.503e-05
0.00661061 	32.238 	-0.0325359 	-3.49583e-05
0.00686486 	32.2552 	-0.0329649 	-1.63024e-05
0.00711912 	32.2725 	-0.0334365 	2.49904e-10
0.00737337 	32.2901 	-0.0342027 	1.40042e-10
0.00762763 	32.3078 	-0.0349689 	3.01798e-11
0.00788188 	32.3255 	-0.0350838 	7.98714e-11
0.00813614 	32.3434 	-0.034952 	1.89994e-10
0.00839039 	32.3614 	-0.0350736 	-9.1247e-06
0.00864464 	32.3797 	-0.0356959 	-3.6278e-05
0.0088989 	32.398 	-0.0363182 	-6.34313e-05
0.00915315 	32.4163 	-0.0369406 	-5.38211e-05
0.00940741 	32.4346 	-0.0375629 	-2.67826e-05
0.00966166 	32.4529 	-0.0381884 	2.60208e-10
0.00991592 	32.4717 	-0.039147 	1.5024e-10
0.0101702 	32.4905 	-0.0401055 	4.02727e-11
0.0104244 	32.5094 	-0.040381 	7.03339e-11
0.0106787 	32.5285 	-0.0402618 	1.8131e-10
0.0109329 	32.5479 	-0.040385 	-9.1586e-06
0.0111872 	32.5681 	-0.0411529 	-4.26609e-05
0.0114414 	32.5882 	-0.0419207 	-7.61631e-05
0.0116957 	32.6084 	-0.0426885 	-7.04733e-05
0.0119499 	32.6285 	-0.0434563 	-3.71529e-05
0.0122042 	32.6487 	-0.0442241 	-3.83249e-06
0.0124585 	32.6698 	-0.0453199 	1.61475e-10
0.0127127 	32.691 	-0.0464583 	5.07008e-11
0.012967 	32.7124 	-0.0468981 	6.06938e-11
0.0132212 	32.734 	-0.0467483 	1.72612e-10
0.0134755 	32.756 	-0.0468219 	-8.3197e-06
0.0137297 	32.779 	-0.047695 	-4.64064e-05
0.013984 	32.8021 	-0.0485681 	-8.44931e-05
0.0142382 	32.8252 	-0.0494411 	-8.50276e-05
0.0144925 	32.8483 	-0.0503142 	-4.71932e-05
0.0147467 	32.8714 	-0.0511873 	-9.35884e-06
0.015001 	32.8956 	-0.0523873 	1.72989e-10
0.0152553 	32.9201 	-0.0536949 	6.13189e-11
0.0155095 	32.9449 	-0.0543172 	5.06789e-11
0.0157638 	32.9699 	-0.0541052 	1.63076e-10
0.016018 	32.9952 	-0.0540921 	-7.08726e-06
0.0162723 	33.0219 	-0.055041 	-4.84644e-05
0.0165265 	33.0486 	-0.0559899 	-8.98415e-05
0.0167808 	33.0753 	-0.0569389 	-9.80211e-05
0.017035 	33.1021 	-0.0578878 	-5.69674e-05
0.0172893 	33.1288 	-0.0588367 	-1.59136e-05
0.0175435 	33.1565 	-0.0601039 	1.839e-10
0.0177978 	33.1849 	-0.0615724 	7.17969e-11
0.0180521 	33.2135 	-0.0624065 	4.0613e-11
0.0183063 	33.2424 	-0.0621105 	1.53569e-10
0.0185606 	33.2715 	-0.0619862 	-5.77955e-06
0.0188148 	33.3022 	-0.0629914 	-4.95819e-05
0.0190691 	33.3329 	-0.0639967 	-9.33843e-05
0.0193233 	33.3636 	-0.0650019 	-0.000110078
0.0195776 	33.3943 	-0.0660072 	-6.667e-05
0.0198318 	33.4251 	-0.0670124 	-2.32618e-05
0.0200861 	33.4566 	-0.0683052 	1.9502e-10
0.0203403 	33.4891 	-0.06993 	8.24039e-11
0.0205946 	33.5218 	-0.0710131 	3.0471e-11
0.0208488 	33.5548 	-0.0706187 	1.44051e-10
0.0211031 	33.588 	-0.0703694 	-4.59249e-06
0.0213574 	33.6229 	-0.0714192 	-5.02993e-05
0.0216116 	33.6579 	-0.0724691 	-9.60062e-05
0.0218659 	33.6928 	-0.073519 	-0.0001218
0.0221201 	33.7278 	-0.0745689 	-7.65586e-05
0.0223744 	33.7627 	-0.0756188 	-3.13169e-05
0.0226286 	33.7982 	-0.0768932 	2.0634e-10
0.0228829 	33.8351 	-0.0786727 	9.31469e-11
0.0231371 	33.872 	-0.080048 	2.02393e-11
0.0233914 	33.9094 	-0.0795453 	1.34523e-10
0.0236456 	33.9469 	-0.079165 	-3.64285e-06
0.0238999 	33.9862 	-0.0802537 	-5.09915e-05
0.0241542 	34.0256 	-0.0813425 	-9.83402e-05
0.0244084 	34.065 	-0.0824313 	-0.000133726
0.0246627 	34.1043 	-0.08352 	-8.69147e-05
0.0249169 	34.1437 	-0.0846088 	-4.01034e-05
0.0251712 	34.1833 	-0.0858189 	2.17906e-10
0.0254254 	34.2247 	-0.0877549 	1.04057e-10
0.0256797 	34.266 	-0.0894707 	9.89849e-12
0.0259339 	34.3079 	-0.0888483 	1.24977e-10
0.0261882 	34.3499 	-0.0883334 	-3.00553e-06
0.0264424 	34.3939 	-0.0894606 	-5.19641e-05
0.0266967 	34.4378 	-0.0905878 	-0.000100923
0.026951 	34.4818 	-0.091715 	-0.000146462
0.0272052 	34.5258 	-0.0928422 	-9.81156e-05
0.0274595 	34.5697 	-0.0939694 	-4.97694e-05
0.0277137 	34.6137 	-0.0950965 	-1.42313e-06
0.027968 	34.6597 	-0.0971704 	1.15165e-10
0.0282222 	34.7057 	-0.0992729 	5.68232e-13
0.0284765 	34.7522 	-0.0985134 	1.15393e-10
0.0287307 	34.7989 	-0.0978443 	-2.72988e-06
0.028985 	34.8477 	-0.0990122 	-5.33716e-05
0.0292392 	34.8964 	-0.10018 	-0.000104013
0.0294935 	34.9451 	-0.101348 	-0.000154655
0.0297477 	34.9939 	-0.102516 	-0.000110416
0.030002 	35.0426 	-0.103684 	-6.04655e-05
0.0302563 	35.0914 	-0.104851 	-1.05154e-05
0.0305105 	35.1418 	-0.106915 	1.26499e-10
0.0307648 	35.1927 	-0.109218 	1.1061e-11
0.031019 	35.2441 	-0.108543 	1.06359e-10
0.0312733 	35.2956 	-0.107672 	-2.85297e-06
0.0315275 	35.3493 	-0.108881 	-5.51432e-05
0.0317818 	35.403 	-0.11009 	-0.000107433
0.032036 	35.4567 	-0.111298 	-0.000159724
0.0322903 	35.5104 	-0.112507 	-0.000123642
0.0325445 	35.5641 	-0.113716 	-7.21258e-05
0.0327988 	35.6178 	-0.114924 	-2.06092e-05
0.0330531 	35.6729 	-0.116948 	1.38882e-10
0.0333073 	35.7288 	-0.119515 	2.18353e-11
0.0335616 	35.7852 	-0.118984 	9.60976e-11
0.0338158 	35.8418 	-0.117901 	-3.41268e-06
0.0340701 	35.9007 	-0.119148 	-5.72146e-05
0.0343243 	35.9595 	-0.120396 	-0.000111016
0.0345786 	36.0183 	-0.121643 	-0.000164818
0.0348328 	36.0772 	-0.12289 	-0.000137559
0.0350871 	36.136 	-0.124137 	-8.46137e-05
0.0353413 	36.1949 	-0.125384 	-3.16683e-05
0.0355956 	36.2547 	-0.12728 	1.50073e-10
0.0358498 	36.3158 	-0.13014 	3.25673e-11
0.0361041 	36.3774 	-0.129844 	8.66484e-11
0.0363584 	36.4393 	-0.128563 	-4.44872e-06
0.0366126 	36.5035 	-0.129847 	-5.96468e-05
0.0368669 	36.5677 	-0.13113 	-0.000114845
0.0371211 	36.6319 	-0.132414 	-0.000170043
0.0373754 	36.6961 	-0.133698 	-0.000152187
0.0376296 	36.7603 	-0.134981 	-9.79285e-05
0.0378839 	36.8245 	-0.136265 	-4.36701e-05
0.0381381 	36.8891 	-0.137915 	1.63002e-10
0.0383924 	36.9557 	-0.141079 	4.38144e-11
0.0386466 	37.0226 	-0.141133 	7.70563e-11
0.0389009 	37.0901 	-0.139705 	-5.99667e-06
0.0391552 	37.1599 	-0.141023 	-6.24965e-05
0.0394094 	37.2296 	-0.142341 	-0.000118996
0.0396637 	37.2993 	-0.143659 	-0.000175496
0.0399179 	37.3691 	-0.144977 	-0.000167558
0.0401722 	37.4388 	-0.146295 	-0.000112081
0.0404264 	37.5086 	-0.147613 	-5.66048e-05
0.0406807 	37.5783 	-0.148931 	-1.12839e-06
0.0409349 	37.6504 	-0.152336 	5.54593e-11
0.0411892 	37.723 	-0.152833 	6.70089e-11
0.0414434 	37.7962 	-0.151307 	-8.09226e-06
0.0416977 	37.8718 	-0.152659 	-6.58466e-05
0.041952 	37.9473 	-0.15401 	-0.000123601
0.0422062 	38.0228 	-0.155362 	-0.000181355
0.0424605 	38.0983 	-0.156714 	-0.0001838
0.0427147 	38.1738 	-0.158065 	-0.000127153
0.042969 	38.2493 	-0.159417 	-7.05069e-05
0.0432232 	38.3248 	-0.160769 	-1.38605e-05
0.0434775 	38.4022 	-0.163912 	6.73192e-11
0.0437317 	38.4806 	-0.164944 	5.65228e-11
0.043986 	38.5598 	-0.163371 	-1.07725e-05
0.0442402 	38.6413 	-0.164756 	-6.97676e-05
0.0444945 	38.7228 	-0.166142 	-0.000128763
0.0447487 	38.8043 	-0.167527 	-0.000187758
0.045003 	38.8858 	-0.168912 	-0.000201032
0.0452573 	38.9673 	-0.170298 	-0.00014323
0.0455115 	39.0488 	-0.171683 	-8.54282e-05
0.0457658 	39.1303 	-0.173068 	-2.76264e-05
0.04602 	39.2132 	-0.175816 	7.92755e-11
0.0462743 	39.2976 	-0.177472 	4.56152e-11
0.0465285 	39.3832 	-0.175909 	-1.40605e-05
0.0467828 	39.4709 	-0.177327 	-7.42356e-05
0.047037 	39.5586 	-0.178745 	-0.000134411
0.0472913 	39.6464 	-0.180163 	-0.000194586
0.0475455 	39.7341 	-0.181581 	-0.000219108
0.0477998 	39.8218 	-0.182999 	-0.000160211
0.0480541 	39.9095 	-0.184417 	-0.000101315
0.0483083 	39.9973 	-0.185835 	-4.2418e-05
0.0485626 	40.0858 	-0.188049 	9.11107e-11
0.0488168 	40.1764 	-0.190417 	3.46144e-11
0.0490711 	40.2686 	-0.188926 	-1.7967e-05
0.0493253 	40.3628 	-0.190375 	-7.92183e-05
0.0495796 	40.457 	-0.191823 	-0.00014047
0.0498338 	40.5512 	-0.193272 	-0.000201721
0.0500881 	40.6454 	-0.19472 	-0.000237852
0.0503423 	40.7396 	-0.196168 	-0.000177963
0.0505966 	40.8338 	-0.197617 	-0.000118073
0.0508509 	40.928 	-0.199065 	-5.81837e-05
0.0511051 	41.0223 	-0.200602 	1.03278e-10
0.0513594 	41.1195 	-0.20377 	2.3503e-11
0.0516136 	41.2185 	-0.202418 	-2.24867e-05
0.0518679 	41.3194 	-0.203894 	-8.46655e-05
0.0521221 	41.4203 	-0.20537 	-0.000146844
0.0523764 	41.5213 	-0.206846 	-0.000209023
0.0526306 	41.6222 	-0.208322 	-0.000257034
0.0528849 	41.7231 	-0.209797 	-0.000196296
0.0531391 	41.8241 	-0.211273 	-0.000135559
0.0533934 	41.925 	-0.212749 	-7.48217e-05
0.0536476 	42.0259 	-0.214225 	-1.40843e-05
0.0539019 	42.1292 	-0.217512 	1.20597e-11
0.0541562 	42.2353 	-0.216371 	-2.75842e-05
0.0544104 	42.3433 	-0.21787 	-9.04759e-05
0.0546647 	42.4512 	-0.219369 	-0.000153368
0.0549189 	42.5591 	-0.220868 	-0.000216259
0.0551732 	42.667 	-0.222366 	-0.000276274
0.0554274 	42.7749 	-0.223865 	-0.000214898
0.0556817 	42.8829 	-0.225364 	-0.000153522
0.0559359 	42.9908 	-0.226863 	-9.21454e-05
0.0561902 	43.0987 	-0.228362 	-3.07691e-05
0.0564444 	43.2081 	-0.231612 	4.43379e-13
0.0566987 	43.3217 	-0.230757 	-3.31802e-05
0.056953 	43.4369 	-0.232272 	-9.64814e-05
0.0572072 	43.5521 	-0.233788 	-0.000159783
0.0574615 	43.6672 	-0.235303 	-0.000223084
0.0577157 	43.7824 	-0.236818 	-0.000286385
0.05797 	43.8975 	-0.238333 	-0.00023329
0.0582242 	44.0127 	-0.239849 	-0.000171569
0.0584785 	44.1279 	-0.241364 	-0.000109848
0.0587327 	44.243 	-0.242879 	-4.81271e-05
0.058987 	44.3589 	-0.245236 	1.12495e-11
0.0592412 	44.4802 	-0.245531 	-3.92286e-05
0.0594955 	44.6028 	-0.247057 	-0.000102676
0.0597497 	44.7255 	-0.248583 	-0.000166124
0.060004 	44.8481 	-0.25011 	-0.000229572
0.0602583 	44.9708 	-0.251636 	-0.00029302
0.0605125 	45.0934 	-0.253162 	-0.000251395
0.0607668 	45.2161 	-0.254688 	-0.000189583
0.061021 	45.3387 	-0.256214 	-0.000127771
0.0612753 	45.4614 	-0.25774 	-6.59588e-05
0.0615295 	45.5841 	-0.259267 	-4.14665e-06
0.0617838 	45.7131 	-0.260659 	-4.56548e-05
0.062038 	45.8435 	-0.262191 	-0.00010899
0.0622923 	45.9739 	-0.263722 	-0.000172326
0.0625465 	46.1043 	-0.265254 	-0.000235662
0.0628008 	46.2346 	-0.266785 	-0.000298997
0.0630551 	46.365 	-0.26822 	-0.000267922
0.0633093 	46.4953 	-0.269571 	-0.000204228
0.0635636 	46.6255 	-0.270922 	-0.000140533
0.0638178 	46.7558 	-0.272273 	-7.68388e-05
0.0640721 	46.8861 	-0.273623 	-1.31444e-05
0.0643263 	47.0222 	-0.275039 	-4.11334e-05
0.0645806 	47.1604 	-0.276373 	-0.000101915
0.0648348 	47.2987 	-0.277707 	-0.000162697
0.0650891 	47.4369 	-0.279041 	-0.000223479
0.0653433 	47.5751 	-0.280375 	-0.000284261
0.0655976 	47.7134 	-0.281709 	-0.000263454
0.0658519 	47.8516 	-0.283044 	-0.000200277
0.0661061 	47.9899 	-0.284378 	-0.0001371
0.0663604 	48.1281 	-0.285712 	-7.39234e-05
0.0666146 	48.2663 	-0.287046 	-1.07467e-05
0.0668689 	48.4098 	-0.288617 	-2.783e-05
0.0671231 	48.5562 	-0.289944 	-8.84672e-05
0.0673774 	48.7027 	-0.291271 	-0.000149104
0.0676316 	48.8491 	-0.292598 	-0.000209742
0.0678859 	48.9955 	-0.293925 	-0.000270379
0.0681401 	49.142 	-0.295253 	-0.000260477
0.0683944 	49.2884 	-0.29658 	-0.000197394
0.0686486 	49.4348 	-0.297907 	-0.000134311
0.0689029 	49.5812 	-0.299234 	-7.12284e-05
0.0691572 	49.7277 	-0.300561 	-8.14566e-06
0.0694114 	49.8787 	-0.302335 	-1.44868e-05
0.0696657 	50.0336 	-0.303675 	-7.57718e-05
0.0699199 	50.1885 	-0.305014 	-0.000137057
0.0701742 	50.3434 	-0.306354 	-0.000198342
0.0704284 	50.4982 	-0.307694 	-0.000259627
0.0706827 	50.6531 	-0.309034 	-0.000260564
0.0709369 	50.808 	-0.310374 	-0.000196758
0.0711912 	50.9628 	-0.311714 	-0.000132952
0.0714454 	51.1177 	-0.313053 	-6.91454e-05
0.0716997 	51.2726 	-0.314393 	-5.33911e-06
0.071954 	51.4315 	-0.316464 	-5.54073e-07
0.0722082 	51.595 	-0.317772 	-6.04049e-05
0.0724625 	51.7585 	-0.319079 	-0.000120256
0.0727167 	51.922 	-0.320387 	-0.000180106
0.072971 	52.0855 	-0.321694 	-0.000239957
0.0732252 	52.249 	-0.323002 	-0.000251537
0.0734795 	52.4126 	-0.32431 	-0.000189184
0.0737337 	52.5761 	-0.325617 	-0.00012683
0.073988 	52.7396 	-0.326925 	-6.44772e-05
0.0742422 	52.9031 	-0.328232 	-2.12401e-06
0.0744965 	53.0707 	-0.330414 	6.32074e-05
0.0747508 	53.2422 	-0.331823 	-4.47436e-05
0.075005 	53.4144 	-0.33308 	-0.000102262
0.0752593 	53.5866 	-0.334337 	-0.00015978
0.0755135 	53.7588 	-0.335593 	-0.000217299
0.0757678 	53.9311 	-0.33685 	-0.000238653
0.076022 	54.1033 	-0.338107 	-0.0001787
0.0762763 	54.2755 	-0.339364 	-0.000118747
0.0765305 	54.4478 	-0.34062 	-5.87941e-05
0.0767848 	54.6201 	-0.341882 	6.04589e-06
0.077039 	54.7964 	-0.343798 	0.000138555
0.0772933 	54.9757 	-0.345737 	-2.91343e-05
0.0775475 	55.1566 	-0.346911 	-8.28172e-05
0.0778018 	55.3375 	-0.348086 	-0.0001365
0.0780561 	55.5184 	-0.349261 	-0.000190183
0.0783103 	55.6993 	-0.350436 	-0.000219639
0.0785646 	55.8802 	-0.351611 	-0.000163665
0.0788188 	56.0611 	-0.352785 	-0.000107691
0.0790731 	56.2421 	-0.35396 	-5.17172e-05
0.0793273 	56.4232 	-0.35507 	2.53171e-05
0.0795816 	56.608 	-0.3561 	0.000224369
0.0798358 	56.7952 	-0.359069 	-1.43945e-05
0.0800901 	56.9847 	-0.360104 	-6.1718e-05
0.0803443 	57.1741 	-0.36114 	-0.000109041
0.0805986 	57.3636 	-0.362176 	-0.000156365
0.0808529 	57.5531 	-0.363212 	-0.000190714
0.0811071 	57.7426 	-0.364248 	-0.000141363
0.0813614 	57.9321 	-0.365284 	-9.20125e-05
0.0816156 	58.1215 	-0.36632 	-4.26618e-05
0.0818699 	58.3115 	-0.367076 	4.73211e-05
0.0821241 	58.5046 	-0.366723 	0.000316893
0.0823784 	58.6994 	-0.371312 	-2.69539e-06
0.0826326 	58.8972 	-0.372255 	-4.5567e-05
0.0828869 	59.095 	-0.373198 	-8.84386e-05
0.0831411 	59.2929 	-0.374141 	-0.00013131
0.0833954 	59.4907 	-0.375084 	-0.000170011
0.0836496 	59.6885 	-0.376027 	-0.000125305
0.0839039 	59.8864 	-0.37697 	-8.05985e-05
0.0841582 	60.0842 	-0.377913 	-3.58923e-05
0.0844124 	60.2827 	-0.378192 	7.2398e-05
0.0846667 	60.484 	-0.375991 	0.000419921
0.0849209 	60.6867 	-0.381769 	6.42061e-05
0.0851752 	60.892 	-0.383471 	-2.99182e-05
0.0854294 	61.0979 	-0.384276 	-6.64262e-05
0.0856837 	61.3037 	-0.385081 	-0.000102934
0.0859379 	61.5096 	-0.385885 	-0.000139442
0.0861922 	61.7155 	-0.38669 	-0.00010428
0.0864464 	61.9214 	-0.387494 	-6.622e-05
0.0867007 	62.1273 	-0.388299 	-2.81597e-05
0.086955 	62.334 	-0.3879 	0.000100092
0.0872092 	62.5433 	-0.384076 	0.000484873
0.0874635 	62.7537 	-0.389813 	0.000158501
0.0877177 	62.9659 	-0.39283 	-1.43941e-05
0.087972 	63.1795 	-0.393375 	-3.94333e-05
0.0882262 	63.3931 	-0.39392 	-6.44724e-05
0.0884805 	63.6066 	-0.394464 	-8.95116e-05
0.0887347 	63.8202 	-0.395009 	-6.98294e-05
0.088989 	64.0337 	-0.395554 	-4.37386e-05
0.0892432 	64.2473 	-0.396099 	-1.76478e-05
0.0894975 	64.4619 	-0.394841 	0.000127088
0.0897518 	64.6788 	-0.389816 	0.000519826
0.090006 	64.8964 	-0.394698 	0.000255115
0.0902603 	65.1152 	-0.399236 	-4.51262e-06
0.0905145 	65.3359 	-0.399522 	-1.81914e-05
0.0907688 	65.5566 	-0.399809 	-3.18701e-05
0.091023 	65.7773 	-0.400095 	-4.55488e-05
0.0912773 	65.998 	-0.400381 	-3.72216e-05
0.0915315 	66.2187 	-0.400667 	-2.29791e-05
0.0917858 	66.4394 	-0.400954 	-8.73662e-06
0.09204 	66.6613 	-0.398823 	0.000152354
0.0922943 	66.885 	-0.392855 	0.00054647
0.0925485 	67.1093 	-0.396595 	0.000349552
0.0928028 	67.3341 	-0.402804 	-3.07404e-07
0.0930571 	67.5611 	-0.402862 	-3.89685e-06
0.0933113 	67.7881 	-0.402919 	-7.4863e-06
0.0935656 	68.0152 	-0.402977 	-1.10757e-05
0.0938198 	68.2422 	-0.403034 	-9.52807e-06
0.0940741 	68.4692 	-0.403091 	-5.79452e-06
0.0943283 	68.6963 	-0.403149 	-2.06097e-06
0.0945826 	68.9245 	-0.400122 	0.000176801
0.0948368 	69.1542 	-0.393294 	0.000571503
0.0950911 	69.3843 	-0.395607 	0.000443233
0.0953453 	69.6146 	-0.402376 	6.00128e-05
0.0955996 	69.8466 	-0.403229 	8.12739e-06
0.0958539 	70.0789 	-0.402984 	1.77636e-05
0.0961081 	70.3111 	-0.402739 	2.73998e-05
0.0963624 	70.5434 	-0.402493 	2.49603e-05
0.0966166 	70.7757 	-0.402248 	1.49504e-05
0.0968709 	71.008 	-0.402003 	4.94044e-06
0.0971251 	71.2414 	-0.397975 	0.000199174
0.0973794 	71.4758 	-0.390262 	0.000592435
0.0976336 	71.7105 	-0.390882 	0.000533484
0.0978879 	71.9454 	-0.397462 	0.000151237
0.0981421 	72.181 	-0.399687 	1.58151e-05
0.0983964 	72.4171 	-0.399063 	4.19835e-05
0.0986507 	72.6532 	-0.398438 	6.8152e-05
0.0989049 	72.8893 	-0.397813 	6.61981e-05
0.0991592 	73.1254 	-0.397188 	3.90588e-05
0.0994134 	73.3615 	-0.396564 	1.19194e-05
0.0996677 	73.5985 	-0.391479 	0.000216534
0.0999219 	73.836 	-0.382902 	0.000602639
0.100176 	74.0737 	-0.381689 	0.000612561
0.10043 	74.3115 	-0.388027 	0.000236764
0.100685 	74.5494 	-0.391642 	1.60865e-05
0.100939 	74.7875 	-0.390622 	5.95667e-05
0.101193 	75.0256 	-0.389601 	0.000103047
0.101447 	75.2638 	-0.38858 	0.000107586
0.101702 	75.5019 	-0.387559 	6.25798e-05
0.101956 	75.74 	-0.386538 	1.7573e-05
0.10221 	75.9785 	-0.380422 	0.000225938
0.102464 	76.2171 	-0.371044 	0.000596599
0.102719 	76.4558 	-0.367947 	0.000671449
0.102973 	76.6945 	-0.374115 	0.00031011
0.103227 	76.9331 	-0.379221 	8.00132e-06
0.103481 	77.1711 	-0.377907 	6.44364e-05
0.103736 	77.4091 	-0.376592 	0.000120871
0.10399 	77.6471 	-0.375278 	0.000136904
0.104244 	77.8851 	-0.373964 	7.86188e-05
0.104498 	78.1231 	-0.372649 	2.03334e-05
0.104753 	78.3607 	-0.365603 	0.000231364
0.105007 	78.5981 	-0.355486 	0.000586681
0.105261 	78.8355 	-0.350493 	0.000721318
0.105516 	79.0729 	-0.356685 	0.000374303
0.10577 	79.3103 	-0.362876 	2.72888e-05
0.106024 	79.5458 	-0.361814 	6.69697e-05
0.106278 	79.7813 	-0.360132 	0.000139655
0.106533 	80.0167 	-0.358451 	0.000173412
0.106787 	80.2522 	-0.356769 	9.85358e-05
0.107041 	80.4876 	-0.355088 	2.36592e-05
0.107295 	80.7218 	-0.346936 	0.000228347
0.10755 	80.9555 	-0.335796 	0.000562173
0.107804 	81.1892 	-0.3285 	0.000748029
0.108058 	81.4227 	-0.334523 	0.000421328
0.108312 	81.6561 	-0.340546 	9.46277e-05
0.108567 	81.8874 	-0.340798 	6.47945e-05
0.108821 	82.1177 	-0.338696 	0.000156008
0.109075 	82.348 	-0.336594 	0.000214879
0.109329 	82.5783 	-0.334493 	0.000121185
0.109584 	82.8086 	-0.332391 	2.74898e-05
0.109838 	83.0367 	-0.3233 	0.000212157
0.110092 	83.264 	-0.311307 	0.000512405
0.110346 	83.4911 	-0.301725 	0.000733232
0.110601 	83.7181 	-0.307785 	0.000438718
0.110855 	83.945 	-0.313845 	0.000144203
0.111109 	84.1695 	-0.315611 	5.22895e-05
0.111363 	84.3919 	-0.31326 	0.000154743
0.111618 	84.6142 	-0.310908 	0.000239472
0.111872 	84.8366 	-0.308556 	0.000134564
0.112126 	85.0589 	-0.306204 	2.96568e-05
0.11238 	85.2781 	-0.296317 	0.000193297
0.112635 	85.496 	-0.28346 	0.000462772
0.112889 	85.7138 	-0.271418 	0.000709399
0.113143 	85.9312 	-0.277628 	0.000444404
0.113397 	86.1486 	-0.283838 	0.000179408
0.113652 	86.3641 	-0.287181 	3.76232e-05
0.113906 	86.5753 	-0.284514 	0.00015411
0.11416 	86.7866 	-0.281846 	0.000270596
0.114414 	86.9979 	-0.279179 	0.000152789
0.114669 	87.2092 	-0.276512 	3.39209e-05
0.114923 	87.4162 	-0.265753 	0.000171158
0.115177 	87.6214 	-0.251763 	0.000410661
0.115431 	87.8267 	-0.237773 	0.000650164
0.115686 	88.0314 	-0.243168 	0.000436984
0.11594 	88.236 	-0.249548 	0.000200822
0.116194 	88.4394 	-0.254523 	1.96934e-05
0.116448 	88.6363 	-0.251514 	0.000151291
0.116703 	88.8332 	-0.248505 	0.000282889
0.116957 	89.03 	-0.245496 	0.000174307
0.117211 	89.2269 	-0.242487 	4.05126e-05
0.117465 	89.4185 	-0.230958 	0.000146894
0.11772 	89.6077 	-0.215729 	0.000357583
0.117974 	89.797 	-0.200501 	0.000568272
0.118228 	89.9855 	-0.204051 	0.000418436
0.118482 	90.1738 	-0.210649 	0.000210086
0.118737 	90.3621 	-0.217248 	1.73508e-06
0.118991 	90.5412 	-0.214101 	0.00014009
0.119245 	90.7202 	-0.210873 	0.000281356
0.119499 	90.8992 	-0.207645 	0.000191166
0.119754 	91.0782 	-0.204417 	4.80986e-05
0.120008 	91.2511 	-0.192553 	0.0001247
0.120262 	91.4209 	-0.176315 	0.000312555
0.120517 	91.5906 	-0.160077 	0.00050041
0.120771 	91.7595 	-0.161667 	0.000400587
0.121025 	91.9282 	-0.168617 	0.000214254
0.121279 	92.0968 	-0.175568 	2.79199e-05
0.121534 	92.2562 	-0.173756 	0.00012487
0.121788 	92.4139 	-0.170399 	0.000271748
0.122042 	92.5717 	-0.167043 	0.000205417
0.122296 	92.7294 	-0.163686 	5.72677e-05
0.122551 	92.8806 	-0.15197 	0.000101923
0.122805 	93.0275 	-0.134987 	0.000268071
0.123059 	93.1744 	-0.118004 	0.000434219
0.123313 	93.3205 	-0.117543 	0.000375946
0.123568 	93.4662 	-0.124961 	0.000210629
0.123822 	93.6119 	-0.13238 	4.53125e-05
0.124076 	93.7487 	-0.132004 	0.000105368
0.12433 	93.8822 	-0.128684 	0.000250522
0.124585 	94.0157 	-0.125365 	0.000212071
0.124839 	94.1492 	-0.122046 	6.62622e-05
0.125093 	94.2761 	-0.111067 	8.02751e-05
0.125347 	94.3974 	-0.0937082 	0.000227418
0.125602 	94.5187 	-0.0763492 	0.000374561
0.125856 	94.6393 	-0.0738821 	0.000349671
0.12611 	94.7594 	-0.0819716 	0.00020283
0.126364 	94.8794 	-0.0900612 	5.59898e-05
0.126619 	94.9913 	-0.0912286 	8.37359e-05
0.126873 	95.0983 	-0.0881301 	0.000219076
0.127127 	95.2052 	-0.0850317 	0.000208408
0.127381 	95.3122 	-0.0819332 	7.29508e-05
0.127636 	95.4131 	-0.0722165 	6.18278e-05
0.12789 	95.5069 	-0.0547758 	0.000195813
0.128144 	95.6008 	-0.0373351 	0.000329798
0.128398 	95.694 	-0.0328825 	0.000331608
0.128653 	95.7866 	-0.0417757 	0.000197603
0.128907 	95.8792 	-0.0506689 	6.35973e-05
0.129161 	95.9648 	-0.0534345 	6.34733e-05
0.129415 	96.0439 	-0.0506652 	0.000184279
0.12967 	96.1231 	-0.047896 	0.000197095
0.129924 	96.2022 	-0.0451267 	7.64422e-05
0.130178 	96.2764 	-0.0370396 	4.56352e-05
0.130432 	96.3421 	-0.0197579 	0.000170174
0.130687 	96.4078 	-0.0024761 	0.000294712
0.130941 	96.473 	0.00395737 	0.000319241
0.131195 	96.5375 	-0.00579937 	0.000194513
0.131449 	96.602 	-0.0155561 	6.97844e-05
0.131704 	96.6607 	-0.0199694 	4.5531e-05
0.131958 	96.712 	-0.017596 	0.00014889
0.132212 	96.7633 	-0.0152227 	0.000178908
0.132466 	96.8145 	-0.0128493 	7.58314e-05
0.132721 	96.8623 	-0.00662205 	3.10684e-05
0.132975 	96.9002 	0.0103315 	0.000148607
0.133229 	96.9382 	0.027285 	0.000266145
0.133483 	96.9758 	0.0357324 	0.0003109
0.133738 	97.0128 	0.0251766 	0.000193055
0.133992 	97.0499 	0.0146209 	7.52091e-05
0.134246 	97.0823 	0.00860174 	3.11639e-05
0.134501 	97.1066 	0.0105849 	0.000117298
0.134755 	97.131 	0.0125681 	0.000158165
0.135009 	97.1553 	0.0145513 	7.23848e-05
0.135263 	97.1777 	0.0188014 	1.70939e-05
0.135518 	97.1893 	0.0353005 	0.000126551
0.135772 	97.2009 	0.0517995 	0.000236007
0.136026 	97.2124 	0.0622502 	0.000297828
0.13628 	97.2233 	0.050903 	0.000187971
0.136535 	97.2342 	0.0395558 	7.81134e-05
0.136789 	97.2417 	0.0319595 	2.04125e-05
0.137043 	97.2408 	0.033593 	9.10532e-05
0.137297 	97.2398 	0.0352264 	0.000137548
0.137552 	97.2389 	0.0368599 	6.72924e-05
0.137806 	97.2375 	0.0391063 	4.23294e-06
0.13806 	97.2248 	0.0552701 	0.000104581
0.138314 	97.212 	0.0714339 	0.00020493
0.138569 	97.1992 	0.0840739 	0.000280091
0.138823 	97.1859 	0.0720932 	0.000179273
0.139077 	97.1726 	0.0601125 	7.84552e-05
0.139331 	97.1569 	0.0510886 	1.28598e-05
0.139586 	97.1327 	0.0524375 	7.08329e-05
0.13984 	97.1086 	0.0537864 	0.000119623
0.140094 	97.0845 	0.0551353 	6.20415e-05
0.140348 	97.0604 	0.0564842 	4.46034e-06
0.140603 	97.0262 	0.0713113 	8.66545e-05
0.140857 	96.9913 	0.08727 	0.000180584
0.141111 	96.9563 	0.102286 	0.000268257
0.141365 	96.9209 	0.0898746 	0.000173794
0.14162 	96.8855 	0.0774627 	7.93321e-05
0.141874 	96.8486 	0.0672293 	8.12397e-06
0.142128 	96.8034 	0.0684174 	5.88413e-05
0.142382 	96.7582 	0.0696056 	0.000109559
0.142637 	96.713 	0.0707938 	6.04992e-05
0.142891 	96.6678 	0.071982 	1.01886e-05
0.143145 	96.6148 	0.0848997 	7.05285e-05
0.143399 	96.5598 	0.100796 	0.000158966
0.143654 	96.5049 	0.116692 	0.000247403
0.143908 	96.4496 	0.105705 	0.000168808
0.144162 	96.3943 	0.093039 	7.97845e-05
0.144416 	96.3381 	0.0818026 	4.86835e-06
0.144671 	96.274 	0.0829086 	5.17746e-05
0.144925 	96.2099 	0.0840146 	9.86809e-05
0.145179 	96.1458 	0.0851206 	6.1936e-05
0.145433 	96.0817 	0.0862267 	1.54625e-05
0.145688 	96.0117 	0.0971933 	5.54249e-05
0.145942 	95.9388 	0.113076 	0.000138484
0.146196 	95.8659 	0.128959 	0.000221543
0.14645 	95.7929 	0.120435 	0.000162988
0.146705 	95.7197 	0.107578 	7.93037e-05
0.146959 	95.6462 	0.0954502 	2.31619e-06
0.147213 	95.5652 	0.0965 	4.65494e-05
0.147467 	95.4842 	0.0975498 	9.07826e-05
0.147722 	95.4032 	0.0985996 	6.42507e-05
0.147976 	95.3222 	0.0996494 	2.04761e-05
0.14823 	95.2371 	0.1086 	4.15489e-05
0.148484 	95.1483 	0.124494 	0.000119611
0.148739 	95.0595 	0.140388 	0.000197674
0.148993 	94.9705 	0.134396 	0.000156996
0.149247 	94.8815 	0.121392 	7.82787e-05
0.149502 	94.7925 	0.108466 	2.35001e-07
0.149756 	94.6965 	0.109471 	4.229e-05
0.15001 	94.6005 	0.110476 	8.4345e-05
0.150264 	94.5045 	0.111481 	6.68223e-05
0.150519 	94.4086 	0.112485 	2.52484e-05
0.150773 	94.3099 	0.119331 	2.85181e-05
0.151027 	94.2069 	0.135209 	0.000101139
0.151281 	94.104 	0.151087 	0.00017376
0.151536 	94.001 	0.14764 	0.000149281
0.15179 	93.898 	0.134478 	7.59925e-05
0.152044 	93.7949 	0.121316 	2.70377e-06
0.152298 	93.686 	0.121736 	3.7599e-05
0.152553 	93.5768 	0.122677 	7.66377e-05
0.152807 	93.4677 	0.123617 	6.75069e-05
0.153061 	93.3585 	0.124557 	2.89539e-05
0.153315 	93.2479 	0.129201 	1.66157e-05
0.15357 	93.1326 	0.145016 	8.33455e-05
0.153824 	93.0174 	0.16083 	0.000150075
0.154078 	92.9021 	0.159914 	0.00013987
0.154332 	92.7868 	0.146561 	7.24761e-05
0.154587 	92.6715 	0.133208 	5.08253e-06
0.154841 	92.5514 	0.132985 	3.21806e-05
0.155095 	92.4309 	0.133833 	6.69855e-05
0.155349 	92.3104 	0.134682 	6.51936e-05
0.155604 	92.1899 	0.13553 	3.08537e-05
0.155858 	92.0688 	0.137887 	6.17497e-06
0.156112 	91.9431 	0.153595 	6.69935e-05
0.156366 	91.8173 	0.169302 	0.000127812
0.156621 	91.6916 	0.170903 	0.000129715
0.156875 	91.5659 	0.157331 	6.82496e-05
0.157129 	91.4402 	0.143759 	6.78427e-06
0.157383 	91.3106 	0.142915 	2.63683e-05
0.157638 	91.1806 	0.14365 	5.60077e-05
0.157892 	91.0505 	0.144385 	5.98779e-05
0.158146 	90.9205 	0.14512 	3.06595e-05
0.1584 	90.7904 	0.145855 	1.44122e-06
0.158655 	90.6563 	0.160696 	5.25642e-05
0.158909 	90.5219 	0.176268 	0.000107855
0.159163 	90.3876 	0.180384 	0.000119775
0.159417 	90.2533 	0.166583 	6.38619e-05
0.159672 	90.119 	0.152782 	7.94873e-06
0.159926 	89.9819 	0.151344 	2.06277e-05
0.16018 	89.8442 	0.151956 	4.46734e-05
0.160434 	89.7065 	0.152568 	5.21834e-05
0.160689 	89.5688 	0.153179 	2.84975e-05
0.160943 	89.4312 	0.153791 	4.81156e-06
0.161197 	89.2908 	0.166205 	4.01602e-05
0.161451 	89.1496 	0.181629 	9.05572e-05
0.161706 	89.0086 	0.18827 	0.000110714
0.16196 	88.8677 	0.174247 	5.97212e-05
0.162214 	88.7268 	0.160225 	8.72856e-06
0.162468 	88.5838 	0.15823 	1.53118e-05
0.162723 	88.4404 	0.158718 	3.37855e-05
0.162977 	88.2969 	0.159206 	4.29074e-05
0.163231 	88.1535 	0.159695 	2.47226e-05
0.163485 	88.0101 	0.160183 	6.53781e-06
0.16374 	87.865 	0.170139 	2.9602e-05
0.163994 	87.7191 	0.185409 	7.5819e-05
0.164248 	87.5731 	0.194587 	0.000102826
0.164503 	87.4274 	0.180365 	5.60405e-05
0.164757 	87.2817 	0.166143 	9.25455e-06
0.165011 	87.1347 	0.163627 	1.05737e-05
0.165265 	86.9873 	0.163998 	2.37542e-05
0.16552 	86.84 	0.164369 	3.2651e-05
0.165774 	86.6926 	0.164741 	1.96843e-05
0.166028 	86.5452 	0.165112 	6.71754e-06
0.166282 	86.3971 	0.172588 	2.05795e-05
0.166537 	86.248 	0.187701 	6.32784e-05
0.166791 	86.099 	0.199425 	9.61052e-05
0.167045 	85.9502 	0.185031 	5.28624e-05
0.167299 	85.8015 	0.170637 	9.61966e-06
0.167554 	85.6521 	0.167639 	6.39988e-06
0.167808 	85.5024 	0.1679 	1.46304e-05
0.168062 	85.3528 	0.168161 	2.16756e-05
0.168316 	85.2032 	0.168422 	1.35828e-05
0.168571 	85.0536 	0.168684 	5.48989e-06
0.168825 	84.9036 	0.17367 	1.27754e-05
0.169079 	84.7531 	0.188619 	5.24903e-05
0.169333 	84.6026 	0.202884 	9.03482e-05
0.169588 	84.4524 	0.18835 	5.01133e-05
0.169842 	84.3022 	0.173815 	9.8783e-06
0.170096 	84.1519 	0.170368 	2.76623e-06
0.17035 	84.0015 	0.170527 	6.43223e-06
0.170605 	83.8511 	0.170687 	1.00982e-05
0.170859 	83.7008 	0.170847 	6.63006e-06
0.171113 	83.5504 	0.171007 	3.02687e-06
0.171367 	83.4 	0.173506 	5.9441e-06
0.171622 	83.2494 	0.188285 	4.30885e-05
0.171876 	83.0987 	0.203064 	8.02329e-05
0.17213 	82.9485 	0.190439 	4.77055e-05
0.172384 	82.7983 	0.175802 	1.00639e-05
0.172639 	82.6484 	0.171937 	-3.98314e-07
0.172893 	82.4986 	0.172003 	-9.4232e-07
0.173147 	82.3488 	0.172068 	-1.48633e-06
0.173401 	82.199 	0.172134 	-1.07016e-06
0.173656 	82.0492 	0.1722 	-5.35656e-07
0.17391 	81.8993 	0.172265 	-1.15043e-09
0.174164 	81.7499 	0.186821 	3.47892e-05
0.174418 	81.6004 	0.201414 	6.96693e-05
0.174673 	81.4513 	0.191397 	4.55499e-05
0.174927 	81.3023 	0.176693 	1.0195e-05
0.175181 	81.1539 	0.17244 	-3.07167e-06
0.175435 	81.0057 	0.172421 	-7.3883e-06
0.17569 	80.8576 	0.172402 	-1.17049e-05
0.175944 	80.7095 	0.172383 	-9.18343e-06
0.176198 	80.5613 	0.172364 	-4.94324e-06
0.176452 	80.4132 	0.172345 	-7.03047e-07
0.176707 	80.2657 	0.184352 	2.73214e-05
0.176961 	80.1184 	0.19875 	6.00751e-05
0.177215 	79.9715 	0.191355 	4.34608e-05
0.177469 	79.8246 	0.176636 	1.02559e-05
0.177724 	79.6787 	0.172025 	-5.2934e-06
0.177978 	79.5331 	0.17193 	-1.29527e-05
0.178232 	79.3875 	0.171836 	-2.0612e-05
0.178486 	79.242 	0.171741 	-1.75223e-05
0.178741 	79.0964 	0.171647 	-9.99985e-06