0 	29.9811 	-0.0256816 	7.87879e-14
0.000254254 	29.9811 	-0.0256631 	5.45261e-12
0.000508509 	29.9811 	-0.0256446 	1.08264e-11
0.000762763 	29.9843 	-0.0257923 	-6.79911e-06
0.00101702 	29.9898 	-0.0260658 	-1.8741e-05
0.00127127 	29.9954 	-0.0263394 	-3.06829e-05
0.00152553 	30.001 	-0.0266129 	-1.98487e-05
0.00177978 	30.0066 	-0.0268864 	-7.91643e-06
0.00203403 	30.0141 	-0.0271968 	1.12627e-11
0.00228829 	30.0252 	-0.0275798 	5.87789e-12
0.00254254 	30.0364 	-0.0279629 	4.9311e-13
0.0027968 	30.0476 	-0.0277256 	4.87682e-12
0.00305105 	30.0588 	-0.0274257 	1.02454e-11
0.00330531 	30.0711 	-0.0273654 	-4.1053e-06
0.00355956 	30.0847 	-0.0275598 	-1.25781e-05
0.00381381 	30.0982 	-0.0277543 	-2.1051e-05
0.00406807 	30.1117 	-0.0279488 	-1.4927e-05
0.00432232 	30.1253 	-0.0281432 	-6.46956e-06
0.00457658 	30.1394 	-0.0284232 	1.17132e-11
0.00483083 	30.1552 	-0.0289813 	6.34794e-12
0.00508509 	30.1711 	-0.0295394 	9.82642e-13
0.00533934 	30.1871 	-0.0294733 	4.95523e-12
0.00559359 	30.2031 	-0.0292673 	1.10216e-11
0.00584785 	30.2192 	-0.0293108 	-7.22996e-06
0.0061021 	30.2355 	-0.0297187 	-2.50185e-05
0.00635636 	30.2517 	-0.0301266 	-4.2807e-05
0.00661061 	30.2679 	-0.0305345 	-3.32325e-05
0.00686486 	30.2841 	-0.0309424 	-1.54978e-05
0.00711912 	30.3004 	-0.0313932 	1.37853e-11
0.00737337 	30.3168 	-0.0321411 	7.72501e-12
0.00762763 	30.3333 	-0.0328891 	1.66475e-12
0.00788188 	30.3499 	-0.0329899 	4.35752e-12
0.00813614 	30.3666 	-0.0328456 	1.03655e-11
0.00839039 	30.3834 	-0.0329478 	-8.63665e-06
0.00864464 	30.4005 	-0.0335369 	-3.43369e-05
0.0088989 	30.4176 	-0.034126 	-6.00372e-05
0.00915315 	30.4347 	-0.0347151 	-5.09412e-05
0.00940741 	30.4518 	-0.0353042 	-2.53496e-05
0.00966166 	30.4689 	-0.0358965 	1.41962e-11
0.00991592 	30.4864 	-0.0368232 	8.19665e-12
0.0101702 	30.5039 	-0.0377499 	2.19712e-12
0.0104244 	30.5216 	-0.0380052 	4.16755e-12
0.0106787 	30.5394 	-0.0378725 	1.07434e-11
0.0109329 	30.5575 	-0.0379739 	-8.63217e-06
0.0111872 	30.5763 	-0.0386976 	-4.02079e-05
0.0114414 	30.5952 	-0.0394214 	-7.17836e-05
0.0116957 	30.614 	-0.0401451 	-6.6421e-05
0.0119499 	30.6328 	-0.0408689 	-3.50167e-05
0.0122042 	30.6516 	-0.0415926 	-3.61233e-06
0.0124585 	30.6713 	-0.0426434 	9.5681e-12
0.0127127 	30.6912 	-0.0437367 	3.0042e-12
0.012967 	30.7112 	-0.0441493 	3.93994e-12
0.0132212 	30.7314 	-0.0439873 	1.12052e-11
0.0134755 	30.7519 	-0.0440399 	-7.81887e-06
0.0137297 	30.7736 	-0.0448605 	-4.36117e-05
0.013984 	30.7952 	-0.0456811 	-7.94046e-05
0.0142382 	30.8168 	-0.0465017 	-7.9907e-05
0.0144925 	30.8384 	-0.0473223 	-4.43512e-05
0.0147467 	30.86 	-0.0481429 	-8.79542e-06
0.015001 	30.8827 	-0.0492866 	1.12297e-11
0.0152553 	30.9057 	-0.0505365 	3.98052e-12
0.0155095 	30.9289 	-0.0511235 	3.31063e-12
0.0157638 	30.9524 	-0.0509032 	1.06531e-11
0.016018 	30.9761 	-0.0508731 	-6.65041e-06
0.0162723 	31.0011 	-0.0517637 	-4.54758e-05
0.0165265 	31.0261 	-0.0526542 	-8.43011e-05
0.0167808 	31.0512 	-0.0535447 	-9.19763e-05
0.017035 	31.0762 	-0.0544353 	-5.34544e-05
0.0172893 	31.1013 	-0.0553258 	-1.49324e-05
0.0175435 	31.1273 	-0.0565279 	1.20135e-11
0.0177978 	31.1539 	-0.0579272 	4.6902e-12
0.0180521 	31.1807 	-0.0587161 	2.62496e-12
0.0183063 	31.2078 	-0.0584176 	9.92584e-12
0.0185606 	31.2351 	-0.0582829 	-5.41992e-06
0.0188148 	31.2639 	-0.0592257 	-4.64951e-05
0.0190691 	31.2927 	-0.0601685 	-8.75702e-05
0.0193233 	31.3215 	-0.0611113 	-0.000103225
0.0195776 	31.3503 	-0.0620541 	-6.25192e-05
0.0198318 	31.3791 	-0.0629969 	-2.18137e-05
0.0200861 	31.4087 	-0.064219 	1.2605e-11
0.0203403 	31.4392 	-0.0657634 	5.32609e-12
0.0205946 	31.4698 	-0.066789 	1.94921e-12
0.0208488 	31.5008 	-0.0663993 	9.21505e-12
0.0211031 	31.5319 	-0.0661477 	-4.30599e-06
0.0213574 	31.5647 	-0.0671322 	-4.71593e-05
0.0216116 	31.5974 	-0.0681166 	-9.00126e-05
0.0218659 	31.6302 	-0.0691011 	-0.000114196
0.0221201 	31.663 	-0.0700856 	-7.17791e-05
0.0223744 	31.6957 	-0.0710701 	-2.9362e-05
0.0226286 	31.729 	-0.0722712 	1.31998e-11
0.0228829 	31.7635 	-0.0739594 	5.95867e-12
0.0231371 	31.7981 	-0.0752619 	1.28176e-12
0.0233914 	31.8332 	-0.0747719 	8.51962e-12
0.0236456 	31.8683 	-0.0743981 	-3.41583e-06
0.0238999 	31.9052 	-0.0754191 	-4.7811e-05
0.0241542 	31.9421 	-0.0764401 	-9.22062e-05
0.0244084 	31.979 	-0.0774611 	-0.000125385
0.0246627 	32.0159 	-0.0784821 	-8.14934e-05
0.0249169 	32.0528 	-0.0795031 	-3.7602e-05
0.0251712 	32.09 	-0.0806405 	1.38005e-11
0.0254254 	32.1287 	-0.0824743 	6.59012e-12
0.0256797 	32.1675 	-0.0840986 	6.20851e-13
0.0259339 	32.2067 	-0.0834969 	7.83931e-12
0.0261882 	32.2461 	-0.0829971 	-2.81977e-06
0.0264424 	32.2873 	-0.0840548 	-4.8749e-05
0.0266967 	32.3285 	-0.0851124 	-9.46782e-05
0.026951 	32.3697 	-0.08617 	-0.0001374
0.0272052 	32.4109 	-0.0872276 	-9.20448e-05
0.0274595 	32.4521 	-0.0882852 	-4.669e-05
0.0277137 	32.4933 	-0.0893429 	-1.33527e-06
0.027968 	32.5363 	-0.0913056 	7.22383e-12
0.0282222 	32.5794 	-0.0932957 	3.55887e-14
0.0284765 	32.623 	-0.0925622 	7.1719e-12
0.0287307 	32.6668 	-0.0919145 	-2.56415e-06
0.028985 	32.7124 	-0.0930116 	-5.01278e-05
0.0292392 	32.7581 	-0.0941086 	-9.76915e-05
0.0294935 	32.8037 	-0.0952057 	-0.000145255
0.0297477 	32.8494 	-0.0963028 	-0.000103705
0.030002 	32.8951 	-0.0973999 	-5.67905e-05
0.0302563 	32.9407 	-0.0984969 	-9.87646e-06
0.0305105 	32.9879 	-0.100451 	7.86215e-12
0.0307648 	33.0356 	-0.102634 	6.8741e-13
0.031019 	33.0837 	-0.101972 	7.14232e-12
0.0312733 	33.132 	-0.101122 	-2.68214e-06
0.0315275 	33.1823 	-0.102258 	-5.18378e-05
0.0317818 	33.2326 	-0.103395 	-0.000100994
0.032036 	33.2829 	-0.104532 	-0.000150149
0.0322903 	33.3332 	-0.105668 	-0.000116231
0.0325445 	33.3834 	-0.106805 	-6.78023e-05
0.0327988 	33.4337 	-0.107941 	-1.93739e-05
0.0330531 	33.4853 	-0.109864 	9.3264e-12
0.0333073 	33.5376 	-0.11231 	1.46627e-12
0.0335616 	33.5904 	-0.111764 	5.80936e-12
0.0338158 	33.6434 	-0.110684 	-3.20891e-06
0.0340701 	33.6985 	-0.111858 	-5.37955e-05
0.0343243 	33.7536 	-0.113031 	-0.000104382
0.0345786 	33.8087 	-0.114204 	-0.000154969
0.0348328 	33.8638 	-0.115378 	-0.000129338
0.0350871 	33.9189 	-0.116551 	-7.95572e-05
0.0353413 	33.974 	-0.117725 	-2.97759e-05
0.0355956 	34.0299 	-0.119533 	9.07237e-12
0.0358498 	34.0871 	-0.122287 	1.96875e-12
0.0361041 	34.1448 	-0.121956 	5.75886e-12
0.0363584 	34.2027 	-0.120661 	-4.18216e-06
0.0366126 	34.2628 	-0.121869 	-5.60707e-05
0.0368669 	34.3229 	-0.123077 	-0.000107959
0.0371211 	34.3829 	-0.124285 	-0.000159848
0.0373754 	34.443 	-0.125493 	-0.000143062
0.0376296 	34.5031 	-0.1267 	-9.20571e-05
0.0378839 	34.5631 	-0.127908 	-4.1052e-05
0.0381381 	34.6236 	-0.12948 	1.08335e-11
0.0383924 	34.6859 	-0.132553 	2.91199e-12
0.0386466 	34.7486 	-0.132557 	5.40566e-12
0.0389009 	34.8117 	-0.131097 	-5.632e-06
0.0391552 	34.8769 	-0.132337 	-5.86945e-05
0.0394094 	34.9422 	-0.133577 	-0.000111757
0.0396637 	35.0074 	-0.134816 	-0.00016482
0.0399179 	35.0726 	-0.136056 	-0.000157364
0.0401722 	35.1379 	-0.137296 	-0.000105263
0.0404264 	35.2031 	-0.138535 	-5.31612e-05
0.0406807 	35.2684 	-0.139775 	-1.05989e-06
0.0409349 	35.3358 	-0.143102 	3.89057e-12
0.0411892 	35.4037 	-0.143546 	5.06686e-12
0.0414434 	35.4722 	-0.141981 	-7.59116e-06
0.0416977 	35.5428 	-0.143251 	-6.17681e-05
0.041952 	35.6134 	-0.144521 	-0.000115945
0.0422062 	35.684 	-0.145791 	-0.000170122
0.0424605 	35.7546 	-0.147062 	-0.000172415
0.0427147 	35.8252 	-0.148332 	-0.000119277
0.042969 	35.8958 	-0.149602 	-6.61397e-05
0.0432232 	35.9664 	-0.150872 	-1.30021e-05
0.0434775 	36.0388 	-0.153938 	5.09031e-12
0.0437317 	36.1121 	-0.154914 	4.24876e-12
0.043986 	36.1862 	-0.153299 	-1.00981e-05
0.0442402 	36.2624 	-0.154601 	-6.53994e-05
0.0444945 	36.3385 	-0.155902 	-0.000120701
0.0447487 	36.4147 	-0.157203 	-0.000176002
0.045003 	36.4909 	-0.158504 	-0.000188445
0.0452573 	36.5671 	-0.159805 	-0.000134262
0.0455115 	36.6432 	-0.161107 	-8.00794e-05
0.0457658 	36.7194 	-0.162408 	-2.58967e-05
0.04602 	36.7969 	-0.165074 	5.95908e-12
0.0462743 	36.8757 	-0.166669 	3.21915e-12
0.0465285 	36.9557 	-0.165064 	-1.31753e-05
0.0467828 	37.0377 	-0.166396 	-6.95616e-05
0.047037 	37.1196 	-0.167728 	-0.000125948
0.0472913 	37.2016 	-0.169059 	-0.000182334
0.0475455 	37.2835 	-0.170391 	-0.000205312
0.0477998 	37.3655 	-0.171722 	-0.000150124
0.0480541 	37.4475 	-0.173054 	-9.49357e-05
0.0483083 	37.5294 	-0.174385 	-3.97473e-05
0.0485626 	37.6121 	-0.176514 	6.42991e-12
0.0488168 	37.6968 	-0.178813 	2.19535e-12
0.0490711 	37.7828 	-0.177281 	-1.68321e-05
0.0493253 	37.8708 	-0.178641 	-7.42139e-05
0.0495796 	37.9588 	-0.180001 	-0.000131596
0.0498338 	38.0467 	-0.181361 	-0.000188978
0.0500881 	38.1347 	-0.182722 	-0.000222826
0.0503423 	38.2227 	-0.184082 	-0.00016672
0.0505966 	38.3106 	-0.185442 	-0.000110614
0.0508509 	38.3986 	-0.186802 	-5.45081e-05
0.0511051 	38.4867 	-0.18825 	6.55032e-12
0.0513594 	38.5774 	-0.191339 	1.48594e-12
0.0516136 	38.6698 	-0.189945 	-2.10603e-05
0.0518679 	38.764 	-0.191331 	-7.92948e-05
0.0521221 	38.8582 	-0.192717 	-0.000137529
0.0523764 	38.9524 	-0.194103 	-0.000195764
0.0526306 	39.0466 	-0.195489 	-0.000240729
0.0528849 	39.1408 	-0.196874 	-0.000183844
0.0531391 	39.235 	-0.19826 	-0.00012696
0.0533934 	39.3292 	-0.199646 	-7.00754e-05
0.0536476 	39.4234 	-0.201032 	-1.31909e-05
0.0539019 	39.5198 	-0.204227 	7.01728e-13
0.0541562 	39.6188 	-0.203043 	-2.58228e-05
0.0544104 	39.7195 	-0.20445 	-8.46985e-05
0.0546647 	39.8201 	-0.205857 	-0.000143574
0.0549189 	39.9208 	-0.207264 	-0.00020245
0.0551732 	40.0214 	-0.208671 	-0.000258633
0.0554274 	40.1221 	-0.210078 	-0.000201176
0.0556817 	40.2228 	-0.211485 	-0.000143718
0.0559359 	40.3234 	-0.212891 	-8.62614e-05
0.0561902 	40.4241 	-0.214298 	-2.88043e-05
0.0564444 	40.5261 	-0.217445 	2.57024e-14
0.0566987 	40.632 	-0.216545 	-3.10412e-05
0.056953 	40.7394 	-0.217966 	-9.02615e-05
0.0572072 	40.8467 	-0.219388 	-0.000149482
0.0574615 	40.9541 	-0.22081 	-0.000208702
0.0577157 	41.0614 	-0.222231 	-0.000267922
0.05797 	41.1688 	-0.223653 	-0.00021825
0.0582242 	41.2761 	-0.225074 	-0.000160508
0.0584785 	41.3835 	-0.226496 	-0.000102766
0.0587327 	41.4908 	-0.227918 	-4.50245e-05
0.058987 	41.5988 	-0.230173 	6.53799e-13
0.0592412 	41.7118 	-0.230404 	-3.6667e-05
0.0594955 	41.826 	-0.231835 	-9.59716e-05
0.0597497 	41.9403 	-0.233266 	-0.000155276
0.060004 	42.0545 	-0.234697 	-0.000214581
0.0602583 	42.1687 	-0.236127 	-0.000273886
0.0605125 	42.283 	-0.237558 	-0.000234979
0.0607668 	42.3972 	-0.238989 	-0.000177203
0.061021 	42.5115 	-0.24042 	-0.000119428
0.0612753 	42.6257 	-0.241851 	-6.16517e-05
0.0615295 	42.74 	-0.243282 	-3.87588e-06
0.0617838 	42.8601 	-0.244588 	-4.27024e-05
0.062038 	42.9814 	-0.246025 	-0.000101942
0.0622923 	43.1028 	-0.247462 	-0.000161182
0.0625465 	43.2241 	-0.248899 	-0.000220422
0.0628008 	43.3455 	-0.250336 	-0.000279662
0.0630551 	43.4668 	-0.251681 	-0.000250596
0.0633093 	43.588 	-0.252947 	-0.000191021
0.0635636 	43.7093 	-0.254213 	-0.000131445
0.0638178 	43.8305 	-0.255478 	-7.18698e-05
0.0640721 	43.9518 	-0.256744 	-1.22944e-05
0.0643263 	44.0784 	-0.258076 	-3.86974e-05
0.0645806 	44.207 	-0.259334 	-9.58796e-05
0.0648348 	44.3355 	-0.260592 	-0.000153062
0.0650891 	44.464 	-0.26185 	-0.000210244
0.0653433 	44.5926 	-0.263108 	-0.000267426
0.0655976 	44.7211 	-0.264366 	-0.000247851
0.0658519 	44.8497 	-0.265624 	-0.000188416
0.0661061 	44.9782 	-0.266881 	-0.000128981
0.0663604 	45.1068 	-0.268139 	-6.95455e-05
0.0666146 	45.2353 	-0.269397 	-1.01103e-05
0.0668689 	45.3687 	-0.270888 	-2.64005e-05
0.0671231 	45.5047 	-0.272151 	-8.3923e-05
0.0673774 	45.6407 	-0.273414 	-0.000141446
0.0676316 	45.7767 	-0.274676 	-0.000198968
0.0678859 	45.9128 	-0.275939 	-0.000256491
0.0681401 	46.0488 	-0.277201 	-0.000247097
0.0683944 	46.1848 	-0.278464 	-0.000187255
0.0686486 	46.3208 	-0.279727 	-0.000127412
0.0689029 	46.4568 	-0.280989 	-6.75697e-05
0.0691572 	46.5929 	-0.282252 	-7.72727e-06
0.0694114 	46.7331 	-0.28395 	-1.36374e-05
0.0696657 	46.8768 	-0.285215 	-7.13291e-05
0.0699199 	47.0205 	-0.28648 	-0.000129021
0.0701742 	47.1642 	-0.287745 	-0.000186713
0.0704284 	47.3079 	-0.28901 	-0.000244404
0.0706827 	47.4515 	-0.290275 	-0.000245287
0.0709369 	47.5952 	-0.29154 	-0.000185222
0.0711912 	47.7389 	-0.292805 	-0.000125156
0.0714454 	47.8826 	-0.29407 	-6.50913e-05
0.0716997 	48.0263 	-0.295335 	-5.02609e-06
0.071954 	48.1736 	-0.297274 	-5.2173e-07
0.0722082 	48.3251 	-0.298508 	-5.68758e-05
0.0724625 	48.4766 	-0.299743 	-0.00011323
0.0727167 	48.628 	-0.300978 	-0.000169584
0.072971 	48.7795 	-0.302212 	-0.000225938
0.0732252 	48.931 	-0.303447 	-0.000236841
0.0734795 	49.0825 	-0.304681 	-0.000178131
0.0737337 	49.2339 	-0.305916 	-0.00011942
0.073988 	49.3854 	-0.30715 	-6.07102e-05
0.0742422 	49.5369 	-0.308385 	-1.99995e-06
0.0744965 	49.6921 	-0.310358 	6.02144e-05
0.0747508 	49.8507 	-0.311731 	-4.11599e-05
0.075005 	50.01 	-0.312888 	-9.40714e-05
0.0752593 	50.1693 	-0.314046 	-0.000146983
0.0755135 	50.3287 	-0.315204 	-0.000199894
0.0757678 	50.488 	-0.316361 	-0.000219539
0.076022 	50.6473 	-0.317519 	-0.000164387
0.0762763 	50.8066 	-0.318677 	-0.000109236
0.0765305 	50.9659 	-0.319835 	-5.4085e-05
0.0767848 	51.1253 	-0.320989 	5.8099e-06
0.077039 	51.2883 	-0.322566 	0.000133148
0.0772933 	51.454 	-0.324504 	-2.61394e-05
0.0775475 	51.6211 	-0.325558 	-7.43038e-05
0.0778018 	51.7882 	-0.326612 	-0.000122468
0.0780561 	51.9553 	-0.327666 	-0.000170633
0.0783103 	52.1224 	-0.32872 	-0.000197061
0.0785646 	52.2895 	-0.329774 	-0.000146841
0.0788188 	52.4566 	-0.330828 	-9.66208e-05
0.0790731 	52.6237 	-0.331882 	-4.64008e-05
0.0793273 	52.7911 	-0.332843 	2.42248e-05
0.0795816 	52.9616 	-0.333527 	0.000214689
0.0798358 	53.1343 	-0.336597 	-1.3577e-05
0.0800901 	53.3089 	-0.337577 	-5.82124e-05
0.0803443 	53.4836 	-0.338558 	-0.000102848
0.0805986 	53.6583 	-0.339539 	-0.000147483
0.0808529 	53.833 	-0.34052 	-0.000179881
0.0811071 	54.0077 	-0.341501 	-0.000133334
0.0813614 	54.1824 	-0.342482 	-8.67861e-05
0.0816156 	54.357 	-0.343463 	-4.02386e-05
0.0818699 	54.5321 	-0.34412 	4.55378e-05
0.0821241 	54.71 	-0.343454 	0.000304951
0.0823784 	54.8893 	-0.348209 	-2.48091e-06
0.0826326 	55.0713 	-0.34908 	-4.194e-05
0.0828869 	55.2533 	-0.349951 	-8.1399e-05
0.0831411 	55.4353 	-0.350822 	-0.000120858
0.0833954 	55.6172 	-0.351693 	-0.000156478
0.0836496 	55.7992 	-0.352564 	-0.000115331
0.0839039 	55.9812 	-0.353435 	-7.4183e-05
0.0841582 	56.1631 	-0.354306 	-3.30354e-05
0.0844124 	56.3457 	-0.354456 	6.93796e-05
0.0846667 	56.5306 	-0.351902 	0.000402414
0.0849209 	56.7169 	-0.357735 	6.15291e-05
0.0851752 	56.9053 	-0.359325 	-2.43593e-05
0.0854294 	57.0942 	-0.359979 	-5.40838e-05
0.0856837 	57.2831 	-0.360634 	-8.38083e-05
0.0859379 	57.472 	-0.361288 	-0.000113533
0.0861922 	57.6609 	-0.361943 	-8.49042e-05
0.0864464 	57.8498 	-0.362597 	-5.39159e-05
0.0867007 	58.0387 	-0.363252 	-2.29275e-05
0.086955 	58.2284 	-0.36266 	9.36039e-05
0.0872092 	58.4201 	-0.358526 	0.000453445
0.0874635 	58.6129 	-0.364177 	0.000148227
0.0877177 	58.8072 	-0.367116 	-1.21553e-05
0.087972 	59.0026 	-0.367578 	-3.32999e-05
0.0882262 	59.198 	-0.36804 	-5.44445e-05
0.0884805 	59.3935 	-0.368502 	-7.55891e-05
0.0887347 	59.5889 	-0.368964 	-5.89682e-05
0.088989 	59.7843 	-0.369426 	-3.69356e-05
0.0892432 	59.9797 	-0.369888 	-1.49029e-05
0.0894975 	60.176 	-0.368524 	0.000118568
0.0897518 	60.3742 	-0.363342 	0.000484975
0.090006 	60.573 	-0.368113 	0.000238011
0.0902603 	60.7727 	-0.372585 	-4.54961e-06
0.0905145 	60.974 	-0.37288 	-1.83401e-05
0.0907688 	61.1753 	-0.373175 	-3.21306e-05
0.091023 	61.3766 	-0.37347 	-4.59212e-05
0.0912773 	61.578 	-0.373765 	-3.75259e-05
0.0915315 	61.7793 	-0.37406 	-2.3167e-05
0.0917858 	61.9806 	-0.374355 	-8.80813e-06
0.09204 	62.1828 	-0.372219 	0.000144913
0.0922943 	62.3866 	-0.366223 	0.000519781
0.0925485 	62.5909 	-0.369852 	0.00033248
0.0928028 	62.7955 	-0.375932 	-1.81175e-07
0.0930571 	63.0019 	-0.37596 	-2.29601e-06
0.0933113 	63.2082 	-0.375987 	-4.41084e-06
0.0935656 	63.4145 	-0.376014 	-6.52567e-06
0.0938198 	63.6209 	-0.376041 	-5.61381e-06
0.0940741 	63.8272 	-0.376069 	-3.41408e-06
0.0943283 	64.0336 	-0.376096 	-1.21434e-06
0.0945826 	64.2408 	-0.373075 	0.000168133
0.0948368 	64.4492 	-0.366296 	0.000543484
0.0950911 	64.658 	-0.368491 	0.000421503
0.0953453 	64.8669 	-0.37506 	5.70704e-05
0.0955996 	65.0769 	-0.375843 	9.9353e-06
0.0958539 	65.2871 	-0.375552 	2.17153e-05
0.0961081 	65.4973 	-0.37526 	3.34953e-05
0.0963624 	65.7076 	-0.374969 	3.0513e-05
0.0966166 	65.9178 	-0.374677 	1.82762e-05
0.0968709 	66.128 	-0.374386 	6.03935e-06
0.0971251 	66.339 	-0.370421 	0.000186957
0.0973794 	66.5507 	-0.362876 	0.000556098
0.0976336 	66.7626 	-0.363468 	0.000500763
0.0978879 	66.9747 	-0.369878 	0.000141961
0.0981421 	67.1871 	-0.372043 	1.56492e-05
0.0983964 	67.3997 	-0.371429 	4.15434e-05
0.0986507 	67.6124 	-0.370814 	6.74376e-05
0.0989049 	67.825 	-0.3702 	6.55042e-05
0.0991592 	68.0377 	-0.369586 	3.86493e-05
0.0994134 	68.2503 	-0.368972 	1.17943e-05
0.0996677 	68.4634 	-0.36403 	0.000202067
0.0999219 	68.6767 	-0.355699 	0.000562376
0.100176 	68.8902 	-0.354552 	0.000571635
0.10043 	69.1038 	-0.36077 	0.000220946
0.100685 	69.3172 	-0.364331 	1.52639e-05
0.100939 	69.5305 	-0.363367 	5.65211e-05
0.101193 	69.7437 	-0.362402 	9.77783e-05
0.101447 	69.9569 	-0.361437 	0.000102086
0.101702 	70.1701 	-0.360472 	5.93801e-05
0.101956 	70.3834 	-0.359507 	1.66744e-05
0.10221 	70.5965 	-0.353582 	0.000210783
0.102464 	70.8095 	-0.344482 	0.000556584
0.102719 	71.0226 	-0.341509 	0.000626414
0.102973 	71.2357 	-0.347572 	0.000289311
0.103227 	71.4486 	-0.352596 	7.73452e-06
0.103481 	71.6603 	-0.351329 	6.22891e-05
0.103736 	71.872 	-0.350062 	0.000116844
0.10399 	72.0837 	-0.348796 	0.000132342
0.104244 	72.2954 	-0.347529 	7.5999e-05
0.104498 	72.5071 	-0.346262 	1.96557e-05
0.104753 	72.718 	-0.339414 	0.000214597
0.105007 	72.9285 	-0.329575 	0.000544165
0.105261 	73.139 	-0.324724 	0.000669045
0.105516 	73.3494 	-0.330759 	0.000347178
0.10577 	73.5598 	-0.336795 	2.5311e-05
0.106024 	73.7678 	-0.335783 	6.43872e-05
0.106278 	73.9757 	-0.334169 	0.00013427
0.106533 	74.1836 	-0.332556 	0.000166726
0.106787 	74.3915 	-0.330943 	9.47361e-05
0.107041 	74.5994 	-0.32933 	2.27467e-05
0.107295 	74.8057 	-0.321472 	0.000210042
0.10755 	75.0112 	-0.310729 	0.000517109
0.107804 	75.2167 	-0.303718 	0.000688067
0.108058 	75.422 	-0.30963 	0.000387554
0.108312 	75.6273 	-0.315541 	8.70421e-05
0.108567 	75.83 	-0.315921 	5.79248e-05
0.108821 	76.0316 	-0.314045 	0.000139468
0.109075 	76.2332 	-0.312169 	0.000192098
0.109329 	76.4349 	-0.310293 	0.000108336
0.109584 	76.6365 	-0.308417 	2.45752e-05
0.109838 	76.8356 	-0.299809 	0.000200455
0.110092 	77.0337 	-0.288406 	0.000484142
0.110346 	77.2317 	-0.279337 	0.00069279
0.110601 	77.4294 	-0.285416 	0.00041452
0.110855 	77.627 	-0.291494 	0.000136249
0.111109 	77.8222 	-0.293381 	4.74795e-05
0.111363 	78.0149 	-0.291248 	0.000140509
0.111618 	78.2077 	-0.289115 	0.000217444
0.111872 	78.4004 	-0.286983 	0.000122186
0.112126 	78.5931 	-0.28485 	2.69286e-05
0.11238 	78.7824 	-0.275363 	0.000187586
0.112635 	78.9703 	-0.262977 	0.000449099
0.112889 	79.1581 	-0.251382 	0.000688439
0.113143 	79.3455 	-0.257469 	0.000431273
0.113397 	79.5329 	-0.263557 	0.000174106
0.113652 	79.7182 	-0.266853 	3.60484e-05
0.113906 	79.8992 	-0.264298 	0.00014766
0.11416 	80.0802 	-0.261743 	0.000259271
0.114414 	80.2613 	-0.259188 	0.000146394
0.114669 	80.4423 	-0.256633 	3.2501e-05
0.114923 	80.6188 	-0.246256 	0.000165027
0.115177 	80.7936 	-0.232756 	0.000395951
0.115431 	80.9684 	-0.219255 	0.000626876
0.115686 	81.1425 	-0.224497 	0.000421332
0.11594 	81.3166 	-0.230691 	0.000193628
0.116194 	81.4895 	-0.235534 	1.85069e-05
0.116448 	81.6559 	-0.232707 	0.000142177
0.116703 	81.8222 	-0.229879 	0.000265847
0.116957 	81.9886 	-0.227052 	0.000163807
0.117211 	82.1549 	-0.224225 	3.80719e-05
0.117465 	82.3159 	-0.213239 	0.000142679
0.11772 	82.4746 	-0.198709 	0.000347322
0.117974 	82.6334 	-0.18418 	0.000551966
0.118228 	82.7913 	-0.187697 	0.00040643
0.118482 	82.949 	-0.194143 	0.000204057
0.118737 	83.1068 	-0.200589 	1.68505e-06
0.118991 	83.2556 	-0.197694 	0.000129047
0.119245 	83.4043 	-0.194721 	0.000259178
0.119499 	83.553 	-0.191748 	0.000176097
0.119754 	83.7017 	-0.188775 	4.43069e-05
0.120008 	83.8444 	-0.177565 	0.000123401
0.120262 	83.9842 	-0.162185 	0.0003093
0.120517 	84.1239 	-0.146804 	0.000495199
0.120771 	84.2627 	-0.148466 	0.000396416
0.121025 	84.4013 	-0.155253 	0.000212022
0.121279 	84.54 	-0.16204 	2.76289e-05
0.121534 	84.6698 	-0.160447 	0.000114218
0.121788 	84.7982 	-0.157377 	0.000248566
0.122042 	84.9265 	-0.154307 	0.000187893
0.122296 	85.0549 	-0.151237 	5.23821e-05
0.122551 	85.1769 	-0.140237 	0.000102711
0.122805 	85.2951 	-0.124239 	0.000270144
0.123059 	85.4132 	-0.108242 	0.000437577
0.123313 	85.5305 	-0.107973 	0.000378853
0.123568 	85.6475 	-0.115206 	0.000212258
0.123822 	85.7644 	-0.122439 	4.56627e-05
0.124076 	85.8732 	-0.122226 	9.60001e-05
0.12433 	85.979 	-0.119202 	0.000228249
0.124585 	86.0848 	-0.116178 	0.000193217
0.124839 	86.1906 	-0.113154 	6.03708e-05
0.125093 	86.2903 	-0.102889 	8.20535e-05
0.125347 	86.3849 	-0.0865905 	0.000232456
0.125602 	86.4795 	-0.0702926 	0.000382859
0.125856 	86.5734 	-0.0681209 	0.000357418
0.12611 	86.6669 	-0.0759631 	0.000207324
0.126364 	86.7603 	-0.0838053 	5.72301e-05
0.126619 	86.8465 	-0.0850428 	7.65561e-05
0.126873 	86.9284 	-0.08221 	0.000200292
0.127127 	87.0102 	-0.0793772 	0.000190538
0.127381 	87.092 	-0.0765444 	6.66957e-05
0.127636 	87.1684 	-0.06748 	6.27419e-05
0.12789 	87.2385 	-0.0511428 	0.000198709
0.128144 	87.3086 	-0.0348056 	0.000334676
0.128398 	87.3782 	-0.0307489 	0.000336512
0.128653 	87.4473 	-0.0393107 	0.000200525
0.128907 	87.5163 	-0.0478726 	6.45376e-05
0.129161 	87.5792 	-0.0506098 	5.78478e-05
0.129415 	87.6367 	-0.0480859 	0.000167947
0.12967 	87.6941 	-0.045562 	0.000179627
0.129924 	87.7516 	-0.0430381 	6.96673e-05
0.130178 	87.8047 	-0.0355282 	4.54516e-05
0.130432 	87.8505 	-0.0193972 	0.00016949
0.130687 	87.8963 	-0.00326628 	0.000293528
0.130941 	87.9417 	0.00262967 	0.000317958
0.131195 	87.9865 	-0.00674928 	0.000193731
0.131449 	88.0313 	-0.0161282 	6.95038e-05
0.131704 	88.0713 	-0.0204362 	4.09094e-05
0.131958 	88.105 	-0.0183034 	0.000133777
0.132212 	88.1388 	-0.0161706 	0.000160749
0.132466 	88.1726 	-0.0140379 	6.81343e-05
0.132721 	88.2034 	-0.00828954 	3.07343e-05
0.132975 	88.226 	0.00752179 	0.00014701
0.133229 	88.2487 	0.0233331 	0.000263285
0.133483 	88.2711 	0.0311198 	0.000307559
0.133738 	88.2929 	0.0209792 	0.00019098
0.133992 	88.3147 	0.0108386 	7.44006e-05
0.134246 	88.3328 	0.00500702 	2.77923e-05
0.134501 	88.3444 	0.00677628 	0.000104608
0.134755 	88.3561 	0.00854555 	0.000141054
0.135009 	88.3677 	0.0103148 	6.45538e-05
0.135263 	88.3777 	0.014219 	1.70291e-05
0.135518 	88.3791 	0.0296592 	0.000126073
0.135772 	88.3804 	0.0450993 	0.000235116
0.136026 	88.3817 	0.0548294 	0.000296704
0.13628 	88.3824 	0.0439806 	0.000187261
0.136535 	88.3831 	0.0331319 	7.78184e-05
0.136789 	88.3812 	0.0258424 	1.83489e-05
0.137043 	88.3727 	0.0273115 	8.18489e-05
0.137297 	88.3642 	0.0287806 	0.000123644
0.137552 	88.3558 	0.0302496 	6.049e-05
0.137806 	88.3469 	0.032297 	4.259e-06
0.13806 	88.3292 	0.0474779 	0.000105232
0.138314 	88.3115 	0.0626587 	0.000206204
0.138569 	88.2937 	0.0745108 	0.000281833
0.138823 	88.2755 	0.0631056 	0.000180388
0.139077 	88.2573 	0.0517003 	7.89429e-05
0.139331 	88.2373 	0.0430998 	1.18087e-05
0.139586 	88.2109 	0.0443389 	6.50442e-05
0.13984 	88.1845 	0.0455781 	0.000109847
0.140094 	88.1582 	0.0468172 	5.69712e-05
0.140348 	88.1318 	0.0480563 	4.09561e-06
0.140603 	88.0978 	0.062038 	8.74759e-05
0.140857 	88.0633 	0.0770897 	0.000182296
0.141111 	88.0287 	0.0912497 	0.0002708
0.141365 	87.9937 	0.0794564 	0.000175442
0.14162 	87.9588 	0.0676631 	8.00841e-05
0.141874 	87.9227 	0.0579361 	7.56897e-06
0.142128 	87.8805 	0.0590433 	5.4823e-05
0.142382 	87.8383 	0.0601505 	0.000102077
0.142637 	87.7961 	0.0612577 	5.63677e-05
0.142891 	87.754 	0.0623649 	9.49266e-06
0.143145 	87.706 	0.07458 	7.14255e-05
0.143399 	87.6566 	0.0896157 	0.000160988
0.143654 	87.6072 	0.104651 	0.000250551
0.143908 	87.5575 	0.0941918 	0.000170955
0.144162 	87.5078 	0.0821405 	8.07994e-05
0.144416 	87.4575 	0.0714477 	4.56916e-06
0.144671 	87.4014 	0.0724858 	4.85949e-05
0.144925 	87.3453 	0.073524 	9.26207e-05
0.145179 	87.2892 	0.0745621 	5.81324e-05
0.145433 	87.2331 	0.0756002 	1.45127e-05
0.145688 	87.1727 	0.0859984 	5.62494e-05
0.145942 	87.1103 	0.101063 	0.000140544
0.146196 	87.0478 	0.116128 	0.000224839
0.14645 	86.9851 	0.108001 	0.000165413
0.146705 	86.9224 	0.0957574 	8.04835e-05
0.146959 	86.8594 	0.084207 	2.18743e-06
0.147213 	86.791 	0.0851985 	4.39661e-05
0.147467 	86.7226 	0.0861899 	8.57448e-05
0.147722 	86.6542 	0.0871813 	6.06852e-05
0.147976 	86.5857 	0.0881727 	1.93396e-05
0.14823 	86.5143 	0.0966717 	4.20161e-05
0.148484 	86.4402 	0.111769 	0.000120957
0.148739 	86.3662 	0.126865 	0.000199898
0.148993 	86.292 	0.121128 	0.000158762
0.149247 	86.2177 	0.108716 	7.91591e-05
0.149502 	86.1434 	0.0963789 	2.20485e-07
0.149756 	86.0641 	0.0973227 	3.97184e-05
0.15001 	85.9847 	0.0982666 	7.92163e-05
0.150264 	85.9054 	0.0992105 	6.2759e-05
0.150519 	85.826 	0.100154 	2.3713e-05
0.150773 	85.7447 	0.106656 	2.8776e-05
0.151027 	85.6603 	0.121755 	0.000102054
0.151281 	85.5759 	0.136853 	0.000175333
0.151536 	85.4914 	0.133523 	0.000150633
0.15179 	85.4069 	0.120931 	7.66803e-05
0.152044 	85.3224 	0.108338 	2.72801e-06
0.152298 	85.2335 	0.108719 	3.50496e-05
0.152553 	85.1445 	0.109596 	7.14415e-05
0.152807 	85.0554 	0.110474 	6.29298e-05
0.153061 	84.9664 	0.111351 	2.69906e-05
0.153315 	84.8763 	0.115759 	1.68041e-05
0.15357 	84.7828 	0.130817 	8.42918e-05
0.153824 	84.6892 	0.145875 	0.000151779
0.154078 	84.5957 	0.144955 	0.000141458
0.154332 	84.5021 	0.132159 	7.3299e-05
0.154587 	84.4085 	0.119363 	5.14001e-06
0.154841 	84.3113 	0.119128 	2.99206e-05
0.155095 	84.2138 	0.119918 	6.22816e-05
0.155349 	84.1163 	0.120708 	6.06155e-05
0.155604 	84.0188 	0.121498 	2.8687e-05
0.155858 	83.9209 	0.123729 	6.28335e-06
0.156112 	83.8195 	0.138711 	6.81717e-05
0.156366 	83.7181 	0.153694 	0.00013006
0.156621 	83.6167 	0.155188 	0.000131996
0.156875 	83.5152 	0.142175 	6.94499e-05
0.157129 	83.4138 	0.129161 	6.90337e-06
0.157383 	83.3094 	0.128337 	2.46747e-05
0.157638 	83.2047 	0.129026 	5.24105e-05
0.157892 	83.0999 	0.129714 	5.60322e-05
0.158146 	82.9952 	0.130403 	2.86903e-05
0.1584 	82.8905 	0.131092 	1.34845e-06
0.158655 	82.7826 	0.145277 	5.39316e-05
0.158909 	82.6745 	0.160162 	0.000110661
0.159163 	82.5665 	0.164083 	0.000122891
0.159417 	82.4584 	0.150854 	6.55232e-05
0.159672 	82.3504 	0.137625 	8.15531e-06
0.159926 	82.2401 	0.136244 	1.96559e-05
0.16018 	82.1294 	0.136827 	4.25691e-05
0.160434 	82.0187 	0.137409 	4.97254e-05
0.160689 	81.908 	0.137992 	2.7155e-05
0.160943 	81.7972 	0.138575 	4.58473e-06
0.161197 	81.6843 	0.150467 	4.15355e-05
0.161451 	81.5709 	0.165242 	9.36585e-05
0.161706 	81.4575 	0.171604 	0.000114505
0.16196 	81.3442 	0.158174 	6.17663e-05
0.162214 	81.2308 	0.144744 	9.02728e-06
0.162468 	81.1158 	0.142841 	1.50315e-05
0.162723 	81.0004 	0.143318 	3.31671e-05
0.162977 	80.8849 	0.143796 	4.21221e-05
0.163231 	80.7695 	0.144273 	2.42701e-05
0.163485 	80.6541 	0.14475 	6.41797e-06
0.16374 	80.5373 	0.154307 	3.07808e-05
0.163994 	80.4197 	0.168961 	7.88384e-05
0.164248 	80.3022 	0.177777 	0.000106921
0.164503 	80.1848 	0.164166 	5.82722e-05
0.164757 	80.0674 	0.150556 	9.6229e-06
0.165011 	79.9488 	0.148165 	1.08482e-05
0.165265 	79.8299 	0.14854 	2.43711e-05
0.16552 	79.711 	0.148916 	3.34991e-05
0.165774 	79.5921 	0.149291 	2.01954e-05
0.166028 	79.4732 	0.149667 	6.89184e-06
0.166282 	79.3535 	0.15686 	2.14245e-05
0.166537 	79.2331 	0.171381 	6.58771e-05
0.166791 	79.1127 	0.182652 	0.000100052
0.167045 	78.9924 	0.16889 	5.50333e-05
0.167299 	78.8722 	0.155127 	1.00145e-05
0.167554 	78.7512 	0.152282 	7.09747e-06
0.167808 	78.63 	0.15256 	1.62254e-05
0.168062 	78.5087 	0.152838 	2.40389e-05
0.168316 	78.3875 	0.153116 	1.50636e-05
0.168571 	78.2663 	0.153394 	6.08826e-06
0.168825 	78.1447 	0.158207 	1.32582e-05
0.169079 	78.0225 	0.17258 	5.44746e-05
0.169333 	77.9003 	0.186297 	9.37637e-05
0.169588 	77.7783 	0.172413 	5.20076e-05
0.169842 	77.6563 	0.15853 	1.02516e-05
0.170096 	77.534 	0.155263 	3.80028e-06
0.17035 	77.4115 	0.15545 	8.83708e-06
0.170605 	77.2891 	0.155637 	1.38739e-05
0.170859 	77.1666 	0.155825 	9.10889e-06
0.171113 	77.0442 	0.156012 	4.15838e-06
0.171367 	76.9216 	0.158443 	6.10969e-06
0.171622 	76.7987 	0.172655 	4.42901e-05
0.171876 	76.6757 	0.186866 	8.24705e-05
0.17213 	76.553 	0.174832 	4.90359e-05
0.172384 	76.4303 	0.160871 	1.03444e-05
0.172639 	76.3076 	0.157213 	9.01528e-07
0.172893 	76.1849 	0.157316 	2.13196e-06
0.173147 	76.0621 	0.157418 	3.36239e-06
0.173401 	75.9394 	0.15752 	2.42111e-06
0.173656 	75.8167 	0.157623 	1.21216e-06
0.17391 	75.6939 	0.157725 	3.2178e-09
0.174164 	75.5711 	0.171709 	3.4975e-05
0.174418 	75.4483 	0.185729 	7.00415e-05
0.174673 	75.3258 	0.176217 	4.57931e-05
0.174927 	75.2033 	0.162224 	1.02493e-05
0.175181 	75.0811 	0.158207 	-1.58311e-06
0.175435 	74.9589 	0.158231 	-3.80777e-06
0.17569 	74.8368 	0.158256 	-6.03243e-06
0.175944 	74.7146 	0.158281 	-4.73293e-06
0.176198 	74.5925 	0.158306 	-2.54766e-06
0.176452 	74.4704 	0.158331 	-3.62396e-07
0.176707 	74.3485 	0.169848 	2.64007e-05
0.176961 	74.2266 	0.183651 	5.80508e-05
0.177215 	74.1051 	0.176672 	4.19962e-05
0.177469 	73.9836 	0.16271 	9.91021e-06
0.177724 	73.8625 	0.158366 	-3.72263e-06
0.177978 	73.7417 	0.158319 	-9.10895e-06
0.178232 	73.6209 	0.158273 	-1.44953e-05
0.178486 	73.5001 	0.158226 	-1.23224e-05