/*--------------------------------*- C++ -*----------------------------------*\
| =========                 |                                                 |
| \\      /  F ield         | OpenFOAM: The Open Source CFD Toolbox           |
|  \\    /   O peration     | Version:  v3.0+                                 |
|   \\  /    A nd           | Web:      www.OpenFOAM.com                      |
|    \\/     M anipulation  |                                                 |
\*---------------------------------------------------------------------------*/
FoamFile
{
    version     2.0;
    format      ascii;
    class       volVectorField;
    location    "9000";
    object      D;
}
// * * * * * * * * * * * * * * * * * * * * * * * * * * * * * * * * * * * * * //

dimensions      [0 1 0 0 0 0 0];

internalField   nonuniform List<vector> 
27023
(
(7.30056e-07 2.09962e-07 0)
(-7.30436e-07 2.09963e-07 0)
(-5.85782e-07 1.55289e-07 0)
(5.85467e-07 1.55259e-07 0)
(7.19883e-07 2.02708e-07 0)
(-7.20261e-07 2.02714e-07 0)
(-2.62943e-06 1.98325e-06 0)
(2.62866e-06 1.98331e-06 0)
(-3.40031e-07 9.21069e-08 0)
(3.39796e-07 9.19642e-08 0)
(-1.88522e-06 1.13111e-06 0)
(1.88451e-06 1.13122e-06 0)
(-7.95159e-08 6.7144e-08 0)
(7.94493e-08 6.69113e-08 0)
(1.39364e-06 4.67533e-06 0)
(-5.90249e-08 5.18278e-07 0)
(-7.28735e-08 4.89089e-07 0)
(2.72616e-06 4.16755e-06 0)
(-2.72699e-06 4.16755e-06 0)
(-1.92347e-06 3.64237e-06 0)
(1.92264e-06 3.64237e-06 0)
(-2.653e-06 2.01166e-06 0)
(2.65223e-06 2.01172e-06 0)
(-1.68254e-06 1.67709e-06 0)
(1.68175e-06 1.67714e-06 0)
(-3.66678e-07 3.17299e-06 0)
(1.14715e-06 1.1389e-06 0)
(-1.02242e-06 7.99483e-05 0)
(1.17316e-06 1.16574e-06 0)
(-3.90423e-06 2.12223e-05 0)
(-6.93535e-07 3.39256e-06 0)
(-1.96513e-06 3.68352e-06 0)
(1.96431e-06 3.68352e-06 0)
(2.66416e-06 6.8935e-06 0)
(1.41163e-06 4.74929e-06 0)
(-2.65295e-06 1.07045e-05 0)
(-1.60963e-06 2.80624e-06 0)
(1.60882e-06 2.80626e-06 0)
(-3.49651e-07 9.42276e-08 0)
(3.49445e-07 9.41131e-08 0)
(5.74478e-07 1.51842e-07 0)
(-5.74788e-07 1.51875e-07 0)
(2.4223e-06 2.08866e-05 0)
(7.34323e-07 2.09346e-07 0)
(-7.34706e-07 2.0935e-07 0)
(-2.76463e-06 4.21671e-06 0)
(2.7638e-06 4.21672e-06 0)
(-1.73792e-06 2.32078e-06 0)
(1.73712e-06 2.32081e-06 0)
(-2.51553e-06 1.07288e-05 0)
(-1.70087e-06 2.30073e-06 0)
(1.70007e-06 2.30076e-06 0)
(2.73367e-06 6.984e-06 0)
(-6.88293e-08 3.25028e-08 0)
(6.87324e-08 3.23285e-08 0)
(-2.95041e-06 6.8041e-06 0)
(-3.06689e-06 2.78674e-05 0)
(-1.26024e-05 0.000111441 0)
(1.41968e-06 1.08878e-05 0)
(-5.80582e-07 1.53989e-07 0)
(5.8027e-07 1.53966e-07 0)
(-3.60129e-06 2.11121e-05 0)
(-1.95573e-07 4.27618e-06 0)
(-1.45989e-06 7.62335e-05 0)
(2.66061e-06 2.11217e-05 0)
(-6.49052e-07 3.38392e-06 0)
(-1.83906e-06 4.19019e-06 0)
(-4.04646e-07 3.16358e-06 0)
(1.12541e-06 7.17138e-07 0)
(1.56447e-06 1.08831e-05 0)
(-1.57542e-06 2.81253e-06 0)
(1.57461e-06 2.81256e-06 0)
(-2.26619e-06 2.1765e-06 0)
(2.2654e-06 2.17654e-06 0)
(-3.85628e-06 3.9979e-06 0)
(3.85545e-06 3.9979e-06 0)
(-4.48883e-08 4.77694e-08 0)
(4.48497e-08 4.75697e-08 0)
(3.20161e-06 2.66787e-06 0)
(-3.20241e-06 2.66784e-06 0)
(1.00419e-06 2.0798e-06 0)
(-1.8709e-06 1.12326e-06 0)
(1.87018e-06 1.12337e-06 0)
(-2.2448e-06 2.18529e-06 0)
(2.24401e-06 2.18533e-06 0)
(4.21826e-06 4.254e-06 0)
(-4.21909e-06 4.254e-06 0)
(1.84003e-06 4.18431e-06 0)
(-1.36453e-07 8.09484e-05 0)
(1.7333e-05 0.000251978 0)
(-1.6814e-05 0.000251834 0)
(-8.02511e-07 2.27832e-07 0)
(8.02094e-07 2.27828e-07 0)
(-6.65577e-07 5.48082e-07 0)
(1.29714e-07 5.13705e-08 0)
(1.62388e-06 1.5092e-06 0)
(-1.62467e-06 1.50914e-06 0)
(1.02496e-06 2.05781e-06 0)
(1.84215e-06 1.62369e-05 0)
(-3.35327e-08 1.30104e-05 0)
(3.64303e-06 2.30906e-05 0)
(1.74216e-05 0.000255611 0)
(-1.65771e-05 0.000255709 0)
(-2.35672e-06 1.84197e-06 0)
(2.35595e-06 1.84203e-06 0)
(-2.07773e-07 1.29246e-05 0)
(-2.63633e-06 2.12972e-06 0)
(2.63555e-06 2.12977e-06 0)
(-2.96709e-06 6.72677e-06 0)
(-1.3481e-05 0.000112892 0)
(-2.73017e-06 2.8206e-05 0)
(-2.62775e-06 2.14098e-06 0)
(2.62697e-06 2.14103e-06 0)
(-1.64852e-06 1.64734e-06 0)
(1.64773e-06 1.64739e-06 0)
(-3.87315e-06 4.05135e-06 0)
(3.87232e-06 4.05135e-06 0)
(-6.2422e-07 2.52662e-08 0)
(1.05143e-06 3.45298e-07 0)
(1.15874e-06 3.15348e-06 0)
(-1.13231e-06 5.53187e-06 0)
(-1.43887e-07 4.26488e-06 0)
(1.80995e-06 1.016e-06 0)
(-1.81059e-06 1.0159e-06 0)
(-2.83463e-06 2.16628e-06 0)
(2.83384e-06 2.16633e-06 0)
(-8.05321e-07 2.25111e-07 0)
(8.04899e-07 2.25104e-07 0)
(-2.33051e-06 1.81032e-06 0)
(2.32974e-06 1.81039e-06 0)
(1.61584e-06 1.60881e-05 0)
(1.21602e-08 2.46508e-08 0)
(-1.19997e-08 2.4071e-08 0)
(6.82605e-07 3.50044e-06 0)
(-1.06328e-06 5.54602e-06 0)
(4.24789e-06 4.30739e-06 0)
(-4.24872e-06 4.3074e-06 0)
(-3.4989e-07 1.78215e-06 0)
(-2.65719e-06 3.76219e-06 0)
(2.65636e-06 3.76219e-06 0)
(2.3902e-06 1.70047e-06 0)
(-2.39096e-06 1.70039e-06 0)
(2.37566e-07 1.96338e-06 0)
(-2.54625e-06 1.90252e-06 0)
(2.54548e-06 1.90258e-06 0)
(6.85042e-07 3.55206e-06 0)
(2.56741e-06 2.94911e-05 0)
(-1.36957e-06 9.22487e-07 0)
(-1.88555e-06 4.22209e-06 0)
(-1.12548e-06 4.23426e-07 0)
(1.12497e-06 4.23467e-07 0)
(-1.32273e-06 5.35282e-07 0)
(1.32215e-06 5.35333e-07 0)
(2.83708e-06 1.68213e-05 0)
(1.20342e-06 3.14598e-06 0)
(1.2873e-05 0.00015005 0)
(-1.27798e-05 0.000149993 0)
(-1.45765e-06 4.79179e-06 0)
(-2.66038e-06 3.72123e-06 0)
(2.65956e-06 3.72124e-06 0)
(5.02859e-06 1.37541e-05 0)
(3.03966e-06 2.95595e-05 0)
(9.57743e-06 4.75856e-05 0)
(-3.51764e-07 1.19229e-05 0)
(1.52178e-06 7.13306e-07 0)
(-1.52238e-06 7.13235e-07 0)
(2.22305e-06 1.52546e-06 0)
(-2.22379e-06 1.52537e-06 0)
(7.45249e-07 2.15104e-06 0)
(-7.5792e-08 2.10526e-06 0)
(-1.49523e-06 7.50559e-05 0)
(3.17437e-06 2.63412e-06 0)
(-3.17517e-06 2.6341e-06 0)
(1.05581e-05 0.000150501 0)
(-1.04795e-05 0.000150411 0)
(7.60596e-06 8.16533e-05 0)
(-2.30327e-07 1.18341e-05 0)
(2.46738e-07 1.93391e-06 0)
(6.388e-06 8.17913e-05 0)
(-3.80005e-07 1.76103e-06 0)
(1.88802e-06 4.21613e-06 0)
(2.36584e-06 1.68595e-06 0)
(-2.36659e-06 1.68587e-06 0)
(3.47584e-06 2.34313e-05 0)
(3.20291e-06 6.25319e-06 0)
(3.293e-06 6.25891e-06 0)
(1.5918e-06 1.50654e-06 0)
(-1.59259e-06 1.50648e-06 0)
(9.29313e-06 4.81635e-05 0)
(2.73906e-06 3.97189e-05 0)
(2.20543e-06 1.50165e-06 0)
(-2.20617e-06 1.50156e-06 0)
(9.19134e-07 1.71497e-06 0)
(-3.32563e-07 7.43689e-06 0)
(-2.83165e-06 2.17707e-06 0)
(2.83087e-06 2.17712e-06 0)
(7.55327e-06 2.32453e-05 0)
(2.09351e-06 1.35374e-06 0)
(-2.09424e-06 1.35364e-06 0)
(1.02779e-06 3.37668e-07 0)
(-1.51834e-06 4.82314e-06 0)
(1.10624e-06 7.32907e-07 0)
(-4.3815e-06 5.05566e-06 0)
(4.38065e-06 5.05566e-06 0)
(7.19421e-07 2.0043e-07 0)
(-7.198e-07 2.00439e-07 0)
(9.69769e-07 2.99605e-06 0)
(5.45854e-06 1.32772e-05 0)
(-4.30965e-06 5.00769e-06 0)
(4.3088e-06 5.00769e-06 0)
(-4.45337e-10 1.03882e-08 0)
(4.42434e-10 1.03391e-08 0)
(-6.25878e-07 5.26511e-07 0)
(1.0121e-06 3.01472e-06 0)
(3.66707e-07 1.0352e-07 0)
(-3.66905e-07 1.03701e-07 0)
(1.05381e-06 1.66321e-06 0)
(-1.04049e-07 2.08403e-06 0)
(-9.79955e-07 4.86125e-05 0)
(3.45941e-06 3.26136e-06 0)
(-3.46023e-06 3.26135e-06 0)
(2.95012e-06 4.03976e-05 0)
(1.82727e-06 1.03265e-06 0)
(-1.82791e-06 1.03256e-06 0)
(2.81013e-06 1.70671e-05 0)
(-3.10216e-06 3.18173e-06 0)
(3.10135e-06 3.18174e-06 0)
(-2.20579e-06 1.96911e-06 0)
(2.205e-06 1.96916e-06 0)
(-1.95461e-07 6.98328e-08 0)
(1.95327e-07 6.96569e-08 0)
(-2.83221e-06 0.000114356 0)
(-3.20938e-06 3.24534e-06 0)
(3.20857e-06 3.24535e-06 0)
(4.86445e-06 1.35571e-05 0)
(-3.51558e-06 3.89137e-06 0)
(3.51476e-06 3.89137e-06 0)
(-6.02883e-06 8.4668e-06 0)
(-2.00536e-06 6.12834e-06 0)
(2.69181e-06 2.00642e-06 0)
(-2.69258e-06 2.00637e-06 0)
(-1.15889e-06 8.75237e-07 0)
(-8.62732e-06 3.34514e-05 0)
(-4.28615e-06 9.68884e-06 0)
(2.35945e-06 5.21803e-06 0)
(-6.58401e-07 3.32034e-07 0)
(8.766e-08 2.79763e-05 0)
(1.05213e-06 1.01596e-06 0)
(-5.35154e-06 1.99351e-05 0)
(2.39918e-06 5.29339e-06 0)
(2.95565e-06 2.47858e-06 0)
(-2.95644e-06 2.47855e-06 0)
(2.14069e-06 1.53919e-05 0)
(5.58235e-07 8.89738e-07 0)
(7.60334e-06 2.42095e-05 0)
(5.44624e-06 1.34609e-05 0)
(-5.07751e-06 8.59096e-06 0)
(5.64363e-06 1.63948e-05 0)
(-2.1923e-06 3.80358e-06 0)
(2.19147e-06 3.80359e-06 0)
(-5.53329e-07 -8.71158e-09 0)
(-1.39906e-07 1.47677e-06 0)
(-1.20112e-05 6.23674e-05 0)
(-3.5603e-06 3.88044e-06 0)
(3.55947e-06 3.88045e-06 0)
(-2.57047e-06 1.92792e-06 0)
(2.5697e-06 1.92798e-06 0)
(-3.94957e-07 4.94168e-06 0)
(4.41798e-07 8.82339e-07 0)
(-1.79114e-06 9.88274e-07 0)
(1.79049e-06 9.8837e-07 0)
(-6.38823e-06 4.42332e-05 0)
(1.02861e-06 4.06298e-06 0)
(2.94902e-06 9.57822e-06 0)
(-1.03956e-06 1.88104e-05 0)
(-2.85419e-07 7.53656e-06 0)
(1.53807e-06 7.28666e-07 0)
(-1.53868e-06 7.28593e-07 0)
(2.28547e-06 4.1622e-06 0)
(-2.2863e-06 4.16219e-06 0)
(-6.8669e-06 3.40696e-05 0)
(3.74295e-06 9.86881e-06 0)
(-1.29275e-05 0.000272251 0)
(1.28114e-05 0.000271971 0)
(5.16717e-09 4.21576e-08 0)
(-5.14266e-09 4.23587e-08 0)
(1.36547e-06 8.47152e-06 0)
(2.22617e-06 1.12612e-05 0)
(-3.65398e-07 3.04593e-07 0)
(-1.21283e-06 4.51565e-07 0)
(-3.60983e-06 0.000225294 0)
(1.48484e-06 8.60927e-06 0)
(2.91354e-06 2.90519e-06 0)
(-2.91435e-06 2.90517e-06 0)
(3.92103e-06 3.87245e-06 0)
(-3.92186e-06 3.87245e-06 0)
(4.81145e-06 1.96159e-05 0)
(-4.26302e-06 8.84676e-06 0)
(4.19407e-06 4.68641e-06 0)
(-4.19491e-06 4.68642e-06 0)
(-7.17295e-08 7.56284e-08 0)
(-2.40725e-07 5.68991e-07 0)
(2.29278e-06 1.6609e-06 0)
(-2.29354e-06 1.66082e-06 0)
(3.01215e-07 -9.96559e-09 0)
(-5.2386e-07 1.20821e-07 0)
(5.23567e-07 1.20744e-07 0)
(-1.0764e-06 1.65571e-06 0)
(-1.57105e-06 5.25144e-06 0)
(6.52397e-07 2.69567e-05 0)
(-7.62321e-07 6.83299e-05 0)
(-9.69227e-09 3.9146e-08 0)
(9.72261e-09 3.8949e-08 0)
(-2.40398e-07 5.45735e-08 0)
(2.40246e-07 5.4443e-08 0)
(-4.09346e-06 1.77504e-05 0)
(1.88542e-06 3.00356e-06 0)
(-1.88624e-06 3.00354e-06 0)
(-6.46572e-08 3.1431e-06 0)
(-1.75725e-06 6.51167e-06 0)
(-1.17303e-07 8.19299e-08 0)
(1.1719e-07 8.16386e-08 0)
(1.26533e-06 1.23557e-06 0)
(7.83392e-07 1.81504e-07 0)
(6.19039e-07 2.77006e-08 0)
(-2.09477e-06 8.51733e-06 0)
(6.96805e-06 1.55496e-05 0)
(-4.68118e-07 4.9619e-06 0)
(-1.33194e-06 9.0102e-07 0)
(1.50016e-06 8.54647e-07 0)
(6.11464e-07 1.34126e-06 0)
(-1.50071e-06 8.55057e-07 0)
(8.05178e-06 1.67744e-05 0)
(-1.25332e-07 5.17812e-08 0)
(-3.77338e-06 1.77e-05 0)
(9.765e-07 3.39131e-07 0)
(-9.76962e-07 3.39105e-07 0)
(6.94872e-07 3.23085e-06 0)
(-3.26369e-07 5.99293e-07 0)
(-2.42073e-06 2.0453e-06 0)
(2.41995e-06 2.04535e-06 0)
(1.10984e-05 4.2187e-05 0)
(-1.11447e-05 4.21966e-05 0)
(-7.37725e-10 1.0156e-08 0)
(7.33492e-10 1.01079e-08 0)
(1.06089e-06 7.13931e-07 0)
(-7.61384e-07 2.32279e-07 0)
(7.60997e-07 2.3229e-07 0)
(3.992e-06 3.89588e-05 0)
(-5.82996e-07 4.51412e-06 0)
(7.84428e-06 3.73922e-05 0)
(-7.84521e-06 3.73923e-05 0)
(-3.26247e-06 3.26663e-06 0)
(3.26166e-06 3.26664e-06 0)
(-5.15639e-08 2.92772e-08 0)
(5.15029e-08 2.9115e-08 0)
(-1.93614e-07 1.05182e-07 0)
(3.11792e-06 2.64741e-06 0)
(-3.11872e-06 2.64738e-06 0)
(3.91e-07 9.98955e-06 0)
(1.18316e-06 4.97178e-07 0)
(4.0689e-06 4.73218e-06 0)
(-4.06973e-06 4.73219e-06 0)
(2.26218e-06 1.50535e-06 0)
(-2.26292e-06 1.50526e-06 0)
(-4.97091e-06 0.000110715 0)
(3.69185e-06 1.7355e-05 0)
(2.01591e-07 6.77171e-07 0)
(9.0718e-07 2.84009e-07 0)
(-9.07629e-07 2.83997e-07 0)
(3.2162e-06 2.76068e-06 0)
(-3.217e-06 2.76066e-06 0)
(5.51098e-07 3.05256e-07 0)
(3.11863e-06 5.72291e-06 0)
(6.04797e-07 1.68883e-08 0)
(4.03722e-06 8.6391e-06 0)
(3.11643e-06 5.79982e-06 0)
(1.28334e-06 1.8445e-06 0)
(9.30104e-06 6.49668e-05 0)
(-1.47038e-06 2.50038e-06 0)
(-1.67905e-06 6.45708e-06 0)
(1.46958e-06 2.50037e-06 0)
(-2.6992e-06 2.06913e-06 0)
(2.69842e-06 2.06918e-06 0)
(1.04966e-06 1.07796e-06 0)
(-4.76452e-07 2.05853e-06 0)
(-3.16591e-06 3.88914e-05 0)
(5.92241e-06 1.65984e-05 0)
(1.42631e-06 9.34698e-07 0)
(7.78309e-08 -1.2446e-07 0)
(9.74383e-07 8.16101e-07 0)
(-6.92752e-06 0.000225567 0)
(-1.18418e-06 4.97293e-07 0)
(-5.57931e-06 0.000250403 0)
(-3.45447e-08 4.5935e-07 0)
(6.47635e-07 1.08365e-05 0)
(-2.02888e-06 5.87922e-06 0)
(-2.69731e-06 2.53492e-05 0)
(6.77422e-06 1.14041e-05 0)
(2.21314e-06 5.89154e-06 0)
(-2.18791e-06 1.97953e-06 0)
(2.18713e-06 1.97958e-06 0)
(-7.65681e-07 3.99322e-07 0)
(9.31297e-07 1.68528e-06 0)
(-2.23807e-06 6.82644e-05 0)
(9.38933e-07 2.94354e-07 0)
(-9.39396e-07 2.94343e-07 0)
(-2.03237e-08 2.54332e-06 0)
(-9.88628e-07 4.67656e-06 0)
(1.46579e-06 1.29834e-06 0)
(-9.9888e-08 3.15328e-06 0)
(-1.46439e-06 1.29813e-06 0)
(-1.76682e-09 3.06702e-08 0)
(1.7691e-09 3.05326e-08 0)
(4.18485e-06 6.00101e-05 0)
(-3.08283e-06 7.66638e-06 0)
(-1.06253e-06 3.01608e-07 0)
(-3.19338e-06 5.4724e-06 0)
(-2.21962e-06 8.43635e-06 0)
(2.45549e-06 6.3583e-06 0)
(-6.8195e-07 1.77981e-06 0)
(3.63081e-06 8.50642e-06 0)
(-4.76232e-07 -4.21772e-08 0)
(-2.39541e-07 1.92998e-06 0)
(-1.10257e-06 4.93511e-05 0)
(5.83335e-06 9.92542e-06 0)
(4.02074e-06 4.65643e-06 0)
(-4.02158e-06 4.65644e-06 0)
(7.68099e-06 1.80322e-05 0)
(-7.92602e-07 1.89849e-05 0)
(-1.30458e-05 6.27856e-05 0)
(1.06767e-06 1.63442e-06 0)
(-3.69576e-06 4.21536e-06 0)
(3.69493e-06 4.21536e-06 0)
(2.1148e-06 2.2917e-06 0)
(-2.11559e-06 2.29167e-06 0)
(-3.73225e-06 7.58638e-06 0)
(-1.3032e-07 -1.16396e-07 0)
(-4.16905e-07 1.01017e-07 0)
(4.16676e-07 1.00956e-07 0)
(1.20499e-05 3.78986e-05 0)
(-1.20512e-05 3.78988e-05 0)
(-2.23057e-06 3.31183e-06 0)
(2.22975e-06 3.31185e-06 0)
(-6.86771e-10 1.73866e-08 0)
(6.8955e-10 1.74673e-08 0)
(6.74019e-07 1.72026e-06 0)
(9.95737e-07 9.13729e-06 0)
(2.6804e-06 5.91356e-06 0)
(1.023e-07 -9.7112e-08 0)
(3.83823e-07 -2.02485e-08 0)
(2.0671e-06 1.29846e-06 0)
(-2.06782e-06 1.29836e-06 0)
(2.09433e-06 1.32671e-06 0)
(-2.09505e-06 1.32661e-06 0)
(-2.6054e-06 4.78616e-06 0)
(2.60456e-06 4.78615e-06 0)
(-1.25118e-06 5.06815e-07 0)
(1.25064e-06 5.06866e-07 0)
(4.41358e-07 1.64049e-06 0)
(-3.02493e-08 1.89424e-06 0)
(5.3976e-07 3.98919e-06 0)
(3.18273e-06 8.78334e-06 0)
(-7.70876e-07 1.37658e-06 0)
(-8.8502e-06 3.39638e-05 0)
(1.18169e-06 6.56325e-06 0)
(2.72225e-06 2.04431e-06 0)
(-2.72303e-06 2.04426e-06 0)
(3.48215e-06 9.00817e-06 0)
(-3.88587e-06 3.88646e-05 0)
(-4.52684e-06 8.69304e-05 0)
(-5.0864e-06 1.01961e-05 0)
(-3.62748e-06 7.30003e-06 0)
(1.27539e-06 1.16356e-06 0)
(6.13094e-07 3.1377e-06 0)
(-2.81347e-06 2.70214e-06 0)
(2.81267e-06 2.70217e-06 0)
(6.39867e-06 8.65901e-05 0)
(-6.19311e-06 8.65987e-05 0)
(-5.45529e-07 1.41825e-07 0)
(5.4523e-07 1.41763e-07 0)
(-3.18916e-06 3.25893e-06 0)
(3.18835e-06 3.25894e-06 0)
(-1.1249e-07 3.62225e-06 0)
(-4.65713e-07 1.40013e-06 0)
(6.336e-07 3.10811e-06 0)
(-5.8751e-07 8.46437e-09 0)
(-9.81471e-06 2.40683e-05 0)
(-6.45858e-06 0.000182005 0)
(1.84177e-06 1.06594e-06 0)
(-1.84247e-06 1.06583e-06 0)
(1.93883e-06 6.2666e-06 0)
(-1.21337e-06 4.44628e-07 0)
(-1.0779e-07 3.67845e-06 0)
(1.89012e-06 3.04447e-06 0)
(-1.89094e-06 3.04446e-06 0)
(-8.46211e-07 2.66478e-07 0)
(8.4579e-07 2.66491e-07 0)
(-9.74868e-07 8.04344e-07 0)
(7.42954e-06 1.80351e-05 0)
(2.37591e-06 6.38701e-06 0)
(8.84483e-07 2.10745e-07 0)
(-8.84984e-07 2.1077e-07 0)
(6.68825e-06 3.47691e-05 0)
(2.51642e-07 6.3255e-07 0)
(-1.55075e-06 2.36752e-06 0)
(1.54996e-06 2.36754e-06 0)
(1.25486e-06 1.81034e-06 0)
(-2.29563e-06 1.52216e-06 0)
(2.2949e-06 1.52225e-06 0)
(-1.93091e-06 1.18008e-06 0)
(1.93019e-06 1.18019e-06 0)
(1.43888e-06 1.04499e-06 0)
(1.62669e-06 8.3397e-07 0)
(-1.6273e-06 8.3389e-07 0)
(1.37623e-06 6.17632e-06 0)
(3.23663e-06 1.50788e-05 0)
(-3.49274e-06 4.19328e-06 0)
(3.49191e-06 4.19328e-06 0)
(3.19328e-06 5.47411e-06 0)
(3.95525e-06 4.42875e-06 0)
(-3.95608e-06 4.42875e-06 0)
(-7.49333e-06 3.39634e-05 0)
(2.64169e-06 2.48386e-06 0)
(-2.64248e-06 2.48383e-06 0)
(2.33501e-06 4.19633e-06 0)
(-2.33585e-06 4.19632e-06 0)
(5.7756e-07 3.5709e-06 0)
(-1.36724e-06 6.37767e-07 0)
(1.36669e-06 6.37829e-07 0)
(1.18786e-05 7.94134e-05 0)
(6.63057e-07 1.10136e-05 0)
(4.26345e-07 3.54904e-06 0)
(5.02813e-07 2.0722e-06 0)
(-1.83121e-06 1.54098e-06 0)
(1.83043e-06 1.54105e-06 0)
(3.08536e-06 2.65006e-06 0)
(-3.08616e-06 2.65003e-06 0)
(2.05436e-06 6.28428e-06 0)
(7.5616e-06 2.29273e-05 0)
(-1.28418e-06 1.84465e-06 0)
(-4.16308e-07 4.00032e-05 0)
(1.31e-06 9.26922e-07 0)
(1.28639e-06 1.1358e-06 0)
(-6.42161e-06 8.48514e-05 0)
(4.0844e-07 9.81205e-08 0)
(-4.08665e-07 9.81827e-08 0)
(8.93041e-06 2.34918e-05 0)
(3.94516e-06 3.92426e-06 0)
(-3.94598e-06 3.92426e-06 0)
(-7.01968e-06 4.47937e-05 0)
(-1.43479e-07 3.5119e-06 0)
(2.42527e-06 2.07401e-06 0)
(-2.42605e-06 2.07396e-06 0)
(1.17419e-06 4.77887e-07 0)
(7.73109e-06 3.78871e-05 0)
(-7.73205e-06 3.78873e-05 0)
(-4.11089e-08 2.57294e-06 0)
(-1.05006e-07 -1.38341e-07 0)
(1.71888e-06 1.81836e-05 0)
(1.08963e-06 1.09325e-06 0)
(1.75166e-06 6.06165e-06 0)
(-1.56063e-06 2.33238e-06 0)
(1.55984e-06 2.33239e-06 0)
(5.01871e-06 1.98784e-05 0)
(1.71188e-08 3.97836e-07 0)
(-2.79061e-06 3.35861e-06 0)
(2.7898e-06 3.35862e-06 0)
(-8.37235e-07 5.40396e-06 0)
(1.93875e-06 3.77983e-06 0)
(-1.93957e-06 3.77982e-06 0)
(6.87932e-07 5.17824e-06 0)
(-9.17881e-07 3.16271e-07 0)
(9.17442e-07 3.16296e-07 0)
(2.08049e-06 1.35045e-06 0)
(-2.08123e-06 1.35035e-06 0)
(1.02821e-06 3.93109e-07 0)
(-1.02868e-06 3.93069e-07 0)
(-4.56133e-06 1.57597e-05 0)
(1.14468e-06 1.64051e-06 0)
(-1.14832e-06 1.64102e-06 0)
(-5.32458e-06 1.96136e-05 0)
(1.16495e-06 4.53833e-07 0)
(-1.16547e-06 4.53788e-07 0)
(2.59253e-06 1.12504e-05 0)
(-5.2517e-07 7.56138e-07 0)
(7.16293e-07 2.17245e-06 0)
(3.2511e-06 7.69078e-06 0)
(-9.94121e-08 3.16033e-07 0)
(1.60494e-07 3.60355e-08 0)
(5.52915e-07 3.34781e-07 0)
(5.8979e-06 9.82054e-06 0)
(-1.61186e-06 1.65033e-06 0)
(1.61107e-06 1.65038e-06 0)
(-9.7616e-06 7.42328e-05 0)
(-1.60657e-06 1.69148e-06 0)
(1.60578e-06 1.69153e-06 0)
(1.34968e-05 0.00011948 0)
(2.17989e-06 2.12667e-06 0)
(-2.18068e-06 2.12663e-06 0)
(5.92888e-07 4.01707e-06 0)
(2.77447e-07 1.00491e-05 0)
(1.97625e-06 3.74442e-06 0)
(-1.97707e-06 3.74441e-06 0)
(-3.56855e-06 4.10421e-06 0)
(3.56772e-06 4.10421e-06 0)
(-4.26306e-06 8.96781e-06 0)
(-8.44119e-07 1.62911e-06 0)
(-1.20886e-06 9.46963e-07 0)
(-2.47104e-06 2.73276e-06 0)
(2.47024e-06 2.73278e-06 0)
(-3.4455e-06 3.37315e-06 0)
(3.44468e-06 3.37316e-06 0)
(-4.04702e-06 2.8148e-05 0)
(1.30166e-06 6.22845e-06 0)
(-1.23839e-05 0.000276952 0)
(1.2185e-05 0.000276588 0)
(-1.31257e-06 2.44551e-06 0)
(1.31169e-06 2.44543e-06 0)
(1.36453e-05 0.000111767 0)
(3.11755e-09 3.43003e-09 0)
(9.71263e-10 1.41039e-09 0)
(-9.7599e-10 1.41718e-09 0)
(-3.13265e-09 3.44655e-09 0)
(2.05753e-06 1.56408e-05 0)
(-7.69638e-08 6.91168e-08 0)
(7.6876e-08 6.88802e-08 0)
(1.14898e-06 4.2501e-07 0)
(-1.1495e-06 4.24969e-07 0)
(7.87427e-07 2.24148e-07 0)
(-7.87837e-07 2.24152e-07 0)
(-9.24691e-07 3.22049e-07 0)
(9.2425e-07 3.22076e-07 0)
(-2.33222e-07 1.1319e-06 0)
(-1.98532e-06 1.89177e-06 0)
(1.98454e-06 1.89182e-06 0)
(2.79455e-06 6.74267e-06 0)
(7.25299e-06 9.29371e-05 0)
(1.87945e-06 1.82294e-06 0)
(-1.88024e-06 1.82289e-06 0)
(1.66631e-06 6.04006e-06 0)
(-2.30586e-06 2.543e-06 0)
(2.30506e-06 2.54303e-06 0)
(2.2558e-06 6.97066e-06 0)
(1.30867e-06 3.85587e-06 0)
(-3.6319e-06 7.40151e-06 0)
(9.86471e-07 3.66303e-07 0)
(-9.86928e-07 3.66267e-07 0)
(-3.2405e-06 6.2196e-06 0)
(-2.62653e-07 7.73461e-06 0)
(9.23679e-09 2.12764e-06 0)
(4.64953e-06 3.95275e-05 0)
(2.66584e-06 2.47887e-06 0)
(-2.66663e-06 2.47884e-06 0)
(2.46694e-07 -3.66958e-09 0)
(-1.41027e-06 9.92111e-07 0)
(3.17415e-06 2.7276e-06 0)
(-3.17495e-06 2.72758e-06 0)
(-2.32047e-10 1.48864e-08 0)
(2.32959e-10 1.49546e-08 0)
(-2.55872e-06 4.82145e-06 0)
(2.55788e-06 4.82146e-06 0)
(-6.60082e-06 3.47521e-05 0)
(1.09067e-06 2.65337e-05 0)
(-3.64172e-06 3.24054e-06 0)
(3.6409e-06 3.24055e-06 0)
(1.1102e-06 1.84685e-06 0)
(1.435e-06 9.16128e-07 0)
(-1.90438e-07 -1.34424e-07 0)
(-1.36611e-05 0.000210402 0)
(-1.17736e-06 4.79727e-07 0)
(-1.66329e-06 4.58421e-06 0)
(-1.46796e-06 1.05409e-05 0)
(7.90338e-08 7.90821e-08 0)
(5.30671e-07 2.05035e-06 0)
(3.77008e-06 8.57402e-06 0)
(-1.0876e-06 3.42279e-07 0)
(-3.08259e-06 6.73565e-06 0)
(3.82558e-06 1.00445e-05 0)
(7.63383e-07 1.86413e-07 0)
(6.65515e-06 8.49425e-05 0)
(-1.13884e-08 4.11962e-08 0)
(1.14169e-08 4.09938e-08 0)
(-2.20881e-06 2.16012e-06 0)
(2.20802e-06 2.16016e-06 0)
(-1.14965e-06 5.04472e-07 0)
(1.41887e-07 2.8312e-06 0)
(1.28798e-06 6.5719e-06 0)
(2.45733e-06 7.94401e-05 0)
(-1.32268e-05 7.90716e-05 0)
(-2.90786e-06 6.49178e-06 0)
(1.44808e-06 1.02795e-06 0)
(2.81558e-07 5.74644e-06 0)
(-1.25406e-05 0.000121645 0)
(1.34293e-05 0.000121428 0)
(4.52017e-07 1.86841e-06 0)
(-7.6368e-07 2.01543e-07 0)
(7.63268e-07 2.01526e-07 0)
(-1.33569e-06 1.1292e-06 0)
(-7.7594e-06 2.15274e-05 0)
(3.71094e-07 5.79952e-06 0)
(5.63064e-06 4.51518e-05 0)
(-2.84555e-06 2.72826e-06 0)
(2.84475e-06 2.72828e-06 0)
(4.2135e-06 4.76122e-06 0)
(-4.21433e-06 4.76122e-06 0)
(1.21562e-09 3.48581e-08 0)
(-1.19105e-09 3.469e-08 0)
(4.07416e-07 3.11506e-05 0)
(2.01573e-07 6.46186e-07 0)
(1.27676e-06 4.37342e-06 0)
(1.3701e-07 1.54188e-06 0)
(1.49157e-06 1.82295e-06 0)
(-1.49237e-06 1.82292e-06 0)
(-7.46035e-06 6.90976e-05 0)
(-3.56558e-07 8.67459e-08 0)
(3.56352e-07 8.66573e-08 0)
(3.48533e-06 3.30311e-06 0)
(-3.48614e-06 3.3031e-06 0)
(7.91516e-06 1.82842e-05 0)
(-2.50325e-06 2.4106e-06 0)
(2.50246e-06 2.41064e-06 0)
(4.35004e-07 2.03067e-08 0)
(-3.80626e-06 7.67681e-06 0)
(2.28736e-06 7.56478e-06 0)
(2.70575e-06 2.25673e-05 0)
(-4.94513e-06 1.25018e-05 0)
(-4.31932e-07 8.06517e-06 0)
(-3.4619e-06 4.21483e-06 0)
(3.46107e-06 4.21483e-06 0)
(-8.79268e-06 9.35256e-05 0)
(3.85898e-07 2.51868e-06 0)
(-2.28733e-06 1.53409e-06 0)
(2.28659e-06 1.53418e-06 0)
(2.91465e-06 1.4149e-05 0)
(4.91468e-06 6.8653e-06 0)
(8.74078e-07 1.16924e-06 0)
(-4.91557e-06 6.86513e-06 0)
(-6.59774e-07 6.83978e-08 0)
(6.59152e-07 6.80369e-08 0)
(-2.88024e-06 9.06154e-06 0)
(-8.9648e-07 2.27139e-07 0)
(4.03835e-06 1.37109e-05 0)
(2.67295e-08 -4.95784e-08 0)
(2.69935e-06 6.75871e-06 0)
(7.72915e-07 1.94211e-06 0)
(-1.10652e-05 3.1171e-05 0)
(6.14971e-07 3.18054e-06 0)
(-8.67922e-07 1.97764e-07 0)
(8.67417e-07 1.97736e-07 0)
(3.99993e-06 4.41085e-06 0)
(-4.00077e-06 4.41085e-06 0)
(-1.32876e-06 6.73743e-06 0)
(-5.74194e-07 2.58904e-05 0)
(2.70005e-06 2.57966e-06 0)
(-2.70085e-06 2.57964e-06 0)
(2.67029e-06 5.9896e-06 0)
(-3.79863e-06 1.6018e-05 0)
(-1.22337e-05 0.00011949 0)
(-6.86617e-07 3.52743e-06 0)
(-4.19983e-06 2.18244e-05 0)
(-7.46337e-07 2.25033e-07 0)
(7.45955e-07 2.25044e-07 0)
(7.12534e-07 5.32891e-06 0)
(-1.5762e-06 1.92761e-06 0)
(1.57541e-06 1.92764e-06 0)
(3.76618e-06 4.03693e-06 0)
(-3.76701e-06 4.03693e-06 0)
(-5.87263e-08 3.68645e-06 0)
(2.15909e-06 7.57631e-06 0)
(1.30613e-07 7.58795e-08 0)
(1.10644e-05 3.11718e-05 0)
(-1.72703e-06 9.44961e-07 0)
(1.72635e-06 9.45071e-07 0)
(-2.42059e-06 9.01668e-06 0)
(-1.25513e-07 1.4408e-06 0)
(1.88154e-06 1.21415e-05 0)
(4.40983e-06 1.28091e-05 0)
(2.33458e-06 1.65103e-05 0)
(1.0482e-06 9.84291e-07 0)
(4.57481e-07 1.74715e-06 0)
(9.56302e-07 4.09686e-07 0)
(-2.08713e-06 6.16271e-06 0)
(-3.76677e-06 3.89374e-06 0)
(3.76595e-06 3.89374e-06 0)
(-1.90246e-06 1.13164e-06 0)
(1.90176e-06 1.13175e-06 0)
(-1.10805e-05 4.9523e-05 0)
(1.09013e-05 4.94733e-05 0)
(5.40887e-07 3.52726e-06 0)
(-1.25295e-07 -1.36686e-07 0)
(-3.63835e-06 3.84543e-06 0)
(3.63753e-06 3.84543e-06 0)
(3.87956e-06 7.48057e-06 0)
(3.76354e-06 8.83153e-06 0)
(-7.39761e-08 4.60224e-06 0)
(2.61699e-06 2.15671e-05 0)
(-4.5077e-06 0.000254883 0)
(-1.63865e-07 9.42103e-08 0)
(1.63768e-07 9.39552e-08 0)
(1.0763e-06 4.06603e-06 0)
(5.13383e-07 5.02241e-06 0)
(-2.52539e-06 1.84494e-06 0)
(2.52463e-06 1.84501e-06 0)
(1.10428e-07 2.07417e-06 0)
(-4.48289e-06 3.94811e-05 0)
(8.0839e-08 -1.37399e-07 0)
(-3.35771e-06 2.89048e-06 0)
(3.3569e-06 2.8905e-06 0)
(9.27321e-07 2.11708e-07 0)
(-9.27866e-07 2.11746e-07 0)
(1.27131e-06 1.45164e-06 0)
(7.27588e-07 1.91718e-07 0)
(-7.27982e-07 1.91737e-07 0)
(2.09982e-06 4.94317e-05 0)
(3.30268e-07 9.1495e-06 0)
(-1.05637e-06 7.86349e-05 0)
(-9.61806e-07 4.04211e-05 0)
(-3.54558e-06 4.13772e-06 0)
(3.54475e-06 4.13772e-06 0)
(1.50595e-06 2.67179e-05 0)
(1.86624e-06 3.14597e-06 0)
(-1.86706e-06 3.14595e-06 0)
(-4.43738e-06 4.90351e-06 0)
(4.43654e-06 4.90351e-06 0)
(1.10807e-06 1.62487e-06 0)
(-1.10875e-06 1.62525e-06 0)
(-1.2645e-06 5.2198e-07 0)
(1.26396e-06 5.22033e-07 0)
(2.35113e-06 1.6255e-06 0)
(-2.35188e-06 1.62541e-06 0)
(-4.45014e-07 3.19137e-06 0)
(5.59898e-06 1.54688e-05 0)
(-2.45e-06 1.74078e-06 0)
(2.44924e-06 1.74086e-06 0)
(7.32356e-06 2.22574e-05 0)
(1.80146e-07 2.19441e-06 0)
(-1.26733e-06 4.94409e-07 0)
(1.26677e-06 4.94458e-07 0)
(-3.30752e-06 4.46469e-06 0)
(3.30669e-06 4.46469e-06 0)
(1.49403e-06 7.81376e-07 0)
(2.73314e-06 2.59538e-06 0)
(-2.73393e-06 2.59536e-06 0)
(3.78673e-06 3.45049e-06 0)
(-3.78755e-06 3.45048e-06 0)
(-1.49472e-06 7.81259e-07 0)
(-1.61426e-06 8.29392e-06 0)
(-2.10156e-06 6.54101e-06 0)
(-4.06147e-06 8.82197e-05 0)
(-2.80501e-06 3.91883e-06 0)
(2.80419e-06 3.91884e-06 0)
(4.80229e-06 6.84427e-06 0)
(-1.68432e-07 1.86639e-06 0)
(-1.31586e-07 7.62668e-08 0)
(-4.80314e-06 6.84409e-06 0)
(-9.95634e-07 2.12641e-06 0)
(-1.33082e-06 1.09804e-06 0)
(2.16203e-06 7.02241e-06 0)
(-1.58844e-06 1.96135e-06 0)
(1.58765e-06 1.96138e-06 0)
(-1.64452e-08 1.8539e-06 0)
(-4.55453e-07 1.7902e-06 0)
(2.99591e-06 8.46937e-06 0)
(-1.07895e-05 3.77106e-05 0)
(1.07882e-05 3.77104e-05 0)
(-2.33086e-06 1.50668e-05 0)
(1.13371e-07 2.84808e-06 0)
(-2.98323e-08 4.50383e-08 0)
(2.9834e-08 4.48337e-08 0)
(1.04235e-06 9.11443e-07 0)
(1.23101e-06 1.21114e-06 0)
(2.39525e-06 1.13406e-05 0)
(-2.51029e-06 1.84301e-06 0)
(2.50952e-06 1.84308e-06 0)
(1.53029e-06 8.70975e-07 0)
(1.13884e-05 8.07079e-05 0)
(1.49622e-06 7.95149e-07 0)
(-3.5963e-06 2.78201e-05 0)
(-1.21727e-06 5.01114e-07 0)
(1.21674e-06 5.01165e-07 0)
(5.9709e-06 1.74874e-05 0)
(-7.47396e-07 1.34118e-06 0)
(-1.53057e-06 8.70958e-07 0)
(2.02929e-05 0.0001962 0)
(-2.02364e-05 0.000196191 0)
(-1.49691e-06 7.95033e-07 0)
(4.34174e-06 1.23857e-05 0)
(-1.28397e-06 5.05784e-07 0)
(1.2834e-06 5.05833e-07 0)
(3.81581e-06 4.7179e-06 0)
(-3.81665e-06 4.7179e-06 0)
(-3.61914e-06 9.37632e-06 0)
(7.17773e-07 2.21299e-06 0)
(-2.31054e-06 8.89e-06 0)
(-1.98269e-06 1.23322e-06 0)
(1.98197e-06 1.23333e-06 0)
(2.76946e-06 3.14116e-06 0)
(-2.77027e-06 3.14115e-06 0)
(9.73921e-09 7.19161e-07 0)
(3.10699e-06 2.24362e-05 0)
(-2.78333e-06 3.94855e-06 0)
(2.7825e-06 3.94856e-06 0)
(2.66171e-06 9.44593e-06 0)
(-3.42331e-07 1.1032e-07 0)
(3.42139e-07 1.10165e-07 0)
(1.63775e-06 5.67777e-06 0)
(9.19309e-07 1.9743e-07 0)
(-5.23061e-06 8.23617e-06 0)
(4.19373e-06 1.28519e-05 0)
(3.61981e-06 9.12779e-06 0)
(7.61083e-06 2.38364e-05 0)
(-1.60341e-06 4.54738e-06 0)
(1.67343e-06 4.44204e-06 0)
(7.36693e-07 7.56745e-06 0)
(-3.49031e-06 3.40871e-06 0)
(3.4895e-06 3.40872e-06 0)
(4.91919e-07 5.02157e-05 0)
(-6.3732e-08 1.0421e-06 0)
(-7.23481e-07 3.49578e-06 0)
(2.39487e-06 7.90807e-06 0)
(1.45959e-06 1.84855e-05 0)
(2.62973e-07 3.9459e-07 0)
(2.06975e-07 2.22303e-06 0)
(-3.65765e-06 1.93228e-05 0)
(3.33229e-06 2.5793e-05 0)
(-9.56129e-08 7.48354e-07 0)
(-4.98345e-07 1.49633e-06 0)
(1.05106e-06 9.38473e-07 0)
(-9.93053e-07 2.16191e-06 0)
(8.91489e-06 2.38656e-05 0)
(-1.37098e-06 1.06595e-05 0)
(1.20212e-06 6.94433e-06 0)
(4.19149e-07 9.99224e-08 0)
(-4.19379e-07 9.9978e-08 0)
(-9.95254e-07 8.77639e-07 0)
(3.43077e-07 1.03497e-07 0)
(-3.43272e-07 1.03692e-07 0)
(1.22546e-06 4.41173e-06 0)
(6.4038e-07 3.21619e-06 0)
(-1.85419e-06 1.53449e-06 0)
(1.85341e-06 1.53456e-06 0)
(-9.36051e-07 2.78569e-07 0)
(-2.34925e-07 9.85967e-08 0)
(2.34763e-07 9.83558e-08 0)
(8.60825e-07 7.6389e-07 0)
(3.15678e-06 3.90728e-05 0)
(-9.19856e-07 1.97498e-07 0)
(1.17251e-06 3.93163e-07 0)
(-1.40548e-06 9.65375e-07 0)
(-9.306e-07 7.05516e-07 0)
(6.79115e-06 1.1585e-05 0)
(-1.25563e-06 1.81054e-06 0)
(-2.90822e-06 1.60822e-05 0)
(-3.76138e-06 1.04651e-05 0)
(-7.81496e-07 2.33266e-07 0)
(7.81097e-07 2.33272e-07 0)
(-5.92884e-07 4.45603e-06 0)
(4.25378e-07 1.60788e-06 0)
(-1.45764e-07 4.70249e-08 0)
(1.45637e-07 4.68429e-08 0)
(-1.3866e-06 7.88596e-07 0)
(9.87098e-06 0.000371986 0)
(-8.65752e-06 7.34619e-05 0)
(-1.58025e-06 6.47372e-06 0)
(1.5149e-06 3.41253e-06 0)
(-1.51567e-06 3.41252e-06 0)
(4.01501e-06 8.7609e-06 0)
(4.23082e-07 2.5165e-06 0)
(-6.99288e-06 6.9956e-05 0)
(1.09396e-07 3.47425e-08 0)
(-1.0952e-07 3.49284e-08 0)
(7.86321e-06 6.30367e-05 0)
(5.74466e-06 8.3639e-05 0)
(4.33187e-08 -9.77735e-08 0)
(-2.77059e-07 7.85955e-06 0)
(5.59636e-07 1.06752e-06 0)
(-4.40692e-06 1.04878e-05 0)
(-9.73011e-07 7.69336e-07 0)
(5.58127e-06 2.61384e-05 0)
(1.55453e-06 3.39277e-06 0)
(-1.55535e-06 3.39277e-06 0)
(5.6823e-06 1.23558e-05 0)
(3.12393e-06 6.58087e-06 0)
(-6.43718e-08 1.12296e-06 0)
(-2.08909e-07 1.10303e-06 0)
(8.89817e-06 6.36466e-05 0)
(1.68542e-06 8.9036e-07 0)
(-1.68609e-06 8.90256e-07 0)
(-1.20317e-07 1.85678e-06 0)
(1.21655e-06 3.51188e-06 0)
(5.87919e-06 1.43384e-05 0)
(4.29683e-07 1.0238e-07 0)
(-4.29918e-07 1.0243e-07 0)
(3.14408e-06 1.47896e-05 0)
(-5.25393e-07 5.20317e-07 0)
(-3.50112e-06 1.61498e-05 0)
(2.92522e-06 2.94495e-06 0)
(-2.92602e-06 2.94494e-06 0)
(6.46122e-07 3.45742e-06 0)
(1.42966e-06 1.43386e-06 0)
(-1.43004e-06 1.43326e-06 0)
(-1.5082e-06 6.97448e-07 0)
(1.50758e-06 6.97523e-07 0)
(-7.54278e-06 7.36313e-05 0)
(1.74716e-06 4.50861e-06 0)
(-3.28502e-08 4.83562e-08 0)
(3.28476e-08 4.8145e-08 0)
(1.06828e-06 1.82408e-06 0)
(-6.76127e-08 7.58356e-08 0)
(-1.23982e-05 0.000286294 0)
(-3.57989e-06 3.69959e-06 0)
(3.57907e-06 3.6996e-06 0)
(7.67269e-06 0.00018037 0)
(-2.36244e-06 1.59284e-06 0)
(2.3617e-06 1.59292e-06 0)
(-2.50885e-06 0.000149528 0)
(-5.52774e-06 2.61364e-05 0)
(6.51665e-07 3.31255e-06 0)
(1.75823e-06 1.01593e-06 0)
(9.81054e-07 1.7814e-06 0)
(6.0336e-07 7.62966e-06 0)
(-1.75894e-06 1.01581e-06 0)
(-5.87386e-06 1.45812e-05 0)
(-3.03947e-07 2.98761e-06 0)
(1.22916e-06 3.61921e-06 0)
(1.65462e-06 3.38375e-06 0)
(-1.65545e-06 3.38374e-06 0)
(-1.11116e-06 4.98066e-07 0)
(1.15148e-06 5.55352e-07 0)
(-3.27716e-06 6.32565e-06 0)