/*--------------------------------*- C++ -*----------------------------------*\
| =========                 |                                                 |
| \\      /  F ield         | OpenFOAM: The Open Source CFD Toolbox           |
|  \\    /   O peration     | Version:  v3.0+                                 |
|   \\  /    A nd           | Web:      www.OpenFOAM.com                      |
|    \\/     M anipulation  |                                                 |
\*---------------------------------------------------------------------------*/
FoamFile
{
    version     2.0;
    format      ascii;
    class       volScalarField;
    location    "9000";
    object      sigmaxy;
}
// * * * * * * * * * * * * * * * * * * * * * * * * * * * * * * * * * * * * * //

dimensions      [1 -1 -2 0 0 0 0];

internalField   nonuniform List<scalar> 
27023
(
-1.62426e+07
-1.62458e+07
-1.19981e+07
-1.1996e+07
-1.54754e+07
-1.54786e+07
-1.51609e+07
-1.51583e+07
-6.03938e+06
-6.03886e+06
-1.48389e+07
-1.48346e+07
-1.40736e+06
-1.41481e+06
-2.558e+06
1.179e+07
1.12704e+07
-2.57336e+06
-2.57437e+06
-2.03419e+06
-2.03329e+06
-1.3638e+07
-1.36356e+07
-1.35337e+06
-1.35087e+06
-287685
4.02669e+06
-1.40793e+06
3.70435e+06
-3.14187e+06
-674625
-2.5003e+06
-2.50014e+06
-2.15666e+06
-1.63662e+06
-1.85534e+06
-1.07194e+06
-1.0703e+06
-6.02571e+06
-6.02609e+06
-1.20145e+07
-1.20166e+07
-1.99217e+06
-1.56763e+07
-1.56795e+07
-2.49228e+06
-2.49133e+06
-1.62491e+06
-1.6241e+06
-2.70909e+06
-761973
-761100
-2.37243e+06
-88334.7
-88091.1
-2.19074e+06
-1.78279e+06
-1.59868e+06
-3.01023e+06
-1.24052e+07
-1.24032e+07
-1.66034e+06
-2.04147e+06
-856510
-3.24814e+06
-277936
-1.80347e+06
128474
4.20888e+06
-2.91108e+06
-1.45258e+06
-1.4508e+06
-4.40849e+06
-4.40592e+06
-1.54755e+06
-1.54745e+06
-361452
-359144
-6.18667e+06
-6.18721e+06
1.58438e+06
-1.40688e+07
-1.40645e+07
-4.87332e+06
-4.87083e+06
-789431
-789400
-1.80414e+06
-3.07748e+06
-2.94026e+06
-2.81894e+06
-1.58874e+07
-1.5884e+07
8.76791e+06
-2.21836e+06
-405891
-404625
2.17946e+06
-3.26338e+06
-3.54531e+06
-1.9028e+06
-160420
-58333.2
-9.45017e+06
-9.44655e+06
-2.10417e+06
-9.6635e+06
-9.66104e+06
-2.31218e+06
-1.90322e+06
-3.68049e+06
-1.01146e+07
-1.01121e+07
-383704
-381804
-901035
-900895
3.0353e+06
536437
-1.24707e+06
-2.08201e+06
-1.46818e+06
-3.07012e+07
-3.07051e+07
-1.45683e+07
-1.4567e+07
-1.53302e+07
-1.53268e+07
-1.02094e+07
-1.02055e+07
-1.75494e+06
-1.58434e+06
-1.57818e+06
-1.15445e+06
-2.57862e+06
71087.6
71078.1
3.86675e+06
-2.94052e+06
-2.93951e+06
-1.68e+07
-1.68039e+07
3.74356e+06
-1.481e+07
-1.48071e+07
-558095
-2.14995e+06
233491
-2.56897e+06
-2.41314e+07
-2.4128e+07
-2.05131e+07
-2.05099e+07
-3.16744e+06
-852620
-644976
-631988
-2.03832e+06
-3.03192e+06
-3.03091e+06
-1.84195e+06
-2.95973e+06
-1.43369e+06
-3.32403e+06
-2.16409e+07
-2.16417e+07
-1.50976e+07
-1.51022e+07
2.66532e+06
2.87771e+06
-4.04826e+06
-7.70465e+06
-7.70523e+06
-3.1118e+06
-2.8375e+06
-2.62376e+06
-2.07568e+06
3.49402e+06
-3.29877e+06
4.81314e+06
-2.57364e+06
-1.56657e+07
-1.56696e+07
-2.15354e+06
-2.15094e+06
-1.71795e+06
-388189
-385972
-1.59512e+06
-3.178e+06
-1.64921e+07
-1.64969e+07
3.42596e+06
-2.76574e+06
-1.47859e+07
-1.47844e+07
-595135
-1.72237e+07
-1.72285e+07
921424
-2.65562e+06
3.81014e+06
-1.01019e+06
-1.00994e+06
-1.47451e+07
-1.47482e+07
89857.9
-1.90545e+06
-384215
-383965
-191708
-190777
9.84178e+06
-709325
-5.78608e+06
-5.78158e+06
2.99892e+06
3.63604e+06
-3.74587e+06
-3.24225e+06
-3.2426e+06
-1.51879e+06
-2.98321e+07
-2.98359e+07
-1.48315e+06
-4.46883e+06
-4.46802e+06
-5.00531e+06
-5.00209e+06
-2.90095e+06
-2.90249e+06
-2.86953e+06
-3.51719e+06
-3.51647e+06
-1.66117e+06
-2.53077e+06
-2.53042e+06
-211269
-2.08612e+06
-1.73982e+07
-1.74001e+07
3.25187e+06
-2.05886e+06
-2.13389e+06
-2.64281e+06
8.62832e+06
-3.95953e+06
5.42755e+06
-827048
-2.11069e+06
-7.66283e+06
-7.66414e+06
-3.00198e+06
8.10435e+06
-338774
-1.13267e+06
-1.54011e+06
-582077
-2.8328e+06
-2.83288e+06
4.0347e+06
6.44668e+06
550001
-1.82409e+06
-1.82372e+06
-1.45875e+07
-1.45847e+07
-1.73655e+06
8.75066e+06
-2.69285e+07
-2.69256e+07
-1.15197e+06
-1.82681e+06
-1.6284e+06
-1.87704e+06
-2.61766e+06
-2.08956e+07
-2.08962e+07
-2.04673e+06
-2.04781e+06
-2.68997e+06
-2.17974e+06
-3.25227e+06
-3.11885e+06
-74134.1
-73483.7
-2.37159e+06
-2.02688e+06
1.1619e+07
-4.53504e+06
-1.53535e+06
-3.03063e+06
-5.3519e+06
-5.35303e+06
-1.13408e+06
-1.13413e+06
-2.19075e+06
-2.12881e+06
-997083
-997165
-1.70966e+06
1.10252e+07
-1.2947e+07
-1.29512e+07
-368348
-7.36469e+06
-7.3615e+06
2.5727e+06
-2.67674e+06
-3.89807e+06
-1.95643e+06
23740.6
22737.7
-2.53362e+06
-2.53545e+06
-2.60678e+06
-2.41206e+06
-2.41391e+06
267572
-2.94196e+06
-2.45702e+06
-2.46727e+06
2.45309e+06
5.96912e+06
1.49735e+06
-3.0676e+06
-415860
-2.46874e+06
1.76055e+06
-3.52677e+06
5.98179e+06
-3.44053e+06
-885969
-2.17697e+06
-1.75746e+06
-2.28754e+07
-2.28787e+07
-826359
1.04296e+07
-7.72376e+06
-7.72076e+06
-682847
-661413
-179955
-179081
5.1201e+06
-1.83828e+07
-1.83794e+07
-1.15965e+06
-1.54932e+06
-2.62033e+06
-2.63887e+06
-3.84173e+06
-3.84107e+06
-6478.1
-6405.35
1.27253e+07
-6.70282e+06
-6.70368e+06
-2.19908e+06
-102494
-582003
-582212
-2.26299e+07
-2.26341e+07
-3.40429e+06
-2.82974e+06
1.08521e+07
-1.84839e+07
-1.8487e+07
-6.1186e+06
-6.11918e+06
9.55867e+06
-2.33113e+06
1.74947e+06
-1.8437e+06
-1.91248e+06
1.51927e+06
-592408
-817821
-1.9548e+06
-818869
-1.37411e+07
-1.37389e+07
5.07737e+06
2.75838e+06
-2.0554e+06
-2.44423e+06
-741841
4.19129e+06
6.40662e+06
-2.60811e+06
-131572
-3.83804e+06
1.17314e+07
-3.37892e+06
-1.84005e+06
-1.7219e+06
-687067
-1.69094e+06
-5.54781e+06
-5.54463e+06
8.06439e+06
3.38877e+06
-1.55948e+06
-1.81586e+07
-1.81615e+07
1.5395e+06
-2.51244e+06
365809
-194936
562087
-413798
-412054
-3.51598e+06
-1.70248e+06
-4.79127e+06
-2.29445e+06
-1.72922e+06
-1.76386e+06
4.31475e+06
-1.20358e+06
4.72155e+06
3.51873e+06
-1.54362e+06
-919816
-1.35243e+06
-1.35263e+06
-230184
-3.51509e+06
-1.74593e+06
3.04086e+06
-1.34851e+06
-1.34827e+06
-3.4856e+06
-3.48756e+06
-1.52477e+06
4.23366e+06
-7.80994e+06
-7.81029e+06
-74971.8
-77457.2
-2.7878e+06
-2.7862e+06
-218180
-219240
3.97363e+06
-2.68598e+06
-2.46135e+06
1.05976e+07
8.9779e+06
-2.04332e+07
-2.04377e+07
-2.09684e+07
-2.09727e+07
-1.89043e+06
-1.8885e+06
-2.4634e+07
-2.46303e+07
5.12343e+06
4.20656e+06
-1.07645e+06
-2.7086e+06
5.41017e+06
-185492
-2.57167e+06
-1.55535e+07
-1.55553e+07
-1.45607e+06
-1.64369e+06
-3.11136e+06
-1.88032e+06
-2.08149e+06
2.67942e+06
-366916
-5.43903e+06
-5.4376e+06
-366316
-701120
-1.01948e+07
-1.01924e+07
-4.27067e+06
-4.26997e+06
-1.1827e+06
6.21465e+06
-57353.9
4.61872e+06
167335
-3.21602e+06
-1.70098e+07
-1.70132e+07
-2.39458e+06
-4.68428e+06
-712700
-1.72184e+06
-1.72388e+06
-1.97907e+07
-1.97873e+07
6.42691e+06
-422464
-2.75729e+06
-1.03543e+07
-1.03577e+07
-2.38054e+06
1.1063e+07
-574408
-577098
2.02987e+06
-2.54566e+07
-2.54529e+07
-1.52432e+07
-1.52387e+07
-54591.9
-2.89221e+07
-2.89246e+07
-1.95577e+06
-1.51622e+06
-1.64497e+06
-1.64458e+06
-2.35828e+06
-1.61435e+06
-1.61444e+06
-994857
-6.26963e+06
-6.27147e+06
-2.73006e+06
-2.73176e+06
-913930
-3.20705e+07
-3.2067e+07
-1.82709e+06
-2.21906e+06
-1.25122e+06
2.59761e+06
-3.66949e+06
-3.66491e+06
-7.18259e+06
-7.18349e+06
-2.64599e+06
-2.19399e+06
1.55168e+06
-1.46617e+06
1.25723e+06
2.69831e+06
-3.36987e+06
-7.6125e+06
-7.61214e+06
-1.06487e+06
-422124
-422226
-2.97456e+06
-607283
-7.11094e+06
-7.11391e+06
-1.06545e+06
-1.5613e+06
-1.57931e+06
1.39725e+06
5.04467e+06
-2.21383e+06
4.07729e+06
-2.84043e+06
-593627
-595556
-2.02503e+06
1.23023e+07
-3.27242e+06
-3.27139e+06
-2.75409e+06
-2.63181e+06
-2.63026e+06
-1.87788e+06
-2.29356e+07
-2.29321e+07
-1.6651e+07
-1.6656e+07
-2.66224e+07
-2.66261e+07
-1.38882e+06
2.29878e+06
2.25484e+06
-2.60331e+06
-2.50759e+07
-2.50795e+07
-1.84479e+06
8.75994e+06
1.87448e+06
-2.55239e+06
1.19031e+07
-1.85666e+06
1.0611e+07
-178691
-474444
-471958
-3.24513e+06
-285045
-281335
-3.20053e+06
-4.07221e+06
-4.07483e+06
-1.8475e+06
-3.2485e+06
-1.84544e+06
-1.84481e+06
-1.62304e+06
-1.6227e+06
-990245
4.33886e+06
3.03477e+06
-4.54308e+06
-4.54162e+06
-2.8048e+06
-2.80434e+06
-3.44696e+06
-3.05969e+06
-830079
-901057
257537
257833
86031.9
-12057.9
-129632
-130257
-12119.5
-2.17868e+06
-1.28332e+06
-1.28894e+06
-2.18733e+07
-2.18767e+07
-1.55448e+07
-1.55482e+07
-2.353e+07
-2.35265e+07
7.77242e+06
-3.11299e+06
-3.1099e+06
-1.94731e+06
-4.13265e+06
-2.79557e+06
-2.79865e+06
-2.29194e+06
-3.75546e+06
-3.7538e+06
-1.80623e+06
-1.97834e+06
-1.0835e+06
-2.57019e+07
-2.57055e+07
-2.39889e+06
-3.22373e+06
3.44081e+06
-3.89648e+06
-5.86894e+06
-5.87082e+06
1.18538e+07
737740
-5.8419e+06
-5.84265e+06
-245487
-246660
-2.79216e+06
-2.79005e+06
-2.01705e+06
-1.62701e+06
-951899
-951809
1.763e+06
-600001
6.87175e+06
-97807.9
-1.16925e+06
-2.69239e+06
-2.16619e+06
-1.76134e+06
3.3646e+06
-2.24886e+06
-1.97907e+06
-1.70285e+06
-1.3448e+06
5.71637e+06
-3.1835e+06
-108817
-109682
-4.14173e+06
-4.13922e+06
1.33099e+06
1.00173e+06
-2.534e+06
-1.35684e+06
-260414
-1.50322e+06
201595
-1.8179e+06
-186491
235894
4.31246e+06
-1.3098e+07
-1.30943e+07
2.60234e+06
-1.57498e+06
-3.02513e+06
-3.18345e+06
-5.89884e+06
-5.89752e+06
-396367
-396498
-11735.1
-11795.6
-1.72031e+06
1.01031e+07
-1.5948e+06
5.48956e+06
333132
331676
-1.88497e+06
-6.04376e+06
-6.0448e+06
-2.25151e+06
-2.25188e+06
-1.22751e+06
-5.39761e+06
-5.39559e+06
9.58609e+06
-1.71311e+06
-2.21177e+06
-3.43265e+06
-2.50299e+06
-2.25742e+06
-2.42433e+06
-2.42394e+06
-1.98838e+06
1.40841e+06
-2.12221e+07
-2.12181e+07
-1.5705e+06
-730626
5.55159e+06
-724643
-2.13927e+06
-2.09713e+06
-2.14641e+06
2.78033e+06
-2.5623e+06
1.13364e+07
-2.52843e+06
2.80485e+06
-304880
-144073
-8.78998e+06
-8.78628e+06
-737843
-737929
-3.11866e+06
-2.05997e+06
-5.5849e+06
-5.58655e+06
-1.94218e+06
-1.57661e+06
-3.21858e+06
-1.34728e+06
-2.90179e+06
-1.83523e+07
-1.83488e+07
-2.47511e+06
-566524
-566252
-1.1151e+06
-1.1153e+06
-1.21815e+06
-2.87906e+06
-2.82771e+06
-318321
-1.52529e+07
-1.52508e+07
-2.48188e+06
6.09165e+06
-3.28933e+06
-1.79444e+06
-1.83899e+06
4.7836e+06
4.90061e+06
5.38414e+06
-2.77855e+06
-1.72387e+06
-1.72371e+06
-1.77448e+07
-1.77409e+07
-2.73415e+06
-2.65574e+06
-770914
8.74599e+06
-2.22974e+06
-2.22948e+06
-1.96194e+06
-2.24569e+06
-1.56669e+06
-1.52734e+06
-1.59418e+06
-3.43151e+06
-3.43174e+06
-1.83311e+06
-1.67779e+06
-1.58492e+07
-1.58462e+07
3.02835e+06
-3.61238e+06
5.55843e+06
-4.50009e+06
-4.49977e+06
-7.70468e+06
-7.70526e+06
2.87061e+06
-1.30285e+07
-1.3032e+07
-1.78956e+06
-2.21692e+06
-3.62185e+06
-3.90483e+06
-2.25132e+06
-2.25098e+06
-3.649e+06
-2.31757e+06
-2.32015e+06
-190986
-190896
3.42229e+06
3.26788e+06
-2.58285e+07
-2.58248e+07
-1.86232e+07
-1.86271e+07
-505646
-1.31458e+06
-1.78605e+07
-1.78572e+07
-1.44223e+06
3.1035e+06
-2.08089e+07
-2.08052e+07
-1.94542e+06
-1.94496e+06
-5.9068e+06
-6.27278e+06
-6.2744e+06
-65245.3
-65251.4
-5.90976e+06
-2.88507e+06
-1.82365e+06
-2.14632e+06
-2.51305e+06
-2.51215e+06
-554151
3.98329e+06
-2.87082e+06
-548744
1.41002e+06
1.67111e+06
-2.95893e+06
167231
167423
4.08341e+06
3.88053e+06
-1.72264e+06
-12746.6
-17426.3
-3.39986e+06
436461
-135456
-135735
4.79717e+06
3.71761e+06
-3.32263e+06
-1.58998e+07
-1.58967e+07
-5.09231e+06
-1.33595e+06
-5.59018e+06
-1.25029e+06
-2.69264e+07
-2.69226e+07
-1.71587e+06
5.48731e+06
-5.05341e+06
-2.87176e+06
-2.80785e+06
-5.59192e+06
-2.10286e+06
-2.01719e+07
-2.01684e+07
-1.30651e+06
-1.30687e+06
-1.58538e+06
2.3653e+06
-1.82527e+06
-1.61405e+07
-1.61359e+07
-3.83743e+06
-3.83855e+06
1.00333e+07
-1.50047e+06
-2.96226e+06
-2.96137e+06
-2.74062e+06
-6.18977e+06
-6.19026e+06
-2.5929e+06
-4.03871e+06
-688686
-2.65624e+06
-2.5627e+06
-1.97457e+06
-1.69554e+06
-1.79744e+06
-1.93846e+06
-2.82878e+06
-2.82842e+06
-3.57201e+06
8.49503e+06
-530214
-2.03547e+06
-3.65789e+06
1.20971e+07
2.37182e+06
-3.24731e+06
-3.52177e+06
1.06656e+07
5.07816e+06
5.47864e+06
1.88549e+06
224255
-3.37652e+06
-2.3612e+06
-7.97008e+06
-7.96981e+06
5.30949e+06
-5.92025e+06
-5.91643e+06
-2.49228e+06
-350502
-3.21091e+06
-3.2061e+06
2.73551e+06
-4.74158e+06
-4.74035e+06
6.46544e+06
-2.6464e+06
-4.05419e+06
-5.99884e+06
50451.9
6.05463e+06
395063
2.05469e+06
-3.32162e+06
-2.02899e+06
-1.75581e+07
-1.75548e+07
-2.1509e+06
4.94943e+06
-1.0119e+06
-1.0134e+06
-1.63644e+06
-2.56872e+06
-1.07841e+06
-2.35197e+06
-1.89727e+06
-1.8921e+06
-1.56745e+06
1.50422e+06
-2.91951e+06
-284201
-283656
-468590
-2.0398e+06
1.01209e+07
-2.02567e+06
7.57908e+06
-2.3208e+06
5.58836e+06
-2.94899e+06
-1.34625e+06
-1.34427e+06
-2.09991e+06
-1.44334e+06
8.15304e+06
8.12662e+06
-2.96815e+06
-1.60407e+07
-1.60422e+07
4.44171e+06
-1.44416e+06
-1.92053e+06
-8.30434e+06
-8.30415e+06
-3.27468e+06
1.06123e+07
-3.38346e+06
-4.83806e+06
-4.83919e+06
-640376
1.36825e+06
1.35622e+06
-1.60996e+07
-1.6101e+07
-2.80558e+06
-2.50153e+06
-361677
-361348
2.93722e+06
-1.5401e+06
-3.13369e+06
-1.73435e+06
-1.734e+06
-3.24654e+06
-2.60193e+07
-2.60162e+07
-3.98071e+06
-3.1873e+06
-765100
-1.1597e+07
2.48425e+06
-3.25391e+06
-1.16001e+07
-592783
399345
-1.36165e+06
-1.74886e+06
-1.75133e+06
1.50224e+06
1.40277e+06
-1.36726e+06
3.65462e+06
-2.59648e+06
-2.08832e+06
-3.49278e+06
-2.50729e+06
2.60491e+06
-2.90093e+06
-3.05835e+06
1.01639e+07
1.46365e+06
7.53082e+06
-89310.9
-1.40653e+06
-1.16554e+06
-1.44703e+06
8.70964e+06
-1.82501e+06
-1.94697e+06
-3.18818e+07
-3.18853e+07
1.07426e+07
-4.02848e+06
-1.24766e+06
-1.24197e+06
-3.69616e+06
-3.6951e+06
-674189
-2.59016e+06
-1.15704e+06
-3.99663e+06
-3.99843e+06
-2.0669e+06
-2.06671e+06
-3.06491e+06
9.6771e+06
-3.13783e+06
9.76998e+06
-1.92326e+06
1.26554e+07
4.22852e+06
5.32544e+06
-1.24531e+06
-2.28834e+06
-2.28514e+06
2.95704e+06
3.03704e+06
5.92906e+06
-1.69596e+06
-1.16064e+06
-1.16043e+06
1.03996e+07
1.74068e+06
4.99315e+06
-2.30331e+06
-1.38607e+06
-3.12818e+06
-892985
-1.77777e+06
-1.80731e+06
-2.33843e+06
-3.4433e+06
-1.65495e+06
-3.60053e+06
-3.59728e+06
-2.08404e+06
4.59736e+06
-3.47682e+06
-1.61581e+06
-1.12591e+06
-42358.4
-42927.8
5.45813e+06
106239
-5.01059e+06
-5.01074e+06
-6.56044e+06
-6.56092e+06
9.24416e+06
-3.70302e+06
-3.40671e+06
-23019.5
-2.20501e+07
-2.20542e+07
-7.47346e+06
-7.47205e+06
9.26232e+06
-2.16901e+06
-2.16864e+06
-1.09751e+06
-809619
-384568
-158081
-157263
6.05079e+06
7.5461e+06
815799
-1.98915e+06
-1.37417e+07
-1.37461e+07
4.97042e+06
-2.13392e+06
-2.44083e+06
-2.92624e+06
-2.98142e+06
-776439
3.03815e+06
3.04627e+06
-2.39016e+06
-2.39051e+06
-220064
1.12851e+06
1.12429e+06
-4.77042e+06
-4.77146e+06
142616
-2.36015e+06
-1.50964e+06
-2.45855e+06
-9.63748e+06
-9.63747e+06
3.98236e+06
8.5263e+06
-555513
-2.97007e+06
-1.87228e+07
-1.8726e+07
-1.80535e+06
-962522
-420468
-4.3521e+06
-4.35113e+06
-2.26948e+06
1.82972e+06
-2.68413e+06
-4.10784e+06
-2.24069e+07
-2.24033e+07
-2.86122e+06
-3.58685e+06
-3.58508e+06
-2.69095e+06
-857918
-716633
-494719
4.28525e+06
-2.32576e+06
-3.06264e+06
-1.86901e+06
-1.64499e+06
5.87549e+06
3.7678e+06
-128886
-128431
-854786
-6.85728e+06
-6.85739e+06
-1.70808e+07
-1.70762e+07
-2.77029e+06
-2.08937e+07
-2.08894e+07
-2.67564e+07
-2.67585e+07
-25537.1
-25537.2
-2.06935e+06
-1.09972e+06
-1.09952e+06
-1.8581e+06
-1.94125e+06
-1.7205e+06
-1.44076e+06
-3.07151e+06
-3.60341e+06
-1.46728e+06
-1.45806e+06
-8.80882e+06
-8.81365e+06
-1.4061e+06
-1.28808e+06
5.96507e+06
-1.02939e+06
-2.02265e+06
-1.74491e+06
-2.14116e+06
1.14657e+07
-1.99052e+06
-3.93743e+06
-3.93841e+06
-1.12223e+06
2.85087e+06
-1.20107e+06
-1.52558e+06
4.18977e+06
6.78651e+06
147314
147230
3.64045e+06
-1.61111e+06
1.21484e+06
1.14107e+06
-2.22443e+06
-2.13057e+06
191196
-768355
-771554
-2.4454e+06
5.20534e+06
59793.1
-9.28103e+06
315655
194637
-9.28604e+06
-2.2915e+06
-1.84387e+06
1.73659e+06
-1.999e+06
4.22786e+06
-2.43443e+06
-2.51045e+06
-2.78446e+06
-3.34477e+06
-2.68409e+06
-1.42269e+06
58601.4
-2.06641e+06
-2.16506e+06
-2.16468e+06
-1.51662e+06
1.06851e+07
3.39698e+06
5.83378e+06
-1.39918e+06
-7.6693e+06
220967
817483
-2.00179e+06
-2.28442e+06
-7.67853e+06
-3.52639e+06
-2.73719e+06
-2.27547e+06
-3.4216e+06
-104006
-252856
-2.25734e+06
-273010
-271095
-1.33891e+06
-1.56845e+07
-1.56876e+07
4.24892e+06
-1.35553e+07
-1.35498e+07
1.12175e+07
-1.75073e+07
-1.7504e+07
-1.66192e+06
-559100
-1.45689e+06
269319
269473
-3.8191e+06
-1.74558e+06
-738119
-1.92061e+06
-1.60436e+07
-1.60385e+07
-5.89869e+06
3.60014e+06
4.94113e+06
-1.78772e+06
-1.76598e+06
-1.75542e+06
-35391.5
-35305.7
4.48261e+06
-2.11208e+06
-2.63224e+07
-2.63187e+07
-6.71149e+06
-6.70895e+06
-1.04081e+06
-1.72713e+06
-1.04996e+06
-6.89705e+06
-6.89331e+06
-3.24745e+06
-237727
-237223
-2.13768e+06
-2.13613e+06
-6.6287e+06
-6.63061e+06
-876064
-1.75996e+06
-1.75961e+06
-1.56746e+07
-1.56756e+07
-2.78046e+06
-2.89138e+06
-7372.48
-810178
5.00931e+06
3.93521e+06
-815601
2.51006e+06
1.4146e+06
-2.57716e+06
-2.73953e+06
-2.38533e+06
-2.07836e+06
-2.07811e+06
1.504e+06
-2.73023e+07
-2.73045e+07
-9.05244e+06
-9.0504e+06
4.10557e+06
-3.34055e+06
-3.34277e+06
-1.10141e+06
-1.09502e+06
-1.82012e+06
-944986
-926292
-3.255e+06
-408003
-408057
-2.48844e+06
-1.41481e+06
-1.86931e+06
1.10481e+07
2.65784e+06
2.74295e+06
-2.06651e+06
-1.78109e+06
5.23389e+06
-2.97753e+06
14638
14612.8
-9.19169e+06
-9.19302e+06
-2.11549e+06
-1.71639e+06
-2.35037e+07
-2.34997e+07
-2.11835e+06
370501
-3.2528e+06
772506
493019
3.73439e+06
3.77259e+06
-1.42624e+06
-3.46426e+06
-2.03105e+07
-2.03141e+07
-1.74223e+06
-1.74374e+06
-2.85619e+06
-2.85708e+06
-1.36958e+06
-1.36418e+06
-2.73155e+06
-1.60984e+06
-2.05086e+06
-2.79489e+06
368995
1.00389e+07
-2.1809e+06
-2.18252e+06
-2.51778e+06
-1.94711e+06
-2.13483e+06
-1.04946e+07
-1.04976e+07
6.60539e+06
-2.93851e+06
-1.02671e+06
-3.70079e+06
-3.6992e+06
1.8505e+06
1.2109e+07
-2.60699e+06
-2.60787e+06
7.35339e+06
-3.58596e+06
-3.58891e+06
-1.71144e+06
-768733
2.77423e+06
-1.24135e+06
-1.44911e+06
-1.42321e+06
-572165
-271332
-1.88886e+07
-1.88855e+07
-2.62575e+06
-1.98022e+07
-1.97993e+07
4.02071e+06
-4.80505e+06
-4.80315e+06
-1.83381e+07
-1.83415e+07
-2.21212e+06
-6.46753e+06
-6.47418e+06
-2.51305e+06
-2.51364e+06
-944439
3.53548e+06
-1.46059e+06
-2.27061e+07
-2.27028e+07
-1.56816e+06
-1.85653e+06
1.16592e+06
1.17272e+06
-3.30267e+06
-2.97547e+07
-2.97503e+07
4.36081e+06
-2.5917e+06
-1.55459e+06
-1.55447e+06
-274241
-272412
-5.36361e+06
-6.93413e+06
-6.93162e+06
-1.23413e+06
-784420
-780196
-4.12836e+06
-4.12926e+06
8.46045e+06
-84398.2
-2.87513e+07
-2.87472e+07
-1.16872e+07
-1.16886e+07
3.08136e+06
7.70748e+06
-7.14889e+06
-7.14834e+06
-1.62448e+06
-109557
-108951
-1.13886e+06
-1.13889e+06
6.15692e+06
-1.02839e+07
-1.02831e+07
-1.53198e+06
-5.93327e+06
-5.93532e+06
1.55805e+06
1.06672e+07
-3.0472e+06
-3.0478e+06
-2.14967e+07
-2.1501e+07
-1.05309e+06
1.03313e+07
-1.12858e+06
7.48348e+06
-2.04104e+06
2.22952e+06
6.01738e+06
4.39595e+06
-3.14223e+06
-3.19062e+06
-3.15727e+06
-3.15821e+06
-1.51763e+06
-1.51735e+06
-1.83015e+06
-2.6293e+06
-3.60147e+06
1.22104e+07
-579219
-2.56768e+06
-1.59821e+06
-1.23533e+06
-2.38394e+06
-2.63245e+06
-2.63053e+06
-2.14543e+07
-2.14575e+07
4.08626e+06
-3.18772e+06
-84787.4
8.34513e+06
9.81607e+06
-1.65415e+06
2.11525e+06
-1.22109e+06
-1.68479e+06
-1.68034e+06
6.46586e+06
-978712
-978495
140118
-2.86342e+07
-2.86383e+07
-1.48344e+07
-1.48386e+07
8.86437e+06
-4.41512e+06
-4.41765e+06
-9.61209e+06
-9.61133e+06
-6.74811e+06
-6.74443e+06
-2.61039e+07
-2.61002e+07
-1.32386e+06
848036
-1.55503e+06
-2.29828e+06
-1.81565e+07
-1.81593e+07
-4.69273e+06
-4.69544e+06
-1.3016e+06
-1.25265e+06
1.56393e+06
-1.01543e+06
-1.01528e+06
-2.65554e+06
-2.3659e+06
-2.18478e+06
4.07277e+06
-2.4836e+06
-2.72879e+06
-1.64199e+06
844170
836001
-2.92979e+06
-3.07518e+06
-3.01287e+06
-1.76519e+06
-1.76791e+06
-620243
-1.92663e+06
4.76517e+06
-2.02776e+06
-1.76916e+06
-1.44373e+06
-2.1671e+06
-1.25759e+07
-1.25737e+07
-3.80721e+06
-3.80622e+06
-1.95247e+07
-1.95216e+07
-2.02045e+06
-3.41257e+06
-928637
6.76745e+06
3.26598e+06
-1.30939e+06
-1.52172e+06
-3.41947e+06
355586
-59327.7
-60021.5
-2.8358e+06
-2.83765e+06
-1.56346e+06
6.01883e+06
-2.75389e+06
-2.75636e+06
-2.81785e+07
-2.81745e+07
-819230
-819133
282679
-1.05103e+06
-1.0104e+06
1.44396e+06
1.45899e+06
1.23416e+06
-1.83953e+06
-1.83991e+06
-2.64137e+06
-2.04503e+06
-1.36023e+07
-1.36004e+07
-821028
-914338
-2.01034e+06
-3.47786e+06
-2.78244e+06
-1.80593e+06
3.53557e+06
3.56931e+06
-2.35472e+07
-2.35442e+07
-2.17944e+06
-3.59832e+06
-3.59752e+06
-1.63697e+07
-1.63661e+07
-214895
2.1779e+06
2.22639e+06
-1.33598e+07
-1.33637e+07
2.68558e+06
-1.66316e+06
802586
-703145
-705117
-7.07627e+06
-7.07564e+06
1.25186e+07
585707
-2.57697e+06
-2.57914e+06
-1.38665e+06
-2.3098e+06
-1.06637e+07
-1.06654e+07
-2.81497e+06
-1.20424e+06
-1.35343e+06
-3.1836e+06
-6.85944e+06
-5.04602e+06
-5.04835e+06
5.23077e+06
-5.50382e+06
-5.50166e+06
1.08971e+07
273434
-6.86281e+06
-2.28691e+06
-2.28866e+06
-1.49379e+06
-57395.5
2.96962e+06
-3.70619e+06
-3.70561e+06
4.57048e+06
-2.85041e+06
-2.22893e+06
-2.22799e+06
-541120
-1.90525e+06
-1.86718e+06
-5.3655e+06
-2.37317e+06
-2.34455e+06
-2.23247e+06
-2.23084e+06
1.02225e+07
-704570
-1.85104e+06
-1.52052e+06
-2.24636e+06
2.06132e+06
-472118
-3.40164e+06
5.51933e+06
-1.58009e+06
-999183
-2.54238e+07
-2.54211e+07
-6.59567e+06
-2.02698e+06
-2.02864e+06
-1.20937e+07
-1.20881e+07
-504309
-1.55581e+07
-1.55633e+07
-1.59157e+06
104337
-3.33109e+06
-466274
-465468
5.46422e+06
-3.55396e+06
-3.55522e+06
752143
-2.28554e+06
1.36519e+06
1.16017e+07
-1.82923e+06
-3.11122e+06
-5.95723e+06
-5.96519e+06
-2.30376e+07
-2.30341e+07
-2.42389e+06
-3.62958e+06
-3.89014e+06
-7.62917e+06
-7.63336e+06
-3.51212e+06
-4.73379e+06
-4.73378e+06
-1.37145e+06
-1.9907e+06
-1.99088e+06
-2.87431e+06
2.15828e+06
-2.73911e+06
-2.48971e+06
-2.50184e+06
-1.33997e+06
-1.33651e+06
-45081.1
-3.10723e+06
-2.25996e+06
-2.12458e+06
-2.44485e+06
-2.60536e+06
-2.42455e+06
-2.77929e+06
-1.56848e+06
1.01432e+07
-1.38035e+06
-1.37289e+06
4.95384e+06
-1.23332e+07
-1.23308e+07
-1.34905e+06
-1.33571e+06
-1.41174e+06
47149.2
-1.50327e+06
788439
3.71091e+06
3.97354e+06
-524211
-2.0836e+06
-2.15841e+06
3.78989e+06
-2.51755e+06
-3.62743e+06
-2.62373e+06
-2.71256e+06
-2.71178e+06
31933.7
33654.7
-95584
-61575.5
7.61193e+06
-2.03588e+06
-2.03814e+06
-3.15221e+06
-2.31519e+06
-1.23891e+06
-5.68069e+06
-5.68306e+06
1.07972e+06
-2.58386e+06
-1.91769e+06
-2.9654e+06
-964884
6887.67
6837.05
-1.35294e+06
-4.17943e+06
-1.90893e+06
1.57653e+06
-2.26375e+06
-9.38253e+06
-9.3815e+06
-4.26937e+06
-4.27311e+06
5.5085e+06
-1.33528e+06
-1.49577e+06
-1.49552e+06
-2.43693e+06
-2.44014e+06
-1.98736e+06
8.36133e+06
-2.96843e+06
-2.07463e+06
-3.43915e+06
-3.03734e+06
-1.65632e+06
-1.48401e+06
-1.60353e+06
-2.64674e+07
-2.64711e+07
-2.38471e+06
-1.7712e+07
-1.77086e+07
-680481
-672281
253962
-817334
-860075
2.48454e+06
9.78072e+06
-2.99321e+06
8.82925e+06
313463
-5.23251e+06
-5.23214e+06
3.23391e+06
311634
-2.90716e+06
-2.90867e+06
-647932
-3.57856e+06
-1.57307e+06
-2.46513e+06
-2.0446e+07
-2.04431e+07
-1.38709e+06
-1.77513e+07
-1.77555e+07
589465
-2.70785e+06
1.89163e+06
-1.72961e+06
-1.99229e+06
-1.99036e+06
-906233
-1.21822e+06
-2.73834e+06
-1.4582e+06
-1.45858e+06
-3.02142e+06
-3.01702e+06
3.3636e+06
3.439e+06
-2.30898e+06
9.42243e+06
-2.30378e+06
-2.83609e+06
-2.6366e+06
-2.55588e+06
-1.95229e+06
-3.29481e+06
-3.97423e+06
-3.97709e+06
-3.17906e+06
18203.7
-4.22157e+06
-4.22387e+06
-2.17377e+06
1.08124e+06
-1.7848e+06
4.95091e+06
1.11301e+06
-1.35817e+06
-1.35847e+06
-1.96051e+06
-412501
-5.70809e+06
-5.71344e+06
4.21626e+06
-1.79136e+06
-2.44026e+06
-48613.9
-47972.3
2.23478e+06
-1.48472e+07
-1.48418e+07
-3.43036e+06
6.48262e+06
-1.91294e+06
-1.22236e+06
-1.27715e+06
1.26282e+06
17933.9
-331642
-332573
-3.68691e+06
-2.73884e+06
-1.60624e+06
-282510
-281662
1.83334e+06
-2.72514e+06
-2.72672e+06
-1.77231e+07
-1.77196e+07
-2.58384e+07
-2.5842e+07
-2.87846e+06
-1.83716e+06
-1.83358e+06
-2.95825e+06
-3.77465e+06
7.904e+06
-2.20495e+06
3.7416e+06
5.62783e+06
-1.09068e+06
-1.06481e+06
-3.92564e+06
-3.92692e+06
-3.06064e+06
4.75963e+06
287328
-534926
-1.95224e+06
463678
-1.20714e+06
-2.61526e+06
-2.71255e+07
-2.71214e+07
-1.47292e+06
-3.16667e+06
-2.80265e+06
-2.80281e+06
-2.45131e+06
-436181
1.50159e+06
-2.93634e+06
21263.7
20965.5
-3.07891e+06
-5.20619e+06
-5.20703e+06
5.28726e+06
-1.24378e+07
-1.24422e+07
-962400
441344
-2.61497e+06
442416
370794
386098
-1.3246e+06
8.37401e+06
-1.30256e+06
-2.95998e+06
-1.30515e+07
-1.30561e+07
-884160
-645396
734163
-1.17141e+06
-1.74625e+07
-1.74648e+07
-1.92554e+07
-1.92518e+07
-388520
-1.50047e+06
-3.21976e+06
-1.41979e+06
-1.42267e+06
-745437
-745397
-2.02304e+06
-3.88475e+06
-3.64087e+06
-171520
-391972
-884860
-3.57958e+06
-3.58162e+06
-465547
-1.86711e+06
2.58665e+06
-1.04136e+06
-966355
2.90354e+06
-3.08003e+06
-3.07852e+06
-1.68829e+06
-2.17196e+06
-2.17222e+06
-444844
-442899
-1.67676e+06
4.21248e+06
-877637
-2.94938e+06
-1.95778e+06
-1.96006e+06
-2.08703e+06
-6.62523e+06
-880081
4.86551e+06
-2.89256e+06
-2.97261e+06
-2.97308e+06
-1.38577e+06
-3.13653e+07
-3.1369e+07
-1.58318e+07
-1.58341e+07
-878316
-93037.9
-92505.6
-1.47991e+06
-1.95781e+06
-1.95797e+06
-2.28444e+06
-2.28576e+06
-6.5989e+06
-6.59795e+06
-2.65189e+06
4.46416e+06
-2.9431e+06
-2.94229e+06
-2.73768e+06
-3.57495e+06
-3.59567e+06
-3.59392e+06
-2.21445e+06
-1.14834e+06
-7.71204e+06
-7.70882e+06
-3.83501e+06
-7.78556e+06
-7.78514e+06
-1.23763e+06
6.98744e+06
-2.1509e+06
-2.55298e+07
-2.55262e+07
-282714
-2.50444e+06
-2.50298e+06
-1.05822e+07
-1.0584e+07
-4.31777e+06
-4.31849e+06
5.47959e+06
-2.12951e+06
-5.01047e+06
-5.01037e+06
-3.15437e+06
-3.15582e+06
850799
-4.56228e+06
6.42725e+06
-2.091e+06
-601245
1.49664e+06
-2.61079e+07
-2.61054e+07
-4.98862e+06
-4.9869e+06
-1.58068e+07
-1.58083e+07
-3.06802e+06
-1.46716e+06
-1.30489e+06
-4.39624e+06
-4.39493e+06
3.21457e+06
-602424
-605106
-3.19601e+06
-1.81078e+06
-1.83316e+06
-1.82936e+06
937032
-1.88848e+06
-2.1756e+06
-1.23304e+06
-1.23309e+06
-2.30899e+06
2.33357e+06
2.35538e+06
-2.71001e+06
-1.7942e+06
-2.29936e+06
-1.80336e+06
-1.5641e+07
-1.56422e+07
-1.88536e+06
3.79476e+06
-9314.56
-2.26706e+07
-2.26742e+07
-2.10838e+06
-4.48838e+06
-4.48663e+06
-4.01035e+06
5.905e+06
-2.2554e+06
-1.64407e+06
6.36851e+06
-2.96308e+06
-2.41167e+06
-2.41229e+06
-2.25807e+06
-2.25832e+06
-961008
-5.99626e+06
-5.99742e+06
-3.94514e+06
-2.84984e+06
-3.9503e+06
-7.40363e+06
-7.40982e+06
-974083
6.53453e+06
-3.00157e+06
-624685
-5.23576e+06
8.70051e+06
-1.34236e+06
-1.34206e+06
8.7872e+06
1.45412e+06
-2.23695e+06
-993189
-1.17345e+06
-1.61395e+06
-1.2372e+06
1.04267e+07
-2.04804e+06
-2.98605e+06
-6.04164e+06
-6.04266e+06
-2.66598e+06
-2.66637e+06
-2.00252e+06
-1.9308e+06
-1.93364e+06
-2.13609e+06
9.43676e+06
-5.24372e+06
1.13725e+06
5.14789e+06
-1.68003e+06
2.54056e+06
-1.34673e+06
-3.65581e+06
-3.65627e+06
9.24369e+06
1.1655e+07
221117
-2.09406e+07
-2.0937e+07
-1.63093e+06
-42373.8
-1.522e+06
-2.56789e+06
-2.53564e+06
-401667
4.59895e+06
-2.01527e+06
6.97605e+06
1.20803e+07
-1.57317e+06
-1.57332e+06
-2.10619e+06
-2.11819e+06
-2.0931e+06
-1.06336e+06
-7.29601e+06
-7.29471e+06
-231444
1.01362e+07
8.74764e+06
-3.19621e+06
-3.19739e+06
-1.69633e+06
-2.34661e+06
-72244.6
-1.01114e+06
4.84754e+06
-1.42679e+06
6.74371e+06
-2.12425e+06
-1.85271e+06
-1.55492e+06
-1.95237e+06
-2.20814e+06
215998
-2.34475e+06
166376
166369
-1.78058e+06
-1.77928e+06
-563379
-331584
-4.4496e+06
-1.78666e+06
-3.06929e+06
-1.56059e+07
-1.56084e+07
-990249
-2.0883e+06
-1.84675e+06
545075
3.21256e+06
3.25208e+06
-3.53196e+06
-1.87078e+06
-1.85997e+06
-676277
-678276
-5.01093e+06
-5.01105e+06
-1.40343e+06
-3.66889e+06
7.50437e+06
1.06182e+07
-1.60474e+06
5.43054e+06
-94139.1
104487
-1.06616e+06
-2.52365e+06
-3.53108e+06
6.97684e+06
-319743
320782
-1.98821e+06
-1.99284e+06
-2.87127e+06
8.39124e+06
1.75327e+06
-2.84087e+06
-2.84012e+06
-4.43509e+06
-4.43347e+06
-251819
-2.46592e+06
-2.55688e+06
-1.20077e+06
-1.22282e+06
-529269
-2.91092e+06
-2.51157e+06
-2.95069e+06
-2.76836e+06
-2.59672e+06
-1.76516e+06
1.13027e+07
-1.24385e+06
-1.23255e+06
-2.16162e+06
286789
-1.32257e+06
-2.4207e+06
721174
745910
-102702
-1.70509e+06
-1.70438e+06
-824453
-820343
-3.62287e+06
-4.45254e+06
-4.45067e+06
-3.52133e+06
-2.32354e+06
1.23513e+07
5.83954e+06
-142942
-95670
-3.17458e+06
-3.17626e+06
-3.29572e+06
4.25886e+06
183179
-1.77429e+07
-1.77383e+07
-5.55425e+06
-5.55085e+06
5.09022e+06
64616.1
53091.7
-252803
-1.38902e+06
-3.61038e+06
-3.61113e+06
-435056
-2.37811e+06
-3.04507e+06
2.541e+06
-2296.37
-2262.28
-2.31178e+06
-2.31289e+06
-1.92003e+06
-1.92237e+06
-4.35912e+06
-4.35987e+06
-1.92052e+06
-1.87683e+06
-1.87984e+06
-1.1495e+06
-284182
-3.36504e+06
-2.23272e+06
-2.23182e+06
-818467
-2.52727e+06
2.79879e+06
1.08089e+07
-2.2278e+06
-2.41187e+07
-2.41222e+07
-1.89535e+06
-3.67693e+06
-1.69432e+06
-2.06824e+07
-2.06866e+07
-2.16434e+06
-1.4027e+06
-1.40429e+06
-572658
-571202
153.668
143.272
486266
4.19783e+06
3.69058e+06
925292
3.9126e+06
-2.4477e+06
496509
-632194
-4.03713e+06
-4.03649e+06
1.20499e+07
-1.57423e+06
-1.57386e+06
-1.51333e+06
-1.87271e+06
-1.86991e+06
-467605
-1.32221e+06
-6.09635e+06
-6.09875e+06
-472223
-2.76239e+06
-448450
7.68536e+06
-1.44331e+06
-3.4554e+06
-3.45702e+06
-3.91425e+06
-3.91441e+06
1.01425e+07
-2.34218e+06
-1.43786e+06
-3.35344e+06
-1.80124e+06
-3.04346e+06
-3.09882e+06
6.03864e+06
-1.35009e+06
-1.35031e+06
-5.41033e+06
-5.41283e+06
-2.73732e+06
-114818
-106413
71696.2
-1.98438e+06
-1.81621e+06
-2.15722e+06
-1.2731e+06
-1.01942e+06
-85534
-3.45118e+06
-2.09133e+06
1.03985e+07
3.86004e+06
-1.28156e+06
-2.46713e+06
-2.46636e+06
781436
-1.75559e+07
-1.7558e+07
-1.94606e+06
-1.9433e+06
3.95956e+06
-2.4661e+06
-109703
-4.78693e+06
-1.87062e+06
-2.69871e+06
-2.69809e+06
-2.13879e+06
-1.77981e+06
7.6654e+06
-1.80185e+06
-324056
-322076
-1.00624e+06
-2.40837e+06
-3.06475e+06
-3.06102e+06
-1.5913e+07
-1.59161e+07
-7.6228e+06
-7.62865e+06
-5.97525e+06
-2.6936e+06
-2.64113e+06
-5.98695e+06
-2.54757e+06
946067
929275
-2.67035e+06
-1.17969e+07
-1.17999e+07
1.93902e+06
-2.21217e+06
-2.22225e+06
-2.60716e+06
7.53807e+06