/*--------------------------------*- C++ -*----------------------------------*\
| =========                 |                                                 |
| \\      /  F ield         | OpenFOAM: The Open Source CFD Toolbox           |
|  \\    /   O peration     | Version:  v3.0+                                 |
|   \\  /    A nd           | Web:      www.OpenFOAM.com                      |
|    \\/     M anipulation  |                                                 |
\*---------------------------------------------------------------------------*/
FoamFile
{
    version     2.0;
    format      ascii;
    class       volScalarField;
    location    "9000";
    object      sigmayy;
}
// * * * * * * * * * * * * * * * * * * * * * * * * * * * * * * * * * * * * * //

dimensions      [1 -1 -2 0 0 0 0];

internalField   nonuniform List<scalar> 
27023
(
-1.5803e+07
1.58058e+07
1.25572e+07
-1.25571e+07
-1.48472e+07
1.48495e+07
5.67027e+06
-5.66926e+06
8.79321e+06
-8.79919e+06
8.79105e+06
-8.79168e+06
2.32025e+06
-2.32094e+06
-830356
131574
481154
-1.45023e+06
1.45074e+06
2.25508e+06
-2.25009e+06
4.84437e+06
-4.8434e+06
7.25639e+06
-7.25225e+06
826890
-5.17641e+06
-38952.9
-5.66476e+06
-144233
1.04628e+06
2.24094e+06
-2.23791e+06
-101931
-900992
136880
3.83304e+06
-3.83397e+06
8.21297e+06
-8.21736e+06
-1.33072e+07
1.33075e+07
-210511
-1.45705e+07
1.45731e+07
1.35582e+06
-1.35527e+06
5.63235e+06
-5.62846e+06
-163012
5.30121e+06
-5.29746e+06
-75293.2
578157
-575239
205596
279894
-42492.3
36495.5
1.38088e+07
-1.38083e+07
74601.4
262880
-175413
-93547.2
1.13779e+06
1.46952e+06
894449
-4.34743e+06
-222653
4.02633e+06
-4.02718e+06
6.87307e+06
-6.87057e+06
137034
-137025
1.0004e+06
-999874
-1.64109e+06
1.6412e+06
-3.83846e+06
8.33289e+06
-8.33321e+06
7.26614e+06
-7.26354e+06
16626.2
-16624.2
-1.4288e+06
194712
81382.7
181933
1.30779e+07
-1.30751e+07
2.35315e+06
-496251
-6.8026e+06
6.80565e+06
-3.97809e+06
-201092
-35936.7
-11981.5
-115620
427732
7.13025e+06
-7.12803e+06
-153536
5.40705e+06
-5.40585e+06
453914
403876
-177028
6.39942e+06
-6.39812e+06
6.70365e+06
-6.70107e+06
172366
-172300
-1.35895e+06
-2.57632e+06
-2.45517e+06
362379
32757.3
-1.31994e+07
1.32009e+07
2.44552e+06
-2.44516e+06
1.22701e+07
-1.22671e+07
7.71104e+06
-7.7085e+06
-179229
-1.26388e+06
1.1597e+06
-1.25604e+06
230029
-180677
180681
1.40452e+06
2.12905e+06
-2.12844e+06
-7.31891e+06
7.32071e+06
-823338
6.02983e+06
-6.02852e+06
-920002
8162.84
6.1772e+06
1.4789e+06
1.72018e+07
-1.71995e+07
1.25951e+07
-1.25921e+07
-6240.98
-2.32354e+06
-367628
656458
939082
2.1482e+06
-2.14765e+06
215877
-32107.2
-45059.1
425707
-1.1711e+07
1.17122e+07
-7.22908e+06
7.23134e+06
-2.84174e+06
248398
174159
-1.91198e+06
1.91204e+06
161365
316924
-523103
161932
-1.26343e+06
147528
1.86692e+06
-1.49166e+06
-6.42122e+06
6.423e+06
225593
-265258
-387198
-6.96217e+06
6.9675e+06
-30411.7
20878.1
-8.23354e+06
8.23554e+06
-3.73151e+06
18480.8
3.82016e+06
-3.81985e+06
-23229.3
-8.04835e+06
8.04993e+06
-2.70052e+06
880666
-4.60199e+06
-13292.9
13279.5
-1.3014e+07
1.30161e+07
-2.15552e+06
-149557
117632
-117652
113007
-112497
1.72342e+06
-2.37214e+06
-1.84843e+06
1.84589e+06
-4.23046e+06
529420
44315.9
-721918
721962
-79385
-1.17391e+07
1.17402e+07
-46405.6
2.4481e+06
-2.44777e+06
7.27018e+06
-7.26725e+06
4.76398e+06
-4.76788e+06
-446435
2.02962e+06
-2.02937e+06
-86119.8
666998
-666895
116466
310548
-4.52775e+06
4.52815e+06
5.39229e+06
87305.9
168594
-648416
1.48646e+06
531794
-4.60504e+06
-89012.7
-513084
-3.98507e+06
3.98562e+06
140160
-2.53909e+06
3211.15
-164118
12238.6
-164300
2.19187e+06
-2.19018e+06
-1.80107e+06
849397
450350
648882
-648739
5.34081e+06
-5.33971e+06
240121
-1.6522e+06
1.23678e+07
-1.23672e+07
693762
-1.0251e+06
66275.9
184425
-112897
-1.09292e+07
1.093e+07
-1.50504e+06
1.50215e+06
-289533
-12670.6
-164550
31298.1
-851394
855108
-70443.4
-178751
458129
4.9336e+06
-329814
-199858
-4.18601e+06
4.18662e+06
19621.2
-19625.2
88791.8
103497
87745.6
-87690.6
2.37125e+06
616001
-7.10931e+06
7.11154e+06
2.69013e+06
2.74806e+06
-2.75583e+06
4.85626e+06
315543
422327
583926
498140
-496433
6.72134e+06
-6.7267e+06
175980
-3.79696e+06
3.7971e+06
145475
143908
2.89902e+06
-2.90611e+06
-6.21854e+06
131957
2.58882e+06
-51709.1
-115185
19945.1
5.38766e+06
-6.17443e+06
-2.6944e+06
6.07494e+06
482628
728804
246359
-1.86397e+07
1.86427e+07
-1.46199e+06
907883
6.86418e+06
-6.86221e+06
517661
-540113
133275
-132682
-4.03415e+06
1.80198e+07
-1.80164e+07
408832
356192
-406209
357447
1.87153e+06
-1.87127e+06
125999
-124924
-171107
-3.13575e+06
3.13609e+06
-64663.6
-3.59633e+06
-205039
205081
-8.11148e+06
8.11302e+06
-233458
206130
-683477
-1.40733e+07
1.40767e+07
-1.91902e+06
1.91913e+06
-1.00661e+06
-473910
1.45424e+06
182892
-424574
-5.4216e+06
-84934.7
4.39947e+06
72440.8
-4.40142e+06
5.24462e+06
-5.24373e+06
-4.75369e+06
2.08783e+06
140962
46243.7
-6.51387e+06
1.20838e+06
-3.8892e+06
51746.6
3.76662e+06
153489
117425
87860.3
427400
445906
-30188.3
-378254
7.68564e+06
-7.68255e+06
2.04078e+06
-4.33461e+06
-441121
-1.29834e+07
1.29867e+07
-156926
595490
-6.58014e+06
76134.1
6.59078e+06
891807
-887796
-516288
41032.5
3.93061e+06
401293
-226875
-477742
3.05206e+06
-23067.9
-3.12243e+06
668132
64559.4
231493
-212019
212041
-316383
-24143.1
-1.02189e+06
-5.04331e+06
452919
-452819
-6.45675e+06
6.45937e+06
-80732
-2.0561e+06
1.19143e+07
-1.19166e+07
191955
-187318
3.17718e+06
-3.1764e+06
-306624
307956
-2.79685e+06
72760.1
-422602
330356
930417
-9.21691e+06
9.21808e+06
-7.97066e+06
7.97219e+06
788856
-783877
1.54424e+07
-1.54399e+07
-2.07044e+06
516390
-544740
-225901
3.67973e+06
272261
-171713
-3.28096e+06
3.28163e+06
-124608
154063
172185
-130264
131362
-5.72262e+06
-1.29104e+06
4.76669e+06
-4.76582e+06
227293
12729.7
8.76573e+06
-8.76808e+06
2.07435e+06
-2.07408e+06
77535.5
2.271e+06
-1.68188e+06
-2.45274e+06
-35738.3
-698109
-9.52958e+06
9.52879e+06
-328385
4.58624e+06
148494
-3.55743e+06
3.55758e+06
1.78521e+07
-1.78487e+07
3.85745e+06
-330818
-313321
-5.88915e+06
5.894e+06
34819.3
-958625
4.72715e+06
-4.72393e+06
-5.09859e+06
7.09914e+06
-7.09786e+06
7.80554e+06
-7.80534e+06
-6.599e+06
-1.44926e+07
1.44937e+07
-287134
-240543
595117
-594943
-392654
188879
-188821
-665766
-5.98479e+06
5.98599e+06
-1.54186e+06
1.54114e+06
-948170
1.90043e+07
-1.90023e+07
-364329
41638.5
-699951
-1.75719e+06
7.91021e+06
-7.90457e+06
-3.22147e+06
3.22169e+06
-110166
226510
5.43034e+06
-33695.5
-6.08033e+06
-5.711e+06
-137844
-1.23556e+07
1.23536e+07
179372
-197311
197341
46218.7
-3067.13
-7.00903e+06
7.01121e+06
-4.35785e+06
-219865
204784
281265
-961087
230566
-5.1152e+06
-218915
5.2687e+06
-5.26395e+06
-75395
105783
2.34385e+06
-2.34338e+06
222176
-2.01154e+06
2.01647e+06
-329016
1.97983e+07
-1.9795e+07
-8.28574e+06
8.28722e+06
-2.12009e+07
2.12039e+07
-296582
-5.29195e+06
5.25425e+06
206106
-1.70905e+07
1.70929e+07
127694
2.03151e+06
-2.51532e+06
-17416.4
-75148.8
203760
-966208
-87438.3
7.044e+06
-7.04042e+06
-196239
6.94071e+06
-6.93685e+06
347342
-7.02093e+06
7.02382e+06
-522532
61224.6
-1.98057e+06
1.9833e+06
545158
-545018
101492
3.66001e+06
5.73615e+06
5.03333e+06
-5.03199e+06
1.15091e+06
-1.15077e+06
-396001
-223557
207165
-109679
4.05894e+06
-4.06265e+06
-374263
4049.5
-88237.5
88662.1
-4068.12
-320732
2.04981e+06
-2.04543e+06
-1.42527e+07
1.42546e+07
-1.25712e+07
1.25741e+07
2.022e+07
-2.02169e+07
1.35572e+06
7.21519e+06
-7.2116e+06
-193103
40759.7
-7.539e+06
7.54318e+06
-179963
5.76693e+06
-5.76511e+06
158250
-1.62587e+06
18680.2
-2.13132e+07
2.13161e+07
30156.2
-74697.1
-144082
187606
-5.71678e+06
5.71803e+06
852932
5.92372e+06
-3.30562e+06
3.30588e+06
-285300
286475
760318
-756482
435367
180987
153548
-153548
-4.68576e+06
-5.88952e+06
-1.23584e+06
-791692
4.26832e+06
1.12128e+06
-98430.3
-2.14911e+06
-1.91009e+06
76168.6
3.03548e+06
210579
-324828
-736014
548038
644691
-643135
7.07248e+06
-7.06989e+06
3.32167e+06
-484718
1238.08
150506
100807
-63386.5
-6.25434e+06
-210384
529429
21265.2
-1.69683e+06
9.34508e+06
-9.34339e+06
5.75152e+06
95195.9
-17165.3
-59828.7
4.80177e+06
-4.80105e+06
-117970
118003
553258
-550732
182030
-864159
-830342
-710661
-6.09175e+06
6.10223e+06
321906
9.87344e+06
-9.87712e+06
-816044
816117
-323917
6.06531e+06
-6.06378e+06
1.3792e+06
-45375.2
-49902.2
212899
3944.49
99533.8
741269
-741098
-154004
-1.43884e+06
6.82349e+06
-6.82184e+06
-90650.6
102030
-4.05567e+06
-100926
-990315
1.05991e+06
175341
1.13952e+06
48555.2
38355.3
-113578
-3.05235e+06
-137021
-1.19268e+06
4.08651e+06
-4.07964e+06
-58810.7
58880.7
123613
512456
-5.30095e+06
5.30195e+06
-131649
-402367
-489672
1.04107e+06
-156298
1.91607e+07
-1.91571e+07
-393018
6.2635e+06
-6.25776e+06
-259805
259891
196086
-112281
-1.10601e+06
128914
9.38111e+06
-9.38272e+06
-219892
357489
274938
88152.7
196675
-4.80581e+06
-1.89256e+06
-2.15288e+06
398379
92024.9
-92001.4
9.32877e+06
-9.32873e+06
165049
-215292
-636362
-594721
484782
-484747
36258.7
118853
-19053.2
116456
374050
2.84983e+06
-2.85506e+06
-1.0772e+06
-333432
5.5798e+06
-5.57847e+06
-567984
59701.4
885149
1.51122e+06
-1.51118e+06
-4.26785e+06
4.2746e+06
-5.3128e+06
-9.67743e+06
9.6789e+06
184772
-86981.5
-143968
-237957
697409
-697265
297214
-3.39513e+06
3.39514e+06
17715.1
-17663.6
-4.71189e+06
4.86312e+06
1.61375e+07
-1.61349e+07
-6.59915e+06
6.60095e+06
898968
-245879
5.43524e+06
-5.43389e+06
-151330
-738536
1.28141e+07
-1.28116e+07
1.05513e+06
-1.05497e+06
-6.96908e+06
-5.54671e+06
5.54777e+06
-341977
341943
6.96936e+06
320263
270710
-468170
1.59347e+06
-1.593e+06
51308.7
549349
1.12155e+06
-50279.2
3.99548e+06
6.23914e+06
-181370
5.99418e+06
-5.99044e+06
65226.4
2.24127e+06
-20738.5
475527
-475907
-59811.7
-287276
790794
-790313
-4.73986e+06
-5.64206e+06
-291151
6.02009e+06
-6.01888e+06
-7.05052e+06
-339361
-6.67708e+06
-228768
1.72089e+07
-1.72064e+07
194630
3.43401e+06
7.04093e+06
-146453
197214
6.68509e+06
228799
1.17447e+07
-1.17418e+07
-313799
313777
55602.1
-2.49623e+06
50453.8
7.89242e+06
-7.89145e+06
-3.35454e+06
3.35516e+06
-150291
366247
1.59713e+06
-1.59662e+06
-92682.2
4.50098e+06
-4.50443e+06
-454849
-1.70705e+06
137090
-56265.4
228283
-138064
1.00249e+06
-1.28992e+06
65686.5
533043
-532987
-413031
585025
957895
-311077
122958
-569159
-858618
-238675
472041
535623
2.63303e+06
-4.5006e+06
3.55362e+06
-189412
-236192
-232797
-1.28148e+07
1.28132e+07
4.4235e+06
-2.48954e+06
2.48537e+06
-1.05366e+06
-1.62344e+06
7.54381e+06
-7.53847e+06
1.56318e+06
2.29971e+06
-2.30016e+06
-3.79065e+06
-91846.6
1.71577e+06
-4.4713e+06
6.27945e+06
3.70563e+06
-177539
5.09675e+06
256439
163483
1.6427e+07
-1.64237e+07
528755
-1.75486e+06
3.05916e+06
-3.06208e+06
6.33667e+06
208025
406578
338707
-2.67073e+06
2.67734e+06
-25110.4
-1.20875e+06
-458708
-1.69164e+06
1.69165e+06
-251326
-31218
423609
3842.38
-2.38345e+06
-96522.9
4.28251e+06
162543
-2.47651e+06
2.47755e+06
6839.75
-233792
600444
582786
23320.6
-8.97528e+06
8.97397e+06
553479
-1.82383e+06
49797.6
-1.32206e+07
1.32193e+07
1397.02
1.23028e+06
-224232
-3.6067e+06
3.6073e+06
-1.1843e+06
-6.37755e+06
6.42508e+06
1.01092e+07
-1.01084e+07
-31563
-1.20015e+06
1.05912e+06
-1.05889e+06
-4.44404e+06
2.0744e+06
-304418
666933
-666821
-634726
6.83065e+06
-6.82979e+06
-414573
-351576
-1.42572e+06
-7.99667e+06
-4.31995e+06
-91365.3
7.99413e+06
452274
607800
-1.81005e+06
-2.84221e+06
2.84476e+06
3.95848e+06
-4.25758e+06
364696
4.61172e+06
267929
-88244.3
-31490.7
-256231
-3.36654e+06
-221825
42397.6
1.16505e+06
-1.24868e+06
-153906
-275538
805465
-208312
161188
-1.79457e+06
167947
240386
-1.84484e+07
1.84507e+07
756223
-644172
-2.41338e+06
2.41806e+06
2.84752e+06
-2.847e+06
-113144
-305575
81455.1
-1.77057e+06
1.77216e+06
461701
-461648
176947
479511
-22280.2
-1.2031e+06
-511213
-336049
-1.1169e+06
343025
8199.85
7.26341e+06
-7.25933e+06
4.94837e+06
-4.82324e+06
2.28112e+06
555633
593104
-593001
1.22504e+06
1.84497e+06
4.56931e+06
80316
-157384
181725
31939.1
-288533
-157761
-304385
-141059
-182672
7.50579e+06
-7.50168e+06
-260142
1.50856e+06
3.67812e+06
-103783
-111247
925799
-923898
-4.04983e+06
23316.4
-7.08214e+06
7.07805e+06
7.9211e+06
-7.92521e+06
960908
-449605
225624
628138
-8.58809e+06
8.5894e+06
3.38365e+06
-3.3908e+06
1.70578e+06
570439
-570364
-544612
199564
-997945
256774
-255589
-4.17112e+06
-2.51316e+06
270277
-485753
-7.38606e+06
7.38847e+06
4.59697e+06
-125045
127608
15535
422205
-131290
5.22973e+06
-5.21372e+06
-586845
586916
-1.14707e+06
-5.85663e+06
5.87474e+06
-3.26972e+06
3.2702e+06
2.1781e+06
33584.3
470083
225230
5.31798e+06
-5.31552e+06
-866753
-1.99832e+06
-83670.6
34296.4
-1.54531e+07
1.54564e+07
204290
1.04431e+06
62433
3.03984e+06
-3.03939e+06
-203739
-1.36399e+06
-65816.3
-73205.4
5.92281e+06
-5.92149e+06
112065
5.91958e+06
-5.91753e+06
208610
-69759.7
234908
-247519
5.1287e+06
624747
70884.8
-489236
-105388
2.13092e+06
-1.99426e+06
460284
-457377
93703.9
6.26495e+06
-6.26863e+06
9.12271e+06
-9.12227e+06
-28152.8
8.32622e+06
-8.32458e+06
-1.32172e+07
1.32183e+07
-181451
181435
29578.9
453931
-453863
-553170
768447
-2.31845e+06
-1.42116e+06
-176888
77195.9
51245.1
-48987.6
-4.22179e+06
4.22047e+06
1.08318e+06
-149081
169856
203643
-378891
150159
-159462
-539855
60798.5
6.02065e+06
-6.02478e+06
99054.6
-5.36644e+06
-63486
-101395
-2.94465e+06
-2.55e+06
5.5962e+06
-5.59941e+06
5.10954e+06
-211444
-903837
1.02116e+06
-339197
267584
-93419.4
-6.72273e+06
6.72786e+06
126025
-1.53552e+06
4.18859e+06
-5.75697e+06
6.53989e+06
94566.6
5.74647e+06
-173242
393609
3.22039e+06
3.14036e+06
-2.05169e+06
1.20802e+06
222942
24739.1
-36090.2
-28549.4
422461
-4.19038e+06
120040
328395
-328332
108323
1.29898e+06
-2.00971e+06
-2.36397e+06
440201
-7.89419e+06
1.01124e+06
-269972
137970
229108
7.8885e+06
416244
-913113
893212
-187270
30971.6
-16754.3
-160547
831196
-829983
195329
-8.29729e+06
8.29655e+06
273909
8.35999e+06
-8.3578e+06
835864
1.86964e+07
-1.86929e+07
233277
168226
-590528
262951
-262928
434597
-1625.15
-257469
-423603
9.00928e+06
-9.0088e+06
-5.14585e+06
1.76635e+06
1.48072e+06
-178241
3.00666e+06
-3.00977e+06
601195
-598498
865878
46414
1.73937e+07
-1.73911e+07
6.59258e+06
-6.5908e+06
-8336.56
460537
1.97015e+06
7.5976e+06
-7.59455e+06
-173225
-971469
975030
107594
-101764
-6.09531e+06
6.09648e+06
173664
819109
-819004
8.8661e+06
-8.86663e+06
-596450
-130329
-967974
45257
4.117e+06
733634
-42557.2
2.24791e+06
5.55478e+06
-129615
917993
-133306
525462
-525353
-2.8039e+06
-1.32423e+07
1.3243e+07
5.68556e+06
-5.68462e+06
-1.43773e+06
-6.8344e+06
6.83761e+06
2.60899e+06
-2.60334e+06
-962027
2.85037e+06
-2.83739e+06
113857
-227800
227869
65064.9
-147383
-487534
258052
5.01305e+06
-5.08173e+06
270242
172176
-2.61664e+06
-211685
-299162
300990
-3.9823e+06
3.98275e+06
82500
381677
7.94856e+06
-7.94723e+06
-106672
4.38497e+06
112958
-1.25149e+06
1.05549e+06
5.42082e+06
-397841
-380383
35804.7
-7.0228e+06
7.02405e+06
-2.43823e+06
2.44049e+06
-1.94408e+06
1.9447e+06
1.67532e+06
-1.66216e+06
-22057.9
231468
28206.8
230320
-4.39183e+06
-871076
4.38001e+06
-4.38394e+06
-61177.1
109260
1.96595e+06
-5.88666e+06
5.88714e+06
3.44447e+06
503406
-2668.51
5.7759e+06
-5.7741e+06
-6.03042e+06
-208749
-1.35272e+06
1.35326e+06
-3.3579e+06
-7.20688e+06
7.2103e+06
-313216
-2.63023e+06
-5.83242e+06
-123452
-1.07348e+06
973563
56393.9
1.70254e+06
1.07368e+07
-1.07334e+07
-47420.3
1.32443e+07
-1.32425e+07
1.27498e+06
6.10591e+06
-6.10421e+06
-1.64335e+07
1.64369e+07
-101685
-1.65186e+06
1.65092e+06
-979458
979752
63370.4
-4.14323e+06
185590
1.50337e+07
-1.50316e+07
-127234
-401693
-5.11651e+06
5.09854e+06
167278
1.19036e+07
-1.19019e+07
2.11159e+06
-106476
-19552.9
19603
-1.09771e+06
1.10064e+06
-8.84469e+06
6.77671e+06
-6.77496e+06
192353
2.95668e+06
-2.96422e+06
3.9576e+06
-3.96128e+06
314226
4.12462e+06
1.04976e+07
-1.04962e+07
-4.00167e+06
4.00208e+06
1.97614e+06
188826
-1.18154e+07
1.18129e+07
730303
203610
-202617
176401
-176399
-3.61372e+06
1.35147e+07
-1.35152e+07
588357
-6.09579e+06
6.09719e+06
-3.13234e+06
-967210
-1.52451e+06
1.5247e+06
-9.04125e+06
9.04256e+06
-1.89886e+06
377891
-179912
3.15182e+06
-216930
-1.29627e+06
3.39272e+06
4.75019e+06
70978.2
-318795
-2.41433e+06
2.41472e+06
619651
-619538
208714
-62972.9
-11300
257302
206762
-23427.2
-24496
92371.3
77131.6
2.80916e+06
-2.80747e+06
-1.62243e+07
1.62272e+07
1.11295e+06
37409.2
-4.12877e+06
-202114
-213148
1.42616e+06
-2.22492e+06
-999233
3.29993e+06
-3.30124e+06
316634
-4.57321e+06
4.57398e+06
-2.17114e+06
-8.58268e+06
8.584e+06
-7.2477e+06
7.2497e+06
-2.35854e+06
-7.23365e+06
7.23657e+06
2.34904e+06
-2.34894e+06
7.58317e+06
-7.58029e+06
1.94751e+07
-1.94724e+07
-48203.1
2.12556e+06
1.17918e+06
-404079
-1.38507e+07
1.3854e+07
-7.30744e+06
7.31038e+06
-66579.8
-437085
-2.19485e+06
254134
-254111
1.36688e+06
208660
-376546
-1.86802e+06
-435073
-96152.5
-403255
4.42077e+06
-4.42492e+06
-440633
-542610
998017
3.14366e+06
-3.14617e+06
112564
669808
1.9518e+06
-1.1232e+06
-191235
133616
-53317.9
1.40977e+07
-1.40968e+07
2.7632e+06
-2.76271e+06
1.27167e+07
-1.27152e+07
-55503.2
111572
-217200
2.27071e+06
-3.23702e+06
126035
-75187.7
272467
1.13015e+06
-1.34038e+06
1.33972e+06
6.90581e+06
-6.91131e+06
734000
2.62602e+06
-1.09333e+06
1.09827e+06
2.10671e+07
-2.10641e+07
62851.8
-62845.1
-2.40606e+06
-105089
156655
720791
-217425
210028
-652880
653037
236295
-1453.37
8.1832e+06
-8.18516e+06
-405379
282632
661195
-314205
-319605
180502
4.95683e+06
-5.02124e+06
1.31334e+07
-1.31307e+07
-285905
2.27381e+06
-2.27352e+06
8.90509e+06
-8.90556e+06
-160159
5.43308e+06
-5.46758e+06
-1.04557e+07
1.0457e+07
-1.98166e+06
-257309
-6.71584e+06
-3.60931e+06
3.60815e+06
-1.14443e+07
1.14418e+07
134330
6.84598e+06
-6.78825e+06
6.79129e+06
177954
-319201
-4.31917e+06
4.31986e+06
-41797.5
163967
-174915
617956
-7.29443e+06
-6.75999e+06
6.76235e+06
3.67011e+06
6.49946e+06
-6.49758e+06
1.26448e+06
2.4108e+06
7.28957e+06
-6.38242e+06
6.38542e+06
-1.83211e+06
3.42543e+06
47976.1
1.61375e+06
-1.61359e+06
945722
1.61497e+06
4.77845e+06
-4.77734e+06
95569
-2.19773e+06
2.20524e+06
8.83085e+06
2.27084e+06
-2.2179e+06
2.61612e+06
-2.61442e+06
1.52373e+06
-1.24378e+06
-229015
-264714
188914
-2.25118e+06
-605683
-163853
3.64015e+06
170148
-1.79625e+06
1.1623e+07
-1.16224e+07
-4.01964e+06
4.26179e+06
-4.26592e+06
7.64743e+06
-7.64486e+06
858841
-8.31145e+06
8.3132e+06
1.14507e+06
667265
169812
-2.34629e+06
2.34423e+06
839955
-3.9982e+06
3.99905e+06
-4.44231e+06
13388.8
5.59376e+06
-333701
-147621
-370266
-1.07616e+06
1.07497e+06
1.56165e+07
-1.56142e+07
65944.3
168062
2.68071e+06
-7.53594e+06
7.53898e+06
-33945.8
3.44438e+06
-3.44697e+06
310460
-281863
281904
-404100
3.22277e+06
-769906
-1.35673e+06
1.27531e+06
3.24199e+06
-3.2429e+06
-3.42783e+06
220023
359209
-15030
-221332
-793001
-34092.2
-867481
393922
-1.3955e+06
3.24514e+06
-3.24931e+06
290598
1.27797e+07
-1.27796e+07
352568
-347456
427918
-343395
355388
-3.16024e+06
5.54826e+06
90591.7
142573
26516.6
-19843.1
945542
756.92
-386629
51632.6
-2.25573e+06
2.25775e+06
6.55024e+06
-6.55312e+06
1.67873e+06
-1.07355e+06
2.39229e+06
-3.63684e+06
3.63616e+06
-304207
-16895.1
77816.1
-6.72029e+06
6.72213e+06
2.41383e+06
256016
-325620
150875
-85038.6
-286534
288383
274185
-21192.2
-431106
-2.50397e+06
522261
5.48705e+06
-5.48544e+06
-7.70264e+06
7.70662e+06
3.32386e+06
83392.5
546705
-546619
-7.64576e+06
7.6505e+06
16167.6
2.94506e+06
161675
1.3843e+06
222701
131250
703577
357796
-450310
-2.12335e+07
2.12365e+07
-89373.3
1.58192e+07
-1.5816e+07
3.03959e+06
-3.05103e+06
5.27045e+06
-676815
537755
-2.24622e+06
1.72761e+06
-34524.7
-2.3148e+06
-3.94535e+06
7.79989e+06
-7.80693e+06
-4.04343e+06
3.94131e+06
-3.322e+06
3.3227e+06
1.70003e+06
-322068
-17148
456164
1.46082e+07
-1.46057e+07
462202
-6.81792e+06
6.81982e+06
4.10606e+06
174203
-2.77284e+06
202022
6.85757e+06
-6.85376e+06
1.46912e+06
214377
41856
-221121
221073
-438434
434903
4.70758e+06
-5.01575e+06
-131844
-1.07192e+06
1.16649e+06
340299
12025.2
-151988
260251
-8956.31
-7.5411e+06
7.5446e+06
-222933
350720
-6.63877e+06
6.64099e+06
146546
-6.73123e+06
-40918.1
-2.10567e+06
6.74035e+06
-46790.3
46776.7
115642
5.4135e+06
-8.10935e+06
8.11364e+06
4.97046e+06
-295342
152.871
-681.165
1425
1.91439e+06
8.26408e+06
-8.26232e+06
-159591
83959.6
35831.5
290129
-88814
-344054
-350667
1.48171e+06
-1.48042e+06
285844
-118026
960458
1.08746e+06
-1.0878e+06
5.75113e+06
-5.89606e+06
5.89848e+06
6.82304e+06
-6.82159e+06
-2.08712e+07
2.08741e+07
325822
2.09762e+06
-2.1675e+06
-179318
107755
3.13144e+06
-634699
-3.18042e+06
-4.53557e+06
293119
-272572
-4.30151e+06
4.3024e+06
-428975
-4.64441e+06
488257
2.1349e+06
-199009
-81820.1
-134013
227344
8.62247e+06
-8.62124e+06
-274640
36081.5
-1.69871e+06
1.69766e+06
-351132
-275993
-19490.7
8507.26
-108316
107208
503920
2.22874e+06
-2.22909e+06
-257426
-7.8735e+06
7.87611e+06
-387813
-5.35864e+06
119011
5.34e+06
191383
-170439
649227
-2.24363e+06
-759570
-17444.6
-7.71008e+06
7.71263e+06
481043
-389005
-86193
492339
-5.06189e+06
5.06254e+06
1.99663e+07
-1.99626e+07
-3.98191e+06
-647292
-581885
-7.10703e+06
7.11149e+06
142064
-142013
-142333
-307319
4.18428e+06
155465
3.97567e+06
1.64562e+06
-6.40557e+06
6.40825e+06
-949718
111372
-4.63323e+06
-193461
-403139
-3.54155e+06
3.13662e+06
-3.13584e+06
-608835
-279123
279184
417864
-416191
211203
4.885e+06
-82045.6
-5.04106e+06
-947285
950859
-818888
4.03761e+06
-218461
4.66379e+06
-232495
-1.33476e+06
1.33488e+06
375865
-1.93722e+07
1.93746e+07
-4.84973e+06
4.85066e+06
82601.3
299872
-298393
-10897
-185237
185235
-3.9243e+06
3.9249e+06
-1.12746e+07
1.12719e+07
34941.6
2.08126e+06
1.76506e+06
-1.76467e+06
-174618
-173290
6.23921e+06
-6.23669e+06
-1.35436e+06
-20095.3
6.97024e+06
-6.9681e+06
-2.65641e+06
6.61288e+06
-6.61668e+06
167729
100429
-1.40059e+06
7.37909e+06
-7.3779e+06
122167
2.56255e+06
-2.56002e+06
-6.69833e+06
6.69997e+06
4.4137e+06
-4.41718e+06
2.62812e+06
-4693.44
-3.54094e+06
3.53816e+06
-3.26053e+06
3.26124e+06
-2.11861e+06
-857875
1.16199e+06
820101
21384.6
1.28315e+06
1.17073e+07
-1.17071e+07
5.93777e+06
-5.93615e+06
-3.84988e+06
3.85021e+06
-139957
-1.90884e+06
1.67955e+06
4.56671e+06
-4.56569e+06
-4.69992e+06
-683425
686322
-141818
-205928
2.69576e+06
-2.68212e+06
-398272
-316677
232535
-39594.5
39642
-156971
-5.55018e+06
5.53961e+06
140462
1.47943e+06
-377593
185521
-9.49442e+06
9.49231e+06
208757
-5.13691e+06
512166
-1.37076e+07
1.37098e+07
667982
5.63953e+06
-5.63806e+06
-253255
-3.64081e+06
-892577
29647.2
-2.76036e+06
-37898.6
-1.12705e+06
1.12743e+06
481671
-483871
592419
-4.29433e+06
4.2949e+06
-2.18905e+06
-1.73112e+06
2.18876e+06
-3.72309e+06
3.7276e+06
2.85944e+06
-1.24163e+06
-36472.8
740030
-2.75277e+06
2.09987e+06
363246
-368477
747759
-4.63248e+06
-267800
-1.82271e+06
-104960
314621
-508924
1.16688e+06
173070
-112765
-3.39256e+06
3.39293e+06
-746942
747047
-302260
1.95094e+06
-1.93386e+06
-1.01909e+06
-1.84108e+06
2.76421e+06
-282364
1.39528e+06
61356.5
-725149
841595
-1.16322e+06
1.1633e+06
-2.06615e+06
-131634
237090
2.07536e+07
-2.07501e+07
11840.1
194820
1.0341e+06
75825.4
131811
-1.14789e+06
523896
190246
-2.89109e+06
45722.6
32763.6
-32775.7
2.07819e+06
-2.12373e+06
262947
544459
6.35521e+06
-6.36185e+06
2.43948e+06
285560
2.04333e+06
-5.47977e+06
5.48182e+06
48940.4
247901
5.76262e+06
-2.83456e+06
425047
-166877
456810
-129144
76039.8
95509.7
146079
132820
2.27402e+06
-29181.7
250598
-250562
-2.15639e+06
2.16075e+06
502568
-505954
292701
-299158
3.52645e+06
-1.01027e+07
1.01063e+07
-102432
268185
-68494.5
3.29677e+06
-5.51835e+06
-4.18045e+06
249691
-1.21407e+06
1.21071e+06
-3.47725e+06
3.47585e+06
-7.66431e+06
7.65879e+06
76846.7
-6.92187e+06
192825
-163344
-227790
4.13593e+06
-85484.3
-217683
419035
-6451.69
6.92327e+06
-309022
944729
6.82906e+06
-57118.2
64063.3
-276746
443274
-1.4492e+06
1.59035e+06
-1.59004e+06
5.81158e+06
-5.80978e+06
-3.88172e+06
683911
-411791
-2.6901e+06
2.68907e+06
2.7108e+06
317653
-151617
151655
108632
-132276
-125210
-875995
1.2811e+06
-1.26945e+06
247432
-5.28827e+06
-131868
-222270
-6.75942e+06
6.77054e+06
-764722
4.9082e+06
-4.90689e+06
334819
-334433
-371079
5.79399e+06
-5.79225e+06
-107652
-366306
-151077
-1.25042e+06
-1.0575e+06
1.0595e+06
-6.05687e+06
6.05899e+06
116534
585416
5.36721e+06
7.3743e+06
-7.37243e+06
7.31623e+06
-7.31321e+06
921336
-6.53939e+06
6.54096e+06
3.87712e+06
-196198
-1.96787e+06
1.96813e+06
-2.57414e+06
255852
255366
1.40351e+06
-11254.4
9813.86
-5.31638e+06
5.31824e+06
-3.47588e+06
3.47628e+06
6.33653e+06
-6.34059e+06
128373
3.4176e+06
-3.42019e+06
-295128
2490.94
-11532.4
4.7904e+06
-4.78932e+06
657516
296.126
1.03033e+06
-448823
230.574
-1.6172e+07
1.61741e+07
-609378
419523
-261842
-7.37379e+06
7.37555e+06
80706.1
430537
-440065
5.51577e+06
-5.51136e+06
-46472.1
45654.4
3.32029e+06
2.9344e+06
3.22166e+06
111270
4.97868e+06
3.13309e+06
-3.32181e+06
-2.70269e+06
1.76302e+06
-1.76284e+06
491531
391150
-391033
379211
-1.96321e+06
1.96545e+06
49792.5
-74034
-6.7637e+06
6.76567e+06
-402541
2.39608e+06
6.59999e+06
2.32758e+06
-59287
-5.93998e+06
5.94225e+06
1.42724e+06
-1.41483e+06
-1.89779e+06
-37149.6
-1295.17
203350
-355379
409382
-439811
-1.94892e+06
-480621
480689
-6.90118e+06
6.90334e+06
-250021
-854521
819685
152991
88480
365835
-338873
49081.7
-71589.5
65363
-70941.2
-24053.3
1.40961e+06
-3.91074e+06
-222260
5.01602e+06
-5.01443e+06
731821
-4.17289e+06
4.17371e+06
1.40429e+06
-1.4031e+06
-5.09595e+06
-195592
-1.09643e+06
43064.7
157002
1.43182e+06
-1.4316e+06
-291140
-79184.4
2.21621e+06
-265123
988142
-986354
-75416.1
403482
7.49068e+06
-7.48645e+06
-1.55379e+07
1.55406e+07
-2.8095e+06
2.80764e+06
-6.59404e+06
865138
-228493
6.566e+06
279574
4.75583e+06
-4.72955e+06
443019
-7.01003e+06
7.01458e+06
-4.47233e+06
-303439
294878
46947.5
3.16107e+06
299431
4.92295e+06
376115
-1.41018e+06
-34311.1
-925599
925720
5.52713e+06
-7.82607e+06
7.82702e+06
-2.55352e+06
2.55382e+06
1.3387e+06
3.89019e+06
-7.60552e+06
7.6103e+06
-160697
21521.7
2.67085e+06
5.27807e+06
-3.13043e+06
361381
9.45943e+06
-9.456e+06
137554
1.15118e+07
-1.15151e+07
-96837.3
96840.7
-5.48035e+06
-6.3702e+06
-54795.1
-4.75402e+06
6.34266e+06
-281688
1.29088e+06
-1.28901e+06
6.21922e+06
-6.21707e+06
-397138
-2.70833e+06
-538724
337487
-3.75148e+06
264497
-263313
7.01846e+06
81761.1
-34244
47846
-1655.06
-3.64677e+06
3.64672e+06
81617.2
-286916
286943
1.62728e+06
2.43492e+06
-2.43615e+06
-213321
3.4078e+06
479661
1.74087e+07
-1.74056e+07
105844
-133153
-51195.9
-185586
-930776
128205
454874
-1.21381e+06
-7.91285e+06
7.9148e+06
313355
290978
70288
81114.4
-3.38104e+06
169630
279255
-379050
-1.35929e+07
1.35932e+07
-7.31578e+06
-138208
7.28951e+06
1.70021e+06
1.91736e+07
-1.9171e+07
233474
-7.69242e+06
-364256
7.61862e+06
1.41419e+06
-1.41421e+06
-1.2143e+06
1.21482e+06
175929
-191133
337561
-133157
4.78698e+06
-4.78565e+06
-91888.4
-2.78188e+06
-607135
492923
956172
5.15566e+06
-5.16081e+06
-1.45417e+06
-338986
-834376
-7.42268e+06
7.42535e+06
5.45492e+06
-5.46016e+06
-23889.8
9414.41
-4339.46
-135214
-791839
-497928
883947
-883896
83253.4
36710.9
1.13754e+06
137385
190190
-1.82884e+06
1.82906e+06
80547.5
3.45358e+06
-86102
-6.27672e+06
6.28024e+06
2.66484e+06
-2.66275e+06
-4.07999e+06
-208563
5.03872e+06
-5.04944e+06
-866368
-3.50185e+06
273291
806354
-2.52555e+06
7.85071e+06
-7.84628e+06
-141283
-3.15132e+06
-1.5312e+06
1.52338e+06
1.34203e+06
-1.34067e+06
335731
7.70577e+06
-7.70031e+06
1.3232e+07
-1.32289e+07
399845
-386372
-3.8716e+06
-1.8036e+06
984385
-244530
6.26815e+06
-6.27193e+06
22965.5
-7.72719e+06
7.73558e+06
342141
505534
-27301.8
2.9189e+06
-2.92764e+06
55028.7
-581483
-80128.2
185621
-5501.67
-2.52679e+06
2.52723e+06
-360759
1.09732e+06
2.62939e+06
9.32932e+06
-9.32928e+06
-1.9537e+07
1.95397e+07
-4.09599e+06
-2.63918e+06
-6.88319e+06
6.88842e+06
-2.08292e+07
2.08321e+07
-5.33706e+06
5.33255e+06
-3.80441e+06
3.80501e+06
933590
1.39843e+06
1.7203e+07
-1.72006e+07
105556
1.56128e+06
-1.56101e+06
2.13757e+06
214057
298647
2.09205e+06
-2.0909e+06
5.74717e+06
-3.71234e+06
359293
-178055
5.68026e+06
2.45958e+06
-130196
298867
-1.86781e+06
8.26145e+06
-8.25982e+06
1.03782e+07
-1.03807e+07
4.08952e+06
-4.08875e+06
-5.74764e+06
1.537e+06
-1.53644e+06
-1.43337e+06
1.43333e+06
42290.5
47639.6
-242431
224665
7.22889e+06
-7.22503e+06
-3.3374e+06
3.3378e+06
2.12271e+07
-2.12241e+07
109429
-656585
-99680.8
426027
-401099
-1.7534e+06
1.75341e+06
-36288
-92105.4
-2.36846e+06
83474.1
-1.50311e+06
-5.68058e+06
-7.3703e+06
7.37299e+06
-2.4431e+06
166044
-74067.4
-5.78066e+06
5.78352e+06
350482
4.65229e+06
-4.65172e+06
-68018.2
-1.21514e+06
-885404
-461401
461426
-472618
1.44639e+07
-1.44619e+07
-3.56058e+06
867620
513123
3.15294e+06
-42709.5
-29616
206030
-205182
-1.84106e+06
82964.8
-890687
-1.68799e+06
5.69957e+06
5.96261e+06
281046
2.64982e+06
-2.14393e+06
2.03379e+06
115156
-118968
-7.18402e+06
1.96107e+06
1.32913e+06
62292.3
-272915
1.66715e+07
-1.66689e+07
2.34719e+06
7.15624e+06
724093
-722726
-1.11681e+06
1.04872e+06
-1.04842e+06
-5.64694e+06
5.6488e+06
640234
-2.00099e+07
2.00127e+07
255865
4.36772e+06
86127.5
43764.6
270679
2.92603e+06
-2.9318e+06
243516
6.38555e+06
-6.38873e+06
-185717
137950
48053.3
-47837.7
-2.44877e+06
-880287
-406145
1.62118e+07
-1.62084e+07
2.44733e+06
-216463
899564
416895
1.59734e+06
-1.59719e+06
8.70674e+06
-8.70525e+06
66616.4
-374056
-1.54621e+06
265695
1.20824e+06
2.35745e+06
478177
-481008
511234
-97110.5
195070
125946
-394015
130648
266118
-428503
761538
1.0918e+07
-1.09149e+07
-62804.4
-6.26168e+06
6.26474e+06
-2.11507e+06
2.11761e+06
109844
-5.89411e+06
5.89631e+06
-2.92216e+06
-3.59261e+06
6.1905e+06
782477
361800
-379838
336289
-7.58568e+06
7.59111e+06
1.93785e+06
69706.1
-69506.3
1.86023e+07
-1.85988e+07
985.444
-7.18067e+06
7.24403e+06
51648.1
376401
333899
5.38955e+06
-5.3885e+06
-2.56948e+06
-99175.1
3.56434e+06
-3.56373e+06
-203931
20844
-102459
1.90296e+06
-8.0009e+06
8.00393e+06
1.85332e+06
238102
14605.1
-1.43046e+06
8.95621e+06
-8.95442e+06
-1728.44
6.66141e+06
-6.56374e+06
-4.26452e+06
8.63816e+06
-8.63726e+06
6.56835e+06
313690
1.38683e+06
-261781
1.79427e+06
-1.79404e+06
1.11325e+06
-778267
6.51642e+06
-6.51478e+06