/*--------------------------------*- C++ -*----------------------------------*\
| =========                 |                                                 |
| \\      /  F ield         | OpenFOAM: The Open Source CFD Toolbox           |
|  \\    /   O peration     | Version:  v3.0+                                 |
|   \\  /    A nd           | Web:      www.OpenFOAM.com                      |
|    \\/     M anipulation  |                                                 |
\*---------------------------------------------------------------------------*/
FoamFile
{
    version     2.0;
    format      ascii;
    class       volScalarField;
    location    "9000";
    object      sigmaxz;
}
// * * * * * * * * * * * * * * * * * * * * * * * * * * * * * * * * * * * * * //

dimensions      [1 -1 -2 0 0 0 0];

internalField   nonuniform List<scalar> 
27023
(
1.65273e-13
1.0828e-13
7.17435e-13
5.50644e-13
0
-5.46601e-13
4.5415e-12
-1.12177e-12
-1.06132e-13
-5e-13
-6.81939e-13
-9.65992e-13
-6.89591e-14
3.66887e-14
8.3136e-13
1.01815e-12
-9.22057e-13
0
3.37296e-12
0
-7.30886e-14
3.88557e-15
-2.63775e-12
-9.33366e-13
2.39108e-12
3.85153e-12
1.78819e-12
8.42414e-12
-1.39657e-12
-5.18181e-12
9.95013e-12
4.15017e-13
5.11643e-12
-4.93405e-13
1.0129e-12
-1.09414e-11
1.74901e-12
3.49796e-12
1.96068e-13
-2.83947e-13
-2.10167e-13
-9.33167e-14
-1.10714e-11
-1.14109e-13
1.14087e-13
5.20431e-12
-3.75579e-12
-4.8928e-12
4.89279e-12
-3.30722e-12
3.69524e-12
-1.44268e-12
8.61235e-12
4.69762e-15
1.03672e-13
1.79896e-12
2.91555e-12
1.36349e-11
-2.44489e-12
-1.11615e-12
-7.49543e-13
-1.98677e-11
8.02376e-12
4.56368e-12
-1.18359e-11
-2.34369e-12
1.22087e-12
-5.28276e-12
1.15383e-12
-1.15802e-11
0
-3.53497e-12
-3.39639e-13
-1.96613e-12
-2.11607e-12
-1.26331e-12
1.27328e-14
-6.74721e-14
7.85139e-12
-3.59119e-12
1.25703e-12
4.23254e-12
-3.32874e-12
-6.24551e-13
1.57175e-12
-5.01346e-12
-2.69416e-12
2.95311e-12
5.57616e-12
-4.83751e-12
2.85064e-12
1.43407e-13
-2.85842e-13
-4.0265e-13
-8.74281e-14
-3.86418e-12
-4.06845e-12
3.6818e-12
-5.90727e-12
3.20371e-12
-2.19033e-12
-9.22405e-12
-3.53056e-12
-3.97438e-14
2.17004e-12
1.39335e-11
-1.33529e-12
9.5559e-13
-5.15606e-12
2.87437e-11
-1.30196e-11
-1.00524e-13
1.04451e-12
-4.9281e-12
7.53584e-13
2.21282e-12
5.35359e-12
-3.60303e-13
-1.58826e-12
2.50468e-12
-1.40593e-11
8.33785e-12
-7.8718e-13
2.13443e-12
-3.8892e-12
1.80696e-12
-5.64188e-14
3.33263e-13
3.42626e-13
2.41658e-12
-1.11198e-12
2.53062e-14
-1.24352e-14
1.46999e-13
-1.00895e-11
-7.83067e-12
-2.03964e-13
2.44871e-12
2.54391e-12
2.84958e-13
-7.27531e-13
-5.60238e-12
-2.49048e-12
-2.38748e-12
-1.61635e-12
1.87287e-12
-9.4235e-12
-3.3466e-12
1.20706e-12
2.2303e-13
-3.11993e-13
1.18965e-12
-6.85772e-13
2.99079e-12
2.92445e-12
2.12219e-11
-9.04083e-12
6.10112e-12
6.32073e-12
-2.7718e-12
4.50349e-12
-1.00521e-11
9.62797e-12
1.03105e-11
-5.59719e-13
-5.8976e-13
-4.06826e-13
2.17468e-12
-3.46705e-13
-1.68324e-12
1.46744e-12
7.10317e-12
2.41285e-13
-2.34153e-12
0
1.27965e-11
1.33955e-11
-3.32275e-12
-2.45512e-12
3.90269e-13
1.03796e-12
-4.0224e-12
-2.59081e-12
-3.0099e-12
-6.91313e-12
1.95903e-12
1.84779e-12
-1.26015e-12
-6.68762e-12
4.65266e-12
-3.15963e-12
2.14127e-13
-8.55273e-13
-2.37885e-12
1.8138e-12
3.02642e-12
-1.19445e-11
1.1259e-12
6.83411e-13
6.3533e-13
5.281e-12
1.20605e-12
3.84881e-12
7.4484e-12
0
-7.63119e-13
2.8595e-12
-1.72764e-12
3.39602e-12
4.17192e-12
0
1.33233e-15
-7.24309e-13
2.82216e-12
-3.28101e-13
1.92855e-13
-1.73434e-12
1.81309e-12
3.4572e-12
2.68711e-12
3.69742e-12
1.17134e-11
1.03271e-12
1.01064e-13
-3.12484e-12
-2.17668e-12
4.83464e-12
-7.25036e-13
-2.79831e-12
2.65897e-14
1.827e-13
-8.80181e-12
-1.47079e-12
-2.46904e-12
-3.29863e-12
4.10548e-12
-1.74894e-12
6.46938e-12
2.97962e-13
5.06387e-12
-5.06416e-12
3.27737e-12
-3.63434e-13
-1.19189e-11
-1.10494e-12
1.28694e-12
1.11354e-11
1.03037e-12
-7.92691e-13
7.65166e-13
-3.10797e-12
4.72711e-12
-7.87071e-12
-1.23985e-12
3.16232e-12
-7.99835e-12
0
-6.73399e-12
-6.63881e-12
2.51017e-12
8.25533e-13
-2.14482e-12
-9.98588e-12
3.09454e-12
-5.96933e-12
-5.71198e-12
-2.8238e-13
-1.08843e-12
-4.86896e-12
-2.00407e-13
1.38444e-13
2.28636e-11
8.59323e-12
1.14881e-12
-5.96375e-12
-2.22002e-12
-5.25857e-14
-3.31606e-14
-7.20877e-12
1.18819e-12
-2.25501e-11
2.32111e-12
3.06562e-11
-4.62121e-12
-2.06351e-14
-2.19377e-14
-6.13182e-12
1.46041e-11
-3.04845e-12
-2.64934e-14
-8.86035e-12
3.94496e-12
-6.229e-13
2.79646e-12
0
-1.56011e-12
-5.25081e-12
2.97419e-12
3.12383e-12
0
-1.2695e-13
-1.3134e-12
9.68854e-13
0
-1.99661e-13
3.66739e-14
-1.46062e-14
-5.01822e-12
-1.00455e-11
-4.0211e-12
2.71976e-11
5.06218e-14
-5.05732e-14
1.73172e-13
4.17487e-13
4.91604e-12
-1.91425e-12
5.56755e-13
-5.46597e-12
2.15227e-12
-5.57113e-14
-8.7204e-14
1.05592e-12
1.11645e-12
-7.32602e-13
-9.49345e-13
5.93169e-12
-1.59338e-12
-4.02227e-12
5.83009e-13
-1.31837e-13
-2.7081e-12
-7.35806e-12
-3.35532e-13
-9.98444e-12
-5.65976e-13
-9.42843e-13
7.60905e-13
-2.12877e-12
-1.25071e-13
-1.61863e-12
2.57191e-11
-1.402e-11
0
2.19678e-15
-2.17276e-12
-5.98594e-13
1.27385e-12
-3.15208e-12
3.02469e-12
3.87342e-12
-6.00834e-13
4.40464e-13
-2.70415e-12
2.87409e-14
-2.13045e-14
-7.88645e-13
4.97002e-12
-5.57611e-12
8.84691e-13
1.5717e-12
1.67854e-12
-4.96208e-12
6.98707e-14
2.01431e-12
-9.46835e-12
4.27222e-12
1.19994e-12
-5.58565e-13
5.58718e-13
-3.65253e-12
-2.30978e-12
-1.89622e-12
0
-1.76407e-13
9.60146e-12
-6.13083e-12
-2.32801e-12
7.22223e-12
4.05061e-12
4.39784e-12
3.05119e-12
3.35896e-12
1.52318e-12
-3.88452e-13
-1.67999e-12
-1.32074e-12
6.02902e-12
-1.48829e-12
1.46092e-13
-1.79187e-12
2.59163e-11
6.9149e-13
-6.86881e-12
-7.11333e-13
1.22947e-12
6.45127e-13
-1.55442e-11
-9.77522e-12
0
7.99489e-13
-9.29972e-13
-7.37252e-13
-1.88975e-12
-2.41555e-11
3.86923e-13
-9.1154e-13
1.74255e-12
1.03645e-11
2.1076e-12
3.76716e-12
-2.97244e-12
8.59051e-15
-1.10247e-14
5.91156e-12
3.42158e-13
-5.03141e-13
-6.58181e-12
5.55693e-12
-7.71336e-12
0
-8.07372e-12
3.54004e-13
-3.9644e-12
1.10993e-11
-7.12874e-12
0
-3.67109e-13
9.40894e-12
2.77631e-13
1.08494e-11
0
2.31248e-12
-4.51048e-12
-1.65438e-12
3.26528e-12
-1.52729e-12
9.76426e-14
1.5535e-13
-3.29189e-13
-8.99443e-12
-2.36542e-11
-3.89511e-13
-5.46819e-12
2.1899e-15
-4.52063e-17
-6.67595e-13
5.66347e-12
8.013e-13
-5.01056e-15
3.84416e-13
1.93988e-13
-1.93695e-13
-7.23114e-13
1.31529e-12
-2.89361e-12
-5.73092e-12
1.27623e-12
1.78803e-12
2.24146e-12
3.34856e-12
-1.49192e-12
-4.72711e-12
-4.50013e-12
-5.55672e-12
-9.22386e-12
-4.37354e-12
2.17258e-12
7.16964e-15
1.16017e-11
2.7001e-11
0
1.28531e-12
-1.34131e-12
1.39504e-12
0
-1.62328e-12
7.36676e-12
1.2548e-11
-4.74172e-13
7.15844e-13
-4.9649e-12
2.31167e-12
-2.59771e-12
4.59091e-12
3.05714e-12
-8.57073e-13
-9.42236e-12
-3.13813e-11
-5.85226e-12
2.65252e-12
4.15268e-12
4.55779e-13
-4.65769e-12
-3.98576e-13
-6.16595e-13
-2.14094e-12
-1.74053e-13
-1.54084e-12
9.94982e-12
2.16207e-12
5.64306e-15
-9.4671e-15
-7.12661e-12
6.5933e-13
2.68793e-12
1.96851e-12
1.34287e-13
1.56468e-12
2.20963e-12
-1.83029e-12
-2.82228e-12
-1.40738e-12
3.23324e-13
1.45775e-12
3.13494e-12
-2.79402e-12
-5.1679e-12
5.26773e-12
-5.93609e-13
-6.33023e-12
3.1651e-12
3.26337e-12
-1.02743e-12
2.39618e-12
-1.03134e-11
-5.04774e-12
6.23463e-12
-2.93325e-12
2.67582e-13
9.65629e-12
-1.66436e-12
5.2329e-14
3.16712e-13
4.44033e-13
-4.44377e-13
-5.22296e-12
-4.82908e-12
-8.30477e-13
5.04571e-12
2.11388e-12
1.08532e-11
3.3936e-12
-2.58543e-13
1.17609e-11
3.99485e-13
5.60985e-13
2.52235e-13
-9.70909e-13
-1.08861e-11
-1.39302e-11
5.86322e-12
-8.57021e-13
-1.53182e-12
-1.49266e-12
7.278e-12
1.20998e-11
4.06053e-12
-2.72564e-13
-1.15122e-11
1.61236e-12
6.72307e-12
2.35748e-12
-5.30504e-12
8.41749e-12
1.07334e-12
0
0
5.96555e-12
6.20105e-12
3.32826e-12
1.1514e-12
1.48044e-13
0
1.75011e-12
1.23579e-12
-3.54093e-13
-6.49744e-13
2.08624e-12
1.1965e-12
-1.256e-12
-6.0941e-12
1.0135e-12
0
-6.14816e-12
2.06895e-12
8.67993e-14
-6.51693e-12
9.98517e-13
-2.70094e-13
0
-6.58748e-12
1.27272e-12
-2.88353e-12
-6.42481e-12
3.35289e-12
-3.1943e-12
-1.3904e-11
-2.80543e-12
1.76045e-12
-4.1161e-12
4.60425e-12
-2.4465e-12
3.51649e-12
1.18411e-12
1.72905e-14
-5.90073e-12
4.72689e-12
-1.02508e-12
4.33345e-12
-4.33347e-12
-6.61012e-12
3.74202e-13
-8.43551e-12
-5.55185e-13
-1.88954e-11
-3.06568e-11
-2.35041e-12
-2.87343e-12
-4.25399e-11
-1.07599e-14
-7.3537e-15
9.24007e-16
7.58659e-16
-5.82285e-12
-6.8696e-14
8.86856e-14
0
-1.02321e-12
-3.23511e-14
3.22534e-14
3.30945e-13
-2.41797e-13
8.17485e-13
-1.27458e-12
3.16881e-12
-1.12077e-12
1.50173e-12
2.10198e-12
-5.12772e-12
-2.42468e-12
-2.5344e-12
-3.33682e-12
3.38593e-12
2.19676e-12
5.18988e-12
-1.78387e-12
-9.93855e-13
2.66779e-12
0
3.97228e-12
-1.39095e-12
3.3842e-12
0
4.17938e-13
1.56877e-12
-3.76987e-12
-2.93589e-12
-2.02571e-15
2.91152e-15
-5.36742e-12
-2.93359e-12
-9.30473e-12
-6.8906e-12
7.87088e-13
9.49522e-12
-2.1777e-12
-6.32998e-13
0
-5.15238e-12
1.8304e-13
-4.88276e-12
-9.71687e-12
-7.36314e-14
6.47701e-12
-1.12631e-11
-1.69516e-12
-1.24399e-11
2.69305e-12
0
5.60579e-12
3.20572e-14
1.02205e-14
-3.82256e-13
3.35337e-12
2.28979e-12
2.6418e-12
-2.339e-12
-6.4464e-12
2.71323e-11
-4.43842e-12
-8.32425e-13
1.01347e-11
3.58846e-12
-6.94452e-12
-4.68011e-12
-8.51739e-14
-5.03545e-14
-1.67306e-12
-1.87678e-12
1.56683e-14
-1.2141e-11
1.79446e-12
8.97171e-13
3.40809e-12
2.2725e-12
-1.17567e-15
7.45305e-15
-2.23284e-12
-2.00382e-15
-5.99662e-12
5.93876e-13
2.22355e-12
-1.05739e-12
-1.14275e-11
3.87703e-13
1.03633e-13
0
4.88834e-12
-1.73594e-13
-2.20084e-13
2.30414e-12
-2.62472e-13
-1.0972e-11
-8.28517e-13
-6.61794e-12
-2.14767e-12
-4.35135e-12
0
3.06004e-12
-1.0269e-11
8.39576e-13
-2.859e-12
1.06734e-12
6.48079e-12
-7.30415e-13
-1.4609e-12
7.31006e-13
-7.18878e-13
-4.35384e-13
1.90181e-12
4.75656e-13
2.15559e-12
1.58042e-12
-4.0884e-12
1.73055e-12
3.92339e-12
1.27176e-12
5.56778e-13
-8.17176e-13
-4.05518e-12
-7.26711e-13
-4.84894e-12
5.31384e-13
7.66612e-12
0
7.86544e-12
6.4166e-13
1.4438e-11
2.82046e-12
3.79859e-12
-1.10314e-12
-4.64767e-13
8.14322e-12
-1.7928e-12
-8.7447e-13
-4.39668e-12
-3.00361e-12
-1.00428e-12
2.5856e-12
-6.55305e-14
-5.02019e-12
1.22814e-12
8.85582e-14
-7.2402e-12
3.58585e-12
1.06474e-12
-5.92384e-12
-4.71413e-12
0
1.78065e-13
-8.28025e-13
-9.60028e-12
0
2.89418e-12
5.93035e-13
-4.08728e-12
-9.58935e-12
2.57618e-12
5.35076e-12
-2.27721e-13
0
0
8.35279e-12
-1.30887e-12
4.15253e-12
1.21274e-11
-1.04173e-11
1.03929e-14
0
9.66925e-12
9.32349e-12
2.87163e-13
-7.55828e-13
-1.30414e-12
-6.29851e-13
2.95506e-13
1.94424e-12
6.47393e-12
3.77123e-13
4.96396e-13
6.32779e-14
-1.56766e-13
-3.51872e-13
2.18953e-11
5.06647e-12
-1.12818e-11
-1.84888e-11
-2.26211e-13
-1.28908e-12
-1.60821e-11
-4.6597e-14
-1.35292e-12
0
-1.13126e-11
2.97514e-12
-2.4715e-12
-7.08309e-14
-7.85041e-13
-6.08017e-12
-1.06135e-12
-5.6166e-12
3.15486e-12
-8.1439e-13
3.57305e-12
1.28106e-11
-1.98602e-13
-1.00349e-13
2.98206e-13
-2.56603e-12
1.82385e-12
1.47908e-12
8.57571e-12
0
-7.1577e-12
3.43901e-12
-1.36162e-12
1.24807e-11
-2.51578e-12
-4.87807e-12
5.49983e-13
7.81711e-13
4.64995e-12
-2.73805e-12
1.19734e-14
4.53307e-14
-3.06516e-12
3.56821e-12
-1.39035e-12
-2.54138e-12
1.0611e-12
-1.53267e-12
0
9.68517e-12
8.60288e-12
9.46384e-12
6.04895e-12
-5.01072e-13
3.60297e-14
-2.5664e-14
6.09686e-13
1.35999e-12
9.53975e-12
-9.84452e-13
1.81778e-12
-1.54188e-13
-5.71476e-12
9.06169e-13
8.06528e-12
-2.37152e-13
9.60304e-14
-3.15456e-12
-3.48139e-12
4.97268e-13
2.74825e-11
4.20246e-11
7.73016e-13
2.93935e-12
-1.67165e-13
-1.31548e-12
0
1.70168e-12
1.07997e-11
-6.53154e-13
3.17368e-12
2.06676e-13
-4.52845e-13
-1.2871e-12
8.73518e-13
8.95323e-13
5.22139e-12
3.17025e-12
6.64584e-12
-2.47232e-12
2.0109e-13
-6.13198e-14
4.27969e-12
-3.49821e-13
-5.02964e-13
-4.58666e-12
1.94177e-13
-4.87842e-12
-5.22912e-12
1.90593e-12
-6.03894e-13
1.73948e-12
-1.70164e-12
-2.43621e-11
6.0534e-13
-2.09569e-12
0
-6.45052e-12
4.04969e-13
-3.4416e-12
8.03035e-12
-2.24189e-12
1.60076e-12
2.56866e-12
1.40584e-13
-5.19248e-12
1.15375e-11
-7.79947e-12
-9.35847e-12
0
-2.05693e-13
-1.2663e-12
-2.99459e-13
3.3179e-13
-2.29066e-12
7.92498e-12
5.88234e-13
-1.50955e-12
0
3.64327e-13
7.76445e-14
2.20258e-12
1.03456e-11
1.28174e-13
0
3.71804e-12
1.70954e-13
2.2241e-12
1.784e-12
-1.92106e-12
3.80274e-12
2.08191e-12
-1.64755e-12
3.63508e-12
1.94713e-12
-2.58848e-13
-6.84443e-15
7.99217e-13
4.18973e-12
1.43638e-11
1.60277e-12
3.38762e-12
-4.18406e-12
-1.92795e-12
4.94609e-12
1.3108e-11
1.01036e-13
-1.43321e-13
0
4.60646e-13
-6.88923e-13
5.95223e-13
4.09625e-12
-3.68083e-12
6.50644e-14
9.85071e-12
1.595e-12
2.56121e-12
-1.53543e-12
1.61352e-12
4.10918e-12
-1.84972e-14
4.39186e-12
-5.98103e-13
-4.29376e-13
2.12159e-12
-2.41225e-12
6.4615e-12
-9.5255e-13
-1.79268e-13
7.64455e-12
-8.79008e-13
-8.39349e-13
0
3.18774e-12
-1.8827e-12
3.13303e-12
-3.07805e-12
9.78628e-13
1.50201e-13
1.31417e-11
-8.88848e-13
7.13876e-14
-9.24926e-15
-1.62534e-12
-1.2042e-14
-3.88747e-12
2.44025e-12
-1.17031e-12
-8.40008e-12
-1.13223e-12
2.15327e-12
5.75334e-13
-6.5155e-12
2.42075e-12
0
-3.28129e-13
-1.91407e-13
1.60142e-13
-1.0965e-11
-1.30554e-12
-3.64643e-12
-1.0327e-12
2.31252e-12
-2.77634e-13
-2.15318e-12
-1.778e-12
1.38133e-12
3.24713e-14
-1.34793e-14
2.06675e-13
-2.17422e-12
-5.92659e-13
1.47394e-12
-2.51106e-12
-5.90239e-13
4.30011e-12
1.99237e-12
-3.6113e-13
-5.23765e-13
5.9244e-12
-1.01065e-11
-5.5405e-14
-3.08554e-12
3.71766e-12
1.14946e-12
1.03963e-13
-2.95059e-12
-5.28688e-12
-1.20391e-13
-2.41287e-12
-4.79937e-12
1.63235e-12
1.42756e-12
-7.48244e-12
1.17155e-12
1.76281e-13
-8.03039e-14
-7.0561e-12
6.74017e-12
6.85628e-13
9.25214e-13
-1.21106e-11
1.08533e-12
4.98546e-12
-1.45647e-12
2.41568e-12
2.5882e-13
-3.49763e-12
-3.45686e-12
2.73697e-12
-7.73377e-13
-6.42721e-12
-1.43791e-12
-2.67376e-12
6.59606e-12
-9.31663e-12
1.22429e-12
2.8292e-12
-6.07487e-13
5.00104e-12
9.89575e-13
-4.3411e-12
-9.52336e-12
2.72377e-13
2.18412e-12
6.13209e-12
9.54544e-12
2.31424e-12
4.29208e-12
-9.13917e-13
-1.09664e-11
-1.64884e-12
3.95443e-13
1.67438e-12
4.8163e-14
-6.34519e-12
-6.35002e-12
1.06077e-12
-1.88224e-12
2.28637e-13
-4.38488e-13
8.93241e-14
2.80029e-13
1.16528e-13
-2.36811e-11
-2.5156e-11
3.48791e-12
-2.52106e-13
1.92176e-12
-1.21546e-13
-2.63403e-13
5.41822e-13
2.31039e-12
-4.37886e-12
4.5911e-12
-2.06035e-11
6.12391e-13
-2.58289e-15
1.20862e-15
4.22689e-13
4.25827e-12
6.58567e-12
2.50867e-11
3.01933e-12
-3.22523e-12
1.57804e-12
1.80638e-11
1.03306e-11
-4.17242e-12
-6.23204e-12
2.07585e-12
2.37677e-13
-1.89426e-12
-7.54334e-12
-1.87022e-12
1.15986e-12
9.25178e-13
0
2.87851e-12
-2.20166e-12
-8.54568e-13
2.19893e-12
5.70047e-12
-7.36697e-13
9.02735e-13
1.03903e-12
-2.89399e-13
9.3498e-14
8.79901e-13
-1.18324e-12
-3.53911e-13
-3.541e-13
-1.44396e-11
-1.26923e-12
7.6398e-12
-2.71573e-12
2.25127e-12
1.11364e-11
-1.50395e-12
-2.10144e-13
-1.91512e-11
-1.67918e-12
1.56493e-12
9.29827e-12
1.54171e-12
-3.21549e-13
5.91404e-13
5.72953e-12
-3.70443e-11
-1.37265e-12
1.30797e-12
3.43065e-12
1.09994e-11
8.47744e-12
-2.06645e-12
2.92973e-12
-1.83308e-13
1.03429e-13
-1.03245e-13
-9.68062e-12
-2.43842e-13
-6.97564e-13
3.0236e-13
-9.47203e-13
3.8142e-11
-1.89352e-12
2.81771e-12
-9.68165e-13
1.73133e-12
-2.66066e-12
6.29344e-14
-2.41429e-13
3.52689e-12
-2.75695e-12
5.9468e-12
-4.95324e-12
1.99154e-13
4.52909e-12
8.20305e-13
-9.20829e-12
1.64493e-12
-6.11053e-12
1.2344e-13
-1.14945e-12
2.04112e-12
8.81434e-13
-2.95059e-12
7.7029e-13
-5.57052e-12
4.09048e-13
4.5919e-13
-2.20532e-13
-4.30724e-12
-2.22863e-13
2.33072e-13
9.96919e-13
6.17457e-13
-7.31732e-13
3.67945e-12
-1.17804e-12
-1.64765e-13
1.47099e-12
-1.64006e-13
-3.80292e-12
-1.88293e-11
4.91763e-11
-3.42223e-11
-2.13372e-12
-4.14e-12
-4.14457e-12
1.42164e-12
-2.38435e-12
1.78783e-11
-8.09646e-13
-3.55608e-12
-1.08135e-12
-2.31709e-12
1.17286e-11
-5.40398e-13
-3.96656e-12
5.70107e-12
-1.32811e-12
-9.28094e-13
1.03483e-12
9.04867e-12
2.61905e-12
-6.57877e-12
9.70244e-12
1.85303e-13
-6.53503e-12
2.04413e-12
2.12949e-12
5.66357e-12
-3.55206e-12
8.10174e-13
0
-1.72584e-12
2.83574e-13
2.19434e-12
4.36364e-13
-5.85425e-12
1.06947e-11
-1.60444e-12
-2.38289e-12
3.35826e-13
2.88007e-12
-1.42643e-11
6.97238e-15
0
-2.18773e-11
0
3.08853e-12
1.51202e-14
-8.37348e-14
-3.46832e-12
2.19506e-13
3.59476e-12
6.63639e-12
-4.40321e-13
0
0
8.60876e-13
-5.62882e-13
1.83123e-12
2.12694e-12
-1.76769e-11
-3.25152e-12
4.56362e-12
-2.30854e-11
-7.64267e-12
-1.02782e-11
9.02642e-13
7.27278e-13
-2.27892e-12
1.33689e-12
0
9.81733e-13
-2.50514e-12
3.09615e-12
0
-7.7172e-15
1.00968e-14
-4.48756e-12
1.33035e-12
7.82936e-13
3.16691e-13
-3.81092e-12
2.96609e-12
2.10015e-12
3.76487e-12
-2.41642e-12
4.39872e-13
2.01889e-12
-1.33482e-11
4.67449e-14
-4.09997e-14
0
2.43509e-14
4.24699e-13
-5.21529e-12
0
-2.02231e-12
-3.25517e-12
-8.55253e-13
1.40448e-12
-8.07272e-13
7.19387e-13
-1.08552e-11
-1.75431e-12
1.6708e-12
1.6205e-12
2.01026e-13
1.82066e-12
1.32858e-12
0
-2.71223e-12
8.83554e-12
2.1844e-12
-9.41146e-13
-3.01157e-12
1.01612e-12
-1.62639e-12
4.49304e-12
7.93673e-12
5.24563e-13
-1.37203e-12
-1.41597e-12
-3.33938e-12
2.77063e-12
2.20277e-12
-2.84793e-12
-2.81987e-12
0
1.48252e-12
5.90302e-12
4.42021e-12
6.13779e-12
-1.89622e-12
-8.01527e-14
-3.85691e-12
6.07226e-13
3.23766e-12
6.68594e-12
9.96458e-13
-5.04701e-12
-1.55384e-15
-1.20506e-15
-3.47201e-13
-1.42081e-12
-1.05072e-11
3.41051e-12
1.10106e-12
-1.85244e-14
5.4097e-12
-4.72795e-14
3.51194e-13
-5.18139e-12
-1.12439e-11
-2.57351e-13
1.7553e-13
5.38163e-12
-1.4958e-11
-4.33155e-12
1.33177e-12
6.1637e-13
-5.47721e-13
5.4478e-12
-1.5682e-13
1.36009e-14
2.36245e-14
5.09922e-12
1.13136e-12
8.74124e-12
-2.19985e-12
-1.64802e-12
5.30053e-13
-1.86661e-13
-1.19946e-13
1.00216e-11
5.52384e-12
-5.12721e-12
8.78302e-13
-1.17412e-12
6.82128e-13
9.80036e-12
3.00789e-12
4.02456e-13
1.57083e-12
3.43502e-13
-7.91223e-13
-1.55448e-12
-3.8363e-12
2.54529e-12
-1.60587e-12
-1.09695e-12
-7.15235e-12
1.74684e-12
1.27519e-12
1.623e-11
8.65829e-13
2.54835e-13
3.28401e-12
-4.84606e-13
1.73049e-12
0
-2.98239e-12
1.58687e-12
-1.58613e-12
-6.48518e-13
2.48887e-12
2.00551e-12
-4.65491e-13
-2.18058e-13
4.02816e-12
-2.32494e-13
2.21954e-13
-1.56155e-12
-9.59759e-12
1.80152e-12
-2.83184e-12
-4.88084e-12
6.18828e-13
-3.75134e-13
-8.89889e-12
5.24928e-12
0
-3.59148e-13
-4.10064e-12
-2.02253e-13
1.27506e-12
-2.05413e-12
-1.3086e-12
-5.57166e-12
7.33753e-12
-2.81963e-14
0
3.05986e-13
-1.10327e-13
8.88134e-13
-5.01044e-12
-1.06331e-11
4.48083e-12
6.94461e-13
-3.59537e-13
1.7103e-13
-5.09452e-12
1.87131e-12
-4.33245e-13
1.78656e-12
2.35922e-12
-1.0503e-13
3.50502e-12
6.63839e-14
3.23491e-13
3.16346e-12
3.83687e-16
-1.43252e-15
4.62845e-12
-2.54601e-12
2.82756e-12
0
-1.03422e-13
-1.26385e-11
-1.02618e-12
-2.1777e-13
7.38982e-13
1.16673e-12
1.86878e-12
3.61534e-12
-3.14072e-13
-3.14315e-13
0
-2.11129e-13
-3.99175e-13
1.35333e-12
3.74958e-12
6.71667e-12
1.25414e-13
-3.15369e-13
-1.63092e-11
1.10931e-11
-3.22554e-12
1.6972e-12
4.12299e-12
4.12293e-12
1.1619e-11
5.36965e-12
6.21246e-12
-2.32996e-12
-3.07108e-13
-1.12506e-11
3.94685e-12
-8.12096e-12
-5.01112e-12
-1.30494e-12
2.80964e-12
-4.492e-13
1.07273e-12
0
-3.05169e-12
-2.54337e-12
1.49902e-12
4.52753e-13
-1.86273e-12
2.44862e-12
-6.75406e-12
4.49944e-12
-5.86717e-12
2.63489e-12
-3.07176e-12
5.97225e-13
-2.50683e-13
-1.08975e-13
-1.03507e-13
2.51613e-12
2.31886e-12
3.08158e-12
-1.38855e-12
-9.94721e-13
-3.61643e-12
-9.09086e-13
-3.83567e-12
1.76346e-12
1.83088e-12
2.66977e-14
1.54344e-12
1.61339e-13
3.05198e-12
-4.02391e-12
-4.58463e-13
9.03002e-13
-2.98809e-12
-1.5679e-12
9.2869e-12
-9.63558e-12
0
-1.97102e-12
-1.97098e-12
-3.83768e-12
-8.32786e-12
7.47336e-12
-6.54912e-13
2.20312e-12
4.62552e-12
-8.78205e-12
-6.29798e-13
5.62093e-13
-5.3742e-12
-1.50973e-11
8.32073e-12
4.12498e-13
-1.7771e-14
2.31381e-12
2.58143e-13
-1.00981e-12
0
9.89092e-12
-2.92315e-12
-5.53057e-12
-2.97571e-13
5.9869e-13
2.03257e-12
1.61315e-12
6.81805e-13
-1.33179e-12
2.93015e-12
-5.97536e-12
-3.35064e-14
-2.13876e-12
-6.93285e-13
1.97018e-12
2.0794e-11
4.61684e-12
2.80176e-12
-5.83689e-12
5.83662e-12
2.58773e-13
-2.97291e-13
-3.11869e-12
-2.70981e-12
-1.44972e-12
6.17785e-12
-9.80406e-13
-1.95971e-13
2.23278e-12
-2.27081e-13
-4.1476e-13
-2.42382e-11
1.54514e-11
5.39172e-12
2.37894e-11
1.32585e-11
-1.17126e-11
8.3348e-12
1.02338e-12
-9.53369e-12
-1.85312e-13
1.85038e-13
3.74982e-13
0
-3.40575e-12
-2.22071e-12
2.1019e-12
-1.70338e-11
-1.14549e-12
4.19247e-12
5.64976e-13
-8.16592e-13
-8.19157e-13
4.10578e-12
-1.32235e-12
-1.07129e-13
1.18687e-13
-2.45775e-12
-2.01655e-12
1.12166e-12
8.61538e-13
-9.27336e-13
-2.31202e-13
1.33443e-11
1.28299e-12
-3.90913e-12
-2.35238e-12
1.03625e-13
3.36972e-13
1.05137e-12
-5.6755e-13
-3.45054e-12
0
-4.77982e-12
-2.08559e-11
1.2398e-12
1.13345e-12
5.72278e-12
8.80803e-13
3.49152e-13
-8.63623e-12
-3.16323e-13
2.71957e-12
-8.91755e-13
-1.4332e-12
-1.19253e-13
4.10966e-12
-1.16959e-13
3.70933e-12
6.5831e-13
1.22205e-12
1.42145e-12
8.82852e-13
-2.7465e-12
1.29175e-12
0
2.78588e-12
-1.78995e-12
-5.07335e-13
3.95591e-12
-1.38457e-12
-8.0716e-12
-1.59929e-12
2.54315e-12
-4.4726e-14
6.27527e-14
-1.64333e-13
3.59899e-12
3.77173e-12
-1.14028e-12
-1.44402e-12
5.83135e-12
-1.88952e-12
-1.87233e-13
-1.08524e-12
-1.35116e-11
-3.3174e-12
-1.65455e-12
-8.2163e-12
1.18555e-12
-4.08476e-13
2.11814e-12
-7.59211e-13
2.34158e-13
-1.19913e-13
2.56867e-12
-5.09581e-13
-1.38472e-11
-9.21754e-13
-7.40847e-13
5.76943e-12
-1.08981e-11
1.09134e-11
-2.6503e-13
3.34875e-13
-1.89347e-12
-6.52318e-13
2.85535e-12
-2.35467e-12
-1.16335e-11
1.53477e-12
3.3641e-13
3.22237e-12
1.23657e-11
-1.23073e-12
4.57121e-13
-1.67519e-13
1.23606e-12
-6.03896e-12
2.6242e-15
-7.01263e-13
-2.66483e-12
3.63322e-12
9.12529e-12
-6.71667e-15
3.01938e-13
2.52784e-12
4.12387e-12
2.17254e-12
-2.43274e-12
1.51153e-12
0
4.30943e-11
2.21753e-12
2.93801e-12
-2.93822e-12
-2.79707e-12
0
-1.193e-11
-2.3036e-12
-1.01544e-11
-2.81353e-12
-4.18705e-12
-9.64516e-12
-4.9908e-12
-2.07361e-12
3.10886e-12
-1.33864e-12
-1.69424e-12
5.72028e-13
-2.77332e-13
3.83171e-12
5.31773e-12
3.06949e-12
7.04871e-12
-9.39157e-12
-3.50777e-13
-5.21898e-13
6.97385e-13
0
-6.54929e-13
-1.00279e-11
-4.5417e-13
7.96283e-12
0
6.53741e-12
-4.71228e-12
-4.75359e-12
-2.21164e-12
3.86056e-13
6.23286e-12
5.78638e-12
5.46684e-13
-2.02645e-12
7.1368e-14
-2.12282e-11
1.15913e-11
0
-4.66833e-12
-2.2764e-12
-1.12535e-12
1.27167e-11
-3.35523e-12
1.06374e-12
-6.85436e-12
-1.50705e-15
1.99984e-15
2.98887e-12
1.63983e-11
3.11556e-12
-4.40744e-12
-6.30567e-12
-4.70882e-13
-1.65975e-12
-1.15435e-12
-2.06529e-12
2.39278e-12
5.40935e-13
-3.39078e-13
2.76849e-12
0
-2.28386e-12
1.10714e-12
-1.66756e-12
-2.60441e-12
5.13649e-13
-5.00092e-12
1.5113e-11
2.16078e-12
8.39176e-12
3.67615e-12
1.16766e-12
-5.45263e-13
4.40419e-12
1.62483e-12
-4.81075e-13
3.52137e-13
0
7.34212e-13
6.47747e-12
2.80696e-11
-2.44925e-12
-3.81195e-12
-5.99158e-13
1.65971e-12
-6.51516e-12
0
0
6.16241e-13
3.40247e-12
2.09983e-12
4.49772e-12
4.1573e-12
-7.24964e-12
1.55877e-12
3.24803e-12
-9.20776e-13
1.06953e-12
-3.41719e-12
4.51209e-12
-4.51232e-12
-8.33288e-13
-8.69365e-12
1.77114e-12
1.6209e-11
-3.45862e-14
-7.5208e-13
5.26982e-13
-7.4931e-12
-2.37217e-11
-1.49273e-13
1.28898e-12
3.23502e-12
-7.57386e-12
3.55193e-12
-3.17456e-12
-1.64682e-11
-1.28441e-12
0
2.49706e-12
-1.09141e-11
-2.01463e-12
8.93626e-12
-7.93429e-12
-5.47896e-13
6.78552e-13
6.60189e-12
7.66274e-12
-4.59778e-13
0
7.4887e-12
-2.98835e-12
3.65822e-12
-1.42863e-13
1.67168e-12
-1.74103e-12
2.26298e-12
3.72736e-12
-6.05071e-13
0
7.28337e-13
-2.38893e-12
4.78912e-12
-7.31352e-13
-2.09106e-13
-1.46399e-14
-1.43244e-13
3.27784e-13
-4.25747e-13
4.19853e-12
-1.12516e-12
-8.25159e-12
1.57702e-13
-1.72174e-11
-5.29161e-12
2.24026e-12
2.4229e-13
2.3454e-15
-1.76227e-12
-5.07138e-12
-6.66335e-12
-1.18177e-13
1.53777e-13
1.12921e-12
-2.02311e-12
4.60747e-13
1.44808e-12
2.67794e-13
-4.83189e-13
-1.1131e-12
-4.93972e-12
-1.08966e-13
-9.26438e-14
-3.83686e-12
9.2101e-12
-2.14928e-12
1.15002e-11
-9.01398e-13
-3.05021e-12
-4.71632e-12
0
3.42919e-12
-2.37081e-12
-3.50198e-11
9.80287e-13
-2.65968e-12
1.56396e-12
-1.54999e-12
4.78138e-12
7.77175e-12
-6.1904e-12
8.63329e-13
-1.96866e-12
-9.86827e-12
1.78607e-11
1.34876e-12
-3.70203e-12
1.19277e-11
-3.58603e-13
-1.38688e-12
5.58446e-12
1.81373e-14
-8.2682e-14
-6.64016e-12
6.06624e-14
-1.81204e-13
3.53275e-12
0
0
-2.00798e-12
-3.37638e-12
9.22452e-13
0
8.97513e-12
-1.69461e-12
-1.14466e-12
2.4217e-12
2.08979e-11
-7.97172e-12
1.32775e-13
-1.17792e-12
9.58212e-13
-2.08968e-11
5.20515e-12
2.31398e-12
-2.90195e-13
1.8853e-12
-5.93531e-13
1.87961e-13
3.55126e-12
7.84155e-12
1.72329e-11
0
-1.4304e-12
-5.10518e-12
-1.32536e-12
-3.91372e-12
1.52943e-12
9.12157e-13
-2.90081e-12
-1.66172e-13
-2.11071e-12
1.80216e-13
3.3295e-12
-1.68183e-12
-5.86495e-12
3.76857e-13
9.54194e-12
-5.41938e-12
1.49499e-13
2.89686e-12
2.27438e-13
5.68919e-12
5.18502e-12
-9.77124e-13
0
1.20576e-15
2.97e-12
-1.57976e-12
9.14072e-12
9.81517e-13
3.15023e-12
2.33195e-12
5.49512e-14
-5.25574e-13
-6.1327e-13
-2.14198e-12
7.32305e-12
1.44377e-12
2.78114e-12
-3.52464e-12
-7.67993e-13
1.12137e-13
4.36212e-12
-3.30279e-12
-6.2963e-14
2.90126e-15
-4.17178e-15
-5.20589e-12
-8.14593e-12
9.17911e-13
-1.19498e-12
1.39686e-12
3.57446e-13
1.2648e-13
0
3.22032e-12
-2.61969e-12
-2.67857e-12
5.58867e-13
-9.57267e-12
1.64378e-12
-1.78997e-12
-3.32414e-13
8.54231e-13
-2.66654e-12
8.17254e-13
-5.36738e-13
-4.05175e-13
-2.17228e-13
-1.07367e-12
2.26838e-12
1.16485e-13
3.05206e-12
-1.17706e-12
-1.25922e-12
-3.46739e-12
-8.2729e-13
4.2805e-13
-1.74325e-13
2.37216e-13
-4.74242e-13
0
2.91651e-12
1.5536e-13
-3.79015e-13
-5.15076e-12
3.3743e-12
0
0
-1.02116e-12
-4.5496e-12
2.10787e-11
3.13704e-12
-8.61418e-13
8.61429e-13
2.29591e-12
-1.35979e-12
-4.9247e-13
4.11551e-12
5.6753e-12
5.52047e-12
3.62964e-12
-1.08517e-12
4.73709e-12
6.28327e-13
1.22667e-15
2.20212e-15
-4.17576e-12
-1.45945e-13
-2.96313e-12
-2.99573e-12
-2.43706e-12
7.385e-12
-2.75069e-12
5.8647e-12
7.36086e-13
-3.62134e-12
-5.42147e-13
-2.96053e-13
-1.46558e-11
8.46982e-13
4.78119e-11
-1.16494e-11
-7.65026e-13
1.79975e-12
6.6643e-12
1.55265e-12
-7.66434e-12
-9.45458e-13
2.4043e-13
-3.75806e-12
-7.21713e-13
-1.38107e-12
-9.05596e-12
8.29824e-13
3.91871e-12
-5.02431e-12
1.88579e-12
-8.64418e-12
-1.61723e-13
2.57823e-12
3.96866e-12
2.3121e-12
3.20407e-11
3.167e-12
3.71964e-12
4.16839e-14
-4.99905e-14
2.06186e-13
3.47787e-14
-2.97179e-13
3.09131e-12
8.87338e-13
2.70657e-12
4.35726e-11
3.63995e-13
-2.04317e-12
4.42218e-12
1.00983e-11
8.4213e-13
-2.05293e-12
-6.6609e-12
9.79351e-13
3.03653e-12
-1.14466e-12
1.43746e-11
-2.14533e-12
9.15971e-12
2.88937e-12
-4.2208e-12
9.06225e-13
6.33222e-12
-1.31278e-12
-9.33611e-12
-2.17035e-14
3.83504e-14
-1.59678e-12
1.70648e-12
-8.28554e-13
-3.56651e-12
2.68068e-12
3.94629e-13
-2.95111e-12
-2.03403e-11
0
1.82457e-12
1.39598e-12
1.24432e-13
1.05143e-11
0
-1.85198e-12
3.7679e-14
-1.65864e-12
-2.29333e-12
3.94211e-12
3.70308e-12
8.03542e-12
-2.14119e-12
-6.4445e-12
-4.26065e-12
1.16863e-12
2.46177e-12
-2.16141e-12
1.7592e-13
1.10152e-13
7.5073e-13
-6.36615e-12
1.26382e-13
1.53844e-12
-1.48228e-12
4.4537e-13
-1.24619e-12
2.28974e-12
4.89511e-12
1.2346e-11
-4.3913e-12
1.27693e-12
-1.84799e-12
-2.99221e-12
-9.40184e-12
-2.8653e-12
-2.20176e-13
4.62427e-12
-5.90104e-12
0
6.79595e-12
-1.90801e-13
-2.10262e-12
-6.68198e-12
-8.15425e-14
7.57215e-12
2.60995e-12
1.87648e-11
1.5029e-11
4.02583e-12
-8.26732e-12
-3.87922e-13
8.04342e-13
1.38061e-14
5.3551e-12
3.47041e-12
6.95136e-13
-1.34035e-12
1.42235e-13
4.34197e-12
-1.16679e-12
4.75789e-14
-5.55281e-14
-2.20681e-12
5.25882e-12
-1.7698e-13
9.40301e-14
-3.34946e-12
8.74217e-13
1.71005e-12
1.41459e-12
-3.82957e-12
-2.38165e-13
2.8156e-12
-1.77226e-12
1.81706e-12
5.30937e-12
1.04482e-12
-1.72431e-12
2.37578e-12
-3.27205e-12
-6.91054e-12
-7.64507e-12
4.87072e-12
-2.84728e-13
2.89751e-12
-3.49278e-12
0
7.99913e-13
-3.94738e-12
1.88832e-12
-1.70471e-11
-4.38644e-12
0
3.17179e-12
-3.58568e-12
4.14296e-12
-4.54162e-12
1.48075e-12
3.68153e-11
3.81841e-11
7.38809e-12
7.5873e-13
2.44349e-14
-1.7674e-14
-7.50973e-12
-9.01721e-13
1.64198e-12
-1.59413e-12
-9.73174e-13
7.90135e-13
1.82739e-12
2.60829e-12
9.24466e-13
0
3.03384e-15
6.33636e-12
3.74758e-12
4.18897e-13
7.36253e-12
2.0105e-12
3.04632e-13
-1.89931e-13
-1.18881e-11
-2.27989e-11
5.07149e-12
-3.13267e-12
2.43638e-12
-3.6963e-12
-7.96971e-13
-1.5827e-12
-9.99889e-13
-8.49198e-14
-1.31953e-12
-1.72532e-12
2.43618e-12
9.33372e-13
1.73085e-12
1.29855e-11
2.65373e-12
-2.77241e-13
1.69671e-13
2.0599e-12
-5.27976e-13
1.42275e-12
-1.35268e-14
-1.17753e-14
5.7092e-12
-4.542e-12
-1.19177e-12
-3.2159e-12
1.15228e-13
-2.37434e-13
3.00388e-12
-5.90036e-14
1.81431e-13
-5.00179e-12
-2.79534e-12
9.32489e-13
7.16441e-12
0
2.13468e-12
-7.41716e-12
3.36911e-13
2.42461e-12
7.96843e-12
2.32521e-13
2.42379e-13
-4.69709e-12
2.70903e-11
-6.04833e-12
-5.54749e-12
5.13971e-12
2.7314e-12
1.91912e-12
-1.67503e-12
-3.64592e-12
1.76394e-12
5.25239e-15
8.88699e-15
-5.80667e-13
-2.10053e-13
1.2467e-12
7.29326e-12
-1.92308e-13
5.55664e-13
-4.50515e-12
-2.27719e-12
4.58933e-12
4.74902e-12
-3.06375e-12
4.57014e-12
-3.55464e-12
2.17438e-12
-2.29351e-12
-2.76147e-12
-9.13231e-12
-7.23043e-12
-4.4841e-12
3.6136e-12
-1.12912e-11
-2.00616e-12
2.74723e-12
6.34527e-13
-2.16719e-11
3.7537e-12
-2.19837e-13
5.35417e-13
-3.23928e-13
2.67033e-12
-6.97359e-13
-5.93684e-12
-4.15029e-12
-2.16702e-12
6.52421e-12
1.28152e-11
6.01177e-12
-4.86002e-12
3.01986e-12
-2.27079e-12
0
1.18744e-11
2.14586e-11
0
-5.85065e-12
1.61487e-12
2.36501e-12
2.16832e-12
4.00566e-13
1.27551e-11
-1.47404e-12
2.04803e-12
5.76861e-15
2.11059e-13
-8.59528e-13
-2.38322e-14
4.83305e-13
-2.7666e-13
1.43245e-14
-2.04736e-12
4.63806e-13
-6.31795e-12
2.29692e-12
-2.98761e-13
5.04163e-12
1.58553e-12
2.16259e-12
-5.89813e-12
-2.5682e-12
-1.37234e-12
1.17743e-11
-1.55608e-12
-2.65173e-13
4.33868e-12
-1.24392e-13
9.94047e-14
-9.98231e-12
2.6688e-11
0
-3.21733e-12
6.26542e-14
-6.26236e-14
-1.8796e-14
1.85949e-14
-1.08857e-13
1.07535e-11
-1.5206e-11
0
0
-4.28642e-13
-1.96238e-12
-2.29332e-11
1.96903e-13
-1.42596e-13