/*--------------------------------*- C++ -*----------------------------------*\
| =========                 |                                                 |
| \\      /  F ield         | OpenFOAM: The Open Source CFD Toolbox           |
|  \\    /   O peration     | Version:  v3.0+                                 |
|   \\  /    A nd           | Web:      www.OpenFOAM.com                      |
|    \\/     M anipulation  |                                                 |
\*---------------------------------------------------------------------------*/
FoamFile
{
    version     2.0;
    format      ascii;
    class       volScalarField;
    location    "9000";
    object      sigmaEq;
}
// * * * * * * * * * * * * * * * * * * * * * * * * * * * * * * * * * * * * * //

dimensions      [1 -1 -2 0 0 0 0];

internalField   nonuniform List<scalar> 
27023
(
2.97086e+07
2.97144e+07
2.17313e+07
2.17276e+07
2.85309e+07
2.85366e+07
9.61782e+07
9.61718e+07
1.1545e+07
1.15473e+07
6.8491e+07
6.8479e+07
2.86191e+06
2.86736e+06
2.77482e+07
2.05376e+07
1.95577e+07
5.91179e+07
5.91212e+07
4.24644e+07
4.2466e+07
9.55484e+07
9.55419e+07
4.39171e+07
4.3918e+07
7.13695e+06
3.13817e+07
4.41974e+06
3.04773e+07
3.39724e+07
1.5324e+07
4.25913e+07
4.25924e+07
4.48741e+07
2.72061e+07
3.48581e+07
3.72908e+07
3.72849e+07
1.13706e+07
1.1373e+07
2.18197e+07
2.18234e+07
2.27474e+07
2.86864e+07
2.86921e+07
5.83891e+07
5.83859e+07
4.24728e+07
4.2473e+07
3.13137e+07
4.1009e+07
4.10097e+07
4.38314e+07
543075
540433
4.92135e+07
2.06125e+07
3.67512e+07
1.75143e+07
2.25039e+07
2.25004e+07
3.043e+07
5.71384e+06
5.75966e+06
2.2636e+07
1.34188e+07
3.81893e+07
8.91997e+06
3.24967e+07
2.15534e+07
3.54907e+07
3.54845e+07
6.24055e+07
6.24036e+07
8.92316e+07
8.92288e+07
993450
991744
1.04556e+08
1.0456e+08
2.34669e+07
6.61167e+07
6.61047e+07
6.05109e+07
6.05092e+07
9.48314e+07
9.4834e+07
3.80955e+07
6.44107e+06
1.84408e+07
1.74803e+07
3.07951e+07
3.0789e+07
2.33997e+07
8.48397e+06
4.43228e+07
4.43168e+07
2.34482e+07
1.83385e+07
6.20144e+06
2.89401e+07
1.79184e+07
1.79781e+07
7.50458e+07
7.50415e+07
4.90537e+06
8.54413e+07
8.54365e+07
4.84072e+07
3.40966e+07
2.20051e+07
8.51573e+07
8.51527e+07
4.37421e+07
4.37427e+07
8.99453e+07
8.99425e+07
2.32909e+07
3.36196e+07
2.47713e+07
2.15559e+07
3.38303e+06
8.25695e+07
8.25811e+07
1.05473e+08
1.05466e+08
2.99518e+07
2.99457e+07
7.61885e+07
7.61841e+07
1.63114e+07
2.96441e+06
2.98166e+06
1.42802e+07
1.89446e+07
9.49182e+07
9.49208e+07
1.05212e+07
6.02001e+07
6.01968e+07
8.98556e+07
8.98635e+07
8.68616e+06
9.26988e+07
9.26923e+07
1.45024e+07
1.70488e+07
4.01926e+07
3.90349e+07
4.91779e+07
4.9171e+07
5.21062e+07
5.21014e+07
2.76519e+07
2.685e+07
2.94073e+07
2.9155e+07
2.768e+07
5.94685e+07
5.94652e+07
5.54907e+07
2.34369e+07
4.7791e+07
6.4812e+06
6.07074e+07
6.07132e+07
8.10851e+07
8.10933e+07
1.72388e+07
5.28398e+06
8.7356e+06
1.05287e+08
1.05291e+08
2.03007e+07
1.9773e+07
3.02386e+07
4.28559e+06
7.87463e+06
2.07914e+07
1.17358e+07
3.91738e+07
8.59686e+07
8.59761e+07
3.04826e+07
5.47619e+07
5.81637e+07
4.16162e+07
4.16099e+07
5.02175e+07
1.87422e+07
8.11855e+07
8.11939e+07
2.31316e+07
6.38076e+06
1.05213e+08
1.05207e+08
6.19549e+07
7.92136e+07
7.9224e+07
3.13961e+07
2.94968e+07
3.26781e+07
8.76017e+07
8.75989e+07
2.72223e+07
2.7228e+07
2.08349e+07
6.10465e+07
8.72987e+07
8.72959e+07
342364
340717
2.45858e+07
2.2198e+07
1.33099e+07
1.33074e+07
2.6805e+07
6.57342e+06
8.99214e+06
9.29863e+07
9.29895e+07
1.64262e+07
8.27541e+07
8.27658e+07
2.82463e+07
8.07799e+07
8.07765e+07
6.2835e+07
6.28332e+07
5.83986e+06
5.8438e+06
6.88425e+06
8.33926e+07
8.33892e+07
5.63642e+07
8.17772e+07
8.17742e+07
9.05492e+07
3.39125e+07
1.02918e+08
1.02925e+08
3.2629e+07
5.8295e+07
5.76474e+07
4.56057e+07
2.50334e+07
6.86429e+06
2.95406e+07
4.81546e+07
4.46556e+07
9.5221e+07
9.52254e+07
2.16454e+07
1.95819e+07
6.14614e+07
6.20592e+07
7.47885e+07
5.68228e+07
4.8013e+07
4.80103e+07
2.20072e+07
1.14912e+07
5.22592e+07
8.40228e+07
8.40198e+07
9.23232e+07
9.23167e+07
7.46974e+06
1.94139e+07
7.8396e+07
7.83849e+07
3.60511e+07
2.06052e+07
3.97059e+07
9.72214e+06
7.15158e+06
6.09436e+07
6.09497e+07
4.83422e+07
4.83503e+07
4.21787e+07
5.14075e+07
1.18337e+07
1.14344e+07
761218
764740
2.15925e+07
2.65768e+07
2.33466e+07
3.91541e+07
3.70482e+06
2.09324e+07
7.78575e+07
7.78609e+07
9.34681e+07
9.34708e+07
4.56193e+07
6.0465e+07
8.75708e+07
8.75735e+07
3.20743e+06
2.04632e+07
7.86293e+07
7.86354e+07
1.43681e+07
1.73748e+07
1.73627e+07
2.64793e+07
3.05321e+07
9.17326e+06
3.45811e+06
451850
450170
6.92971e+06
6.93508e+06
4.11007e+07
4.31353e+07
4.31398e+07
1.26939e+06
3.00396e+07
4.50193e+06
4.52014e+06
3.27906e+07
2.71013e+07
2.20629e+07
3.13599e+07
7.10905e+07
1.03896e+07
3.7681e+07
4.5693e+07
1.86707e+07
4.57388e+07
8.14462e+07
8.51433e+06
3.45879e+07
4.34812e+07
4.34874e+07
1.50837e+07
2.05137e+07
7.26299e+07
7.26265e+07
6.00254e+07
6.03187e+07
320955
319411
3.06478e+07
3.32111e+07
3.3205e+07
2.58453e+07
1.19452e+07
4.59498e+07
4.60106e+07
8.60338e+07
8.60305e+07
142859
141909
2.28149e+07
9.99255e+07
9.99296e+07
6.50373e+06
3.71509e+07
8.4598e+07
8.46008e+07
9.20756e+07
9.20864e+07
1.83299e+07
3.74119e+07
1.95906e+07
3.59941e+07
3.59997e+07
9.96458e+07
9.96496e+07
2.3082e+07
5.6473e+07
2.21561e+07
5.78093e+07
5.70354e+07
3.03046e+07
3.75407e+07
3.44073e+07
2.88807e+07
3.43994e+07
9.7747e+07
9.77409e+07
2.81577e+07
1.13433e+07
1.66457e+07
5.8946e+07
4.24224e+07
8.42188e+06
2.9007e+07
1.19561e+07
3.71306e+07
7.7785e+06
2.03912e+07
1.05771e+07
3.64334e+07
1.97768e+07
8.35372e+07
3.91448e+07
6.2129e+07
6.21273e+07
2.74002e+07
2.20378e+07
1.23816e+07
3.62953e+07
3.63005e+07
2.8866e+06
1.98273e+07
4.01815e+07
2.65203e+06
4.01055e+07
1.0235e+06
1.01876e+06
1.77516e+07
4.86837e+07
3.45185e+07
5.95589e+07
3.24573e+07
4.20423e+07
1.76018e+07
5.28409e+07
1.93589e+07
8.61493e+06
5.15441e+06
7.98572e+07
8.49616e+07
8.49643e+07
7.38295e+07
9.2873e+06
5.79607e+07
2.55173e+07
8.17315e+07
8.17286e+07
5.41391e+07
5.41404e+07
5.94133e+07
1.02314e+07
1.52691e+07
1.52706e+07
7.50846e+07
7.50565e+07
5.04859e+07
5.04826e+07
475221
477439
1.76644e+07
1.40052e+07
4.71345e+07
1.90664e+07
2.04592e+07
8.23877e+07
8.23993e+07
8.21302e+07
8.21413e+07
5.16378e+07
5.16408e+07
5.38843e+07
5.38773e+07
1.31932e+07
7.29095e+06
1.12403e+07
4.56167e+07
2.03305e+07
5.54365e+07
1.94123e+07
1.02718e+08
1.02725e+08
5.00412e+07
2.54724e+07
1.37989e+07
6.72851e+07
5.7696e+07
3.52532e+07
1.32571e+07
7.8418e+07
7.84146e+07
2.31256e+07
2.30157e+07
1.92519e+07
1.92465e+07
8.25037e+07
8.25003e+07
2.94598e+06
1.49202e+07
1.28479e+07
2.18405e+07
8.11065e+07
1.08373e+07
6.92547e+07
6.92667e+07
3.25427e+07
3.77315e+07
2.75899e+06
4.36478e+07
4.36522e+07
3.64917e+07
3.64856e+07
2.91207e+07
6.95044e+07
4.04776e+07
2.95687e+07
2.95712e+07
4.5105e+07
2.02496e+07
3.72407e+07
3.72406e+07
3.08284e+07
9.87667e+07
9.87538e+07
7.03486e+07
7.03371e+07
4.14686e+07
7.28787e+07
7.28871e+07
2.34518e+07
3.32691e+07
7.70638e+07
7.70608e+07
5.95524e+07
8.60276e+07
8.60303e+07
5.04932e+07
7.38263e+07
7.38295e+07
4.84594e+07
4.84672e+07
1.12323e+07
6.62797e+07
6.62725e+07
3.99748e+07
8.99273e+06
9.22643e+06
1.25882e+07
5.16314e+07
5.16332e+07
9.51681e+07
9.51721e+07
3.65588e+07
6.1592e+07
3.02933e+07
4.53266e+06
3.69447e+07
3.41201e+07
2.17546e+07
1.5224e+07
1.52226e+07
7.12645e+07
9.38586e+07
9.38614e+07
3.64953e+07
3.83096e+06
7.37171e+07
7.37205e+07
3.58216e+07
4.80569e+07
4.80831e+07
2.43596e+06
1.08623e+07
1.48609e+07
2.96123e+07
3.11519e+07
3.6126e+07
3.61279e+07
4.31968e+07
2.13359e+07
6.71014e+07
6.7098e+07
1.62964e+07
4.20064e+07
4.20039e+07
1.28285e+07
4.22963e+07
4.229e+07
7.63991e+07
7.64089e+07
4.93596e+07
4.93665e+07
4.83056e+07
2.82953e+07
2.825e+07
4.73941e+07
5.10456e+07
5.10527e+07
3.37745e+07
2.09124e+07
1.66236e+07
5.0304e+07
2.09538e+07
1.00021e+07
2.47879e+07
7.94125e+07
4.10322e+07
4.10303e+07
3.74639e+07
4.19848e+07
4.19851e+07
3.56015e+07
5.94849e+07
5.94862e+07
1.25505e+07
6.58044e+06
4.27235e+07
4.27227e+07
8.01914e+07
8.01884e+07
6.1511e+07
2.12467e+07
3.28221e+07
6.39795e+07
6.39766e+07
9.05621e+07
9.05589e+07
3.01299e+07
2.32562e+07
1.16359e+07
1.20274e+07
2.95908e+07
2.95767e+07
3.70266e+07
219861
399469
401408
220942
2.29616e+07
2.5707e+06
2.57517e+06
4.73487e+07
4.73555e+07
2.94731e+07
2.94791e+07
4.30803e+07
4.30739e+07
1.43118e+07
5.30532e+07
5.30532e+07
4.74156e+07
2.3756e+07
4.95372e+07
4.95364e+07
2.85618e+07
5.96321e+07
5.96299e+07
3.74622e+07
2.69343e+07
5.80626e+07
4.72456e+07
4.72523e+07
5.7155e+07
7.06296e+06
5.96039e+06
2.8188e+07
7.61573e+07
7.61607e+07
2.22582e+07
4.09466e+07
9.93739e+07
9.93778e+07
502836
505139
5.09068e+07
5.09108e+07
4.43808e+07
7.76114e+06
1.01547e+08
1.01544e+08
2.6499e+07
4.12519e+07
1.51444e+07
2.07179e+07
3.56891e+07
3.2735e+07
1.89308e+07
3.22319e+06
1.31102e+07
5.5709e+07
3.34053e+07
5.2322e+07
4.98817e+07
2.67491e+07
2.22221e+07
575214
574167
5.9221e+07
5.92195e+07
3.56646e+07
3.25502e+06
2.28892e+07
8.59295e+06
4.58794e+07
4.92036e+07
4.10709e+07
5.75816e+06
3.15652e+07
3.51091e+07
1.29834e+07
2.67618e+07
2.67551e+07
3.69503e+07
6.45476e+07
8.05748e+06
3.26111e+07
7.83568e+07
7.83534e+07
8.82617e+07
8.82644e+07
513762
511195
5.40675e+06
1.82755e+07
2.50354e+07
9.86088e+06
3.77482e+07
3.77402e+07
2.78672e+07
1.21912e+07
1.21943e+07
9.3137e+07
9.31402e+07
7.34108e+07
6.81919e+07
6.81891e+07
2.17019e+07
5.84743e+07
3.67886e+07
2.22396e+07
5.80556e+07
7.46953e+06
7.63878e+07
7.63848e+07
3.14091e+07
8.251e+06
9.16954e+07
9.16847e+07
3.10262e+07
8.31686e+07
2.33845e+07
8.31723e+07
2.29286e+07
2.29375e+07
4.18943e+07
3.00098e+07
4.41908e+07
1.97176e+07
4.40189e+07
1.88013e+07
7.72658e+07
1.33408e+07
2.82964e+07
2.82949e+07
8.80123e+07
8.8015e+07
2.26986e+07
6.73404e+06
7.44371e+07
7.44405e+07
4.83165e+07
4.02821e+07
3.33901e+07
1.47513e+07
3.65722e+07
3.32435e+07
3.32374e+07
1.29461e+07
3.90638e+07
3.90663e+07
8.69003e+07
8.69032e+07
2.27408e+06
3.35186e+07
7.15186e+06
7.72085e+07
6.31575e+07
6.31457e+07
3.32632e+07
1.11114e+07
2.43081e+07
5.24157e+07
2.18117e+07
2.87772e+07
1.36026e+07
3.07714e+07
3.69166e+07
8.86204e+07
8.86175e+07
7.1332e+07
7.13202e+07
5.81575e+07
5.71756e+07
1.23894e+07
1.63657e+07
8.58787e+07
8.58758e+07
6.06372e+07
5.5123e+07
3.16158e+06
2.26991e+07
7.10522e+06
6.16791e+06
6.16739e+06
2.2786e+07
9.47066e+06
9.37022e+07
9.36948e+07
5.62792e+06
2.58163e+07
1.10915e+07
1.0359e+08
1.03587e+08
3.07854e+07
3.07864e+07
3.33016e+07
2.54671e+07
2.54737e+07
1.34944e+07
6.98837e+06
7.02993e+06
8.91488e+06
7.9973e+07
7.997e+07
1.33212e+07
4.30184e+07
4.30225e+07
9.01932e+07
9.01904e+07
2.74158e+07
2.70566e+07
5.53079e+07
5.5301e+07
9.07587e+07
9.0768e+07
9.73487e+06
5.67031e+07
9.3344e+07
9.33356e+07
5.94634e+07
6.60348e+06
4.99591e+07
4.9953e+07
7.08102e+07
7.08071e+07
4.63784e+07
7.6782e+07
7.67853e+07
9.85295e+07
9.85323e+07
4.63748e+07
2.4635e+07
3.49824e+07
1.66886e+07
6.19033e+07
6.19e+07
7.94045e+07
8.17377e+06
7.20077e+06
7.94055e+07
2.24137e+07
3.60353e+07
3.54585e+07
3.90496e+07
3.90514e+07
7.12284e+06
1.20001e+07
4.2792e+07
6.32841e+07
6.33067e+07
2.5467e+07
2.70368e+06
703545
704359
2.93735e+07
3.28477e+07
2.97829e+07
9.17016e+07
9.16946e+07
4.8693e+07
4.37601e+07
4.80139e+07
2.75594e+07
5.53267e+07
5.53192e+07
5.68225e+07
2.10434e+07
4.87229e+07
3.1602e+07
3.1733e+07
4.80079e+07
5.26591e+07
5.04791e+07
5.04734e+07
7.85682e+07
7.85712e+07
5.12741e+07
1.68032e+07
3.33427e+07
7.29266e+07
7.29156e+07
6.98027e+07
6.9806e+07
1.73796e+07
2.7558e+07
6.23466e+07
6.23434e+07
3.69504e+07
1.14383e+07
1.14383e+07
2.89872e+07
2.90593e+07
7.95613e+07
4.80872e+07
5.05272e+07
6.01347e+07
3.17969e+07
3.37658e+07
1.2136e+07
9.04716e+07
9.04684e+07
7.76428e+06
1.47342e+07
1.52432e+07
3.51908e+07
1.64432e+07
2.24032e+07
5.96297e+06
3.40496e+07
2.75588e+07
1.85767e+07
1.44543e+07
2.96357e+07
2.33863e+07
7.27232e+07
1.91728e+07
1.89291e+07
1.59191e+07
1.59179e+07
2.90387e+07
1.28019e+07
1.27977e+07
2.45367e+07
1.28726e+07
5.32231e+07
5.32243e+07
3.0803e+07
9.71802e+06
9.71692e+06
2.61263e+07
1.62452e+07
2.90434e+07
3.67257e+07
3.95348e+07
2.74742e+07
8.44551e+07
3.08091e+07
2.89281e+07
4.77293e+07
3.21274e+07
3.21214e+07
1.16998e+07
1.34777e+07
3.09132e+06
3.09473e+06
4.23593e+07
4.72506e+06
3.47511e+07
2.60177e+07
3.26204e+07
3.26131e+07
5.87538e+07
1.01409e+07
3.06719e+07
1.54803e+06
1.54786e+06
3.30998e+07
2.3078e+07
1.75606e+07
5.29318e+06
1.97876e+07
5.77068e+07
2.8085e+07
4.35308e+07
3.39819e+07
3.39797e+07
6.74387e+07
5.23964e+07
1.41393e+07
1.52984e+07
3.953e+07
6.09754e+07
6.09867e+07
7.97829e+06
2.52167e+07
6.48327e+07
1.651e+07
1.6509e+07
3.48703e+07
2.35696e+07
3.55891e+07
7.85288e+07
7.85322e+07
1.41955e+07
3.79604e+07
3.79383e+07
5.56912e+07
5.56849e+07
2.68153e+07
3.43681e+07
1.00553e+06
1.00623e+06
2.56973e+07
2.85789e+06
1.18743e+07
8.77371e+07
8.77341e+07
1.13175e+07
1.00824e+08
1.00813e+08
8.98428e+06
4.29293e+07
1.32092e+07
5.98613e+07
2.35156e+07
1.05054e+07
5.98745e+07
6.31831e+07
6.98385e+06
2.52436e+07
3.56108e+07
3.56104e+07
3.35214e+07
3.43382e+07
5.6545e+07
2.54497e+07
3.84862e+07
9.11722e+06
8.87218e+06
1.37585e+07
1.93913e+07
5.67975e+06
9.78458e+06
2.25234e+07
8.24185e+06
1.30557e+07
3.72852e+07
2.11055e+07
4.78204e+07
3.54222e+07
2.09875e+07
5.89953e+07
5.49917e+07
6.72541e+07
6.72611e+07
2.12361e+07
7.99802e+06
3.20517e+07
3.20421e+07
6.72398e+07
6.72365e+07
2.34967e+07
1.00222e+07
4.74679e+07
8.08073e+06
8.08227e+06
8.54481e+07
8.54452e+07
7.80834e+06
1.67874e+07
3.09961e+07
1.85866e+07
7.44266e+06
2.19668e+07
9.96235e+06
9.4701e+06
5.86374e+07
5.15126e+07
5.15133e+07
2.97604e+07
2.98279e+07
1.66313e+07
1.4014e+07
8.55187e+07
8.55158e+07
1.91832e+07
1.40018e+07
3.12144e+07
1.32058e+07
5.36604e+07
2.36007e+07
2.10092e+07
1.75467e+07
6.43159e+07
1.04227e+07
2.0764e+07
7.63851e+07
5.37186e+07
5.37188e+07
6.77578e+07
1.31303e+07
3.50722e+07
2.82334e+07
2.93938e+07
7.45634e+07
7.45079e+07
2.81229e+07
7.8001e+07
9.57876e+06
9.57728e+06
1.19937e+07
1.19952e+07
2.63112e+07
3.21884e+07
2.94368e+07
8.82983e+07
8.35549e+07
8.35669e+07
1.63473e+07
1.63391e+07
2.24079e+07
9.04722e+07
9.0469e+07
3.61836e+07
3.59381e+07
9.14134e+06
370390
368591
2.87946e+07
1.79854e+07
7.21447e+07
1.92555e+07
8.12245e+07
8.12316e+07
2.98856e+07
6.92702e+07
6.88134e+07
2.63741e+07
1.74675e+07
2.62241e+06
3.06393e+07
3.06501e+07
8.49788e+07
8.49819e+07
1.51087e+07
3.55191e+07
3.55023e+07
7.81075e+07
7.8111e+07
1.60532e+07
4.35145e+07
3.61447e+07
1.51094e+07
3.2202e+07
3.21986e+07
2.80546e+07
2.06417e+07
6.24967e+07
5.18703e+06
3.5982e+07
3.59877e+07
3.74587e+07
1.71342e+07
7.40084e+07
7.26142e+07
7.26109e+07
5.57245e+07
7.07413e+06
2.86188e+07
2.87947e+07
9.55796e+07
9.55686e+07
3.98749e+07
5.83886e+07
5.83866e+07
3.8507e+07
6.16972e+07
4.95774e+07
4.95782e+07
3.01327e+07
2.25845e+07
5.57175e+06
4.0173e+06
4.58828e+07
1.64412e+07
1.21629e+07
447233
444430
6.17345e+07
1.25255e+07
1.25252e+07
7.31022e+07
7.30908e+07
4.79845e+06
9.12148e+07
9.12047e+07
6.86469e+07
6.86541e+07
9.70171e+07
9.70198e+07
2.53703e+07
8.92178e+07
8.92149e+07
8.38182e+06
3.10821e+07
3.22468e+06
2.69246e+07
2.02875e+07
2.73203e+07
6.96572e+07
6.96562e+07
2.15548e+07
2.1565e+07
1.77069e+07
3.28522e+06
1.04104e+07
5.66898e+07
1.07841e+07
4.13799e+07
6.14413e+07
2.21436e+07
1.2811e+07
7.65774e+06
7.66074e+06
5.72048e+07
3.57778e+07
5.6552e+07
3.67145e+07
1.72531e+07
1.49451e+07
3.38655e+07
3.38501e+07
3.40785e+07
2.10626e+07
3.26035e+07
3.24994e+07
1.43207e+07
4.42808e+07
8.68812e+07
4.14826e+07
4.14801e+07
6.12907e+07
2.97471e+07
3.28552e+07
3.73098e+07
4.11986e+07
8.68865e+07
3.7323e+07
4.86844e+07
3.94827e+07
2.10618e+07
3.41434e+07
1.26333e+07
3.11821e+07
2.41066e+07
1.88183e+07
8.1105e+06
2.00681e+07
3.32395e+07
3.28455e+07
2.24841e+07
7.04533e+07
7.04502e+07
5.09403e+07
2.27082e+07
1.28902e+07
1.68143e+07
6.00351e+07
5.42943e+07
6.26493e+06
7.23099e+07
2.54893e+07
1.15205e+07
5.43143e+07
3.24085e+07
4.67176e+07
1.9823e+07
1.04606e+07
5.52333e+07
5.44265e+07
3.76829e+07
849062
845641
6.17612e+07
6.6296e+07
6.6308e+07
7.93054e+06
7.41229e+07
7.41154e+07
2.12153e+07
3.16974e+07
3.16913e+07
4.0264e+07
987080
1.00666e+07
9.34725e+07
9.34698e+07
8.19494e+06
7.20637e+07
7.8408e+07
2.85586e+07
7.27779e+07
7.27669e+07
3.83843e+07
1.19112e+07
1.04611e+07
6.67276e+07
3.30978e+07
3.30989e+07
538442
535938
8.7499e+06
2.21546e+07
5.44659e+07
5.44586e+07
7.49985e+07
7.49951e+07
6.58858e+07
1.44549e+07
2.78539e+07
6.82892e+07
6.82865e+07
6.73043e+06
867274
870378
6.92259e+07
6.92031e+07
7.53709e+07
7.53743e+07
7.34199e+07
8.50304e+07
8.50274e+07
5.51499e+07
5.5143e+07
4.14845e+07
1.94899e+07
7.92587e+07
7.81023e+07
3.1319e+07
7.01624e+06
7.81036e+07
1.32598e+07
3.68702e+07
4.36818e+07
4.67246e+07
2.82788e+07
8.13553e+07
8.13524e+07
1.92129e+07
7.07291e+07
7.0737e+07
8.53792e+07
8.53749e+07
3.05508e+07
5.41072e+07
5.4108e+07
3.32732e+07
3.32807e+07
3.44024e+07
3.15945e+07
3.15978e+07
3.53162e+07
8.82577e+07
8.82604e+07
2.26942e+07
1.55209e+07
3.52623e+07
2.03337e+07
2.71163e+07
2.70311e+07
1.3712e+07
3.41315e+07
2.03814e+07
2.72915e+07
267872
269514
9.49793e+07
9.49837e+07
1.42562e+07
2.45857e+07
9.63607e+07
9.63497e+07
3.73993e+07
2.91371e+07
1.85976e+07
5.70673e+07
5.75215e+07
3.17876e+07
6.81381e+06
6.00445e+07
9.91985e+06
9.39378e+07
9.3947e+07
3.65143e+07
3.65148e+07
5.46616e+07
5.4665e+07
2.51052e+06
2.50103e+06
1.64514e+07
5.54203e+07
1.16906e+07
3.15019e+07
2.91176e+07
1.84031e+07
4.92966e+06
4.93385e+06
1.64372e+07
4.0251e+06
2.91653e+07
3.54948e+07
3.55011e+07
2.73049e+07
5.65995e+06
4.24209e+07
5.731e+07
5.73078e+07
3.30844e+07
2.18357e+07
6.12765e+07
6.12795e+07
2.66418e+07
5.67372e+07
5.67379e+07
5.08896e+07
2.61158e+07
3.11427e+07
1.85766e+07
2.18299e+07
2.1831e+07
7.90905e+07
1.64191e+07
4.99082e+07
4.99037e+07
5.02086e+06
4.37647e+07
4.37584e+07
8.72278e+06
6.37775e+07
6.37751e+07
3.39944e+07
3.40004e+07
5.34292e+06
2.22655e+07
2.22774e+07
6.74752e+07
6.74783e+07
4.21108e+07
2.25257e+07
4.21489e+07
4.68178e+07
4.68111e+07
4.19227e+07
1.39868e+07
3.34225e+07
3.34443e+07
1.07293e+07
8.72087e+07
8.71955e+07
1.21573e+07
5.39054e+07
8.63853e+07
8.63825e+07
968085
967764
1.07443e+07
7.24099e+07
7.24068e+07
9.60698e+06
3.33823e+07
3.33706e+07
7.42394e+06
7.42566e+06
1.47143e+07
3.17575e+07
8.66508e+07
8.66378e+07
9.92595e+07
9.92646e+07
3.11877e+07
1.38316e+07
1.43305e+07
1.43285e+07
2.28307e+07
277816
276400
9.24609e+07
9.24636e+07
2.45495e+07
1.9198e+07
1.9197e+07
1.09807e+07
7.51322e+07
7.51355e+07
1.85135e+07
2.10371e+07
8.60458e+07
8.60492e+07
8.13479e+07
8.13594e+07
2.29145e+07
1.7994e+07
5.7673e+07
2.78924e+07
1.80316e+07
9.11757e+06
2.92311e+07
3.04217e+07
3.82089e+07
3.84632e+07
6.91166e+07
6.912e+07
8.62998e+07
8.62969e+07
6.93006e+07
3.67206e+07
1.0255e+07
2.13332e+07
8.19261e+07
3.59936e+07
5.64697e+07
5.24373e+07
5.71565e+07
4.56664e+07
4.56644e+07
4.12103e+07
4.12163e+07
9.42543e+06
1.14318e+07
3.17455e+07
1.45707e+07
1.73429e+07
2.81313e+07
3.04526e+07
1.29295e+07
3.57427e+07
3.57368e+07
1.12163e+07
3.92485e+07
3.92523e+07
1.60211e+07
9.64557e+07
9.64695e+07
8.22488e+07
8.22558e+07
1.88527e+07
5.7827e+07
5.78283e+07
1.05439e+08
1.05435e+08
6.53386e+07
6.53362e+07
4.99026e+07
4.98955e+07
7.70953e+07
1.71413e+07
2.36033e+07
1.17776e+07
3.73822e+07
3.73872e+07
5.88465e+07
5.88478e+07
2.21114e+07
2.20881e+07
1.72796e+07
9.96401e+07
9.9637e+07
3.64831e+07
5.12373e+07
5.13429e+07
2.86341e+07
3.63342e+07
5.37633e+07
1.61605e+07
3.06088e+07
3.05661e+07
7.31689e+06
3.80204e+07
3.47068e+07
3.7965e+06
3.80152e+06
6.51969e+07
1.33714e+07
1.44682e+07
1.8616e+07
4.62051e+07
7.54924e+07
1.85031e+07
2.28429e+07
2.28391e+07
7.34552e+07
7.34518e+07
4.47559e+07
4.47493e+07
2.1333e+07
1.89966e+07
1.77328e+07
1.44884e+07
1.71259e+07
6.39426e+07
2.36675e+07
2.60917e+07
1.03631e+07
7.18251e+07
7.18003e+07
7.17694e+06
7.18228e+06
1.9507e+07
1.74693e+07
4.89859e+07
4.89831e+07
5.30779e+07
5.30704e+07
9.2479e+07
9.24763e+07
2.19265e+07
1.21393e+07
1.19938e+07
5.96652e+06
6.73027e+07
6.81208e+07
8.22862e+07
8.22892e+07
3.74888e+07
3.82181e+06
6.06408e+07
6.06289e+07
3.96519e+07
3.95071e+07
2.92607e+07
1.30109e+07
3.83564e+07
1.93029e+07
2.86037e+07
2.85213e+07
5.63273e+07
5.63219e+07
5.56462e+07
8.07397e+07
8.07363e+07
6.99139e+07
6.9902e+07
7.59381e+07
2.90347e+07
2.8993e+07
2.69021e+07
2.69091e+07
1.41082e+07
2.19321e+07
3.96363e+07
3.20696e+07
3.20763e+07
1.42408e+07
1.42388e+07
2.17647e+07
3.89834e+07
5.19214e+07
5.1922e+07
4.47982e+07
2.03747e+07
9.75844e+07
9.75897e+07
1.96292e+07
5.27517e+07
6.6892e+07
2.12207e+07
5.50113e+07
6.41462e+07
6.41484e+07
2.2875e+07
6.89145e+07
6.89118e+07
2.28301e+07
2.19271e+07
5.50192e+07
4.84446e+07
4.84452e+07
2.5998e+07
2.64e+07
5.15751e+06
8.42717e+07
8.42684e+07
1.04667e+07
1.48917e+07
4.56865e+07
4.56832e+07
3.07842e+07
3.04485e+07
3.02121e+07
1.07394e+07
4.29543e+06
4.22781e+06
4.52013e+07
4.51996e+07
1.97347e+07
1.35764e+07
3.19732e+07
6.00359e+07
6.07582e+06
1.50702e+07
5.05979e+06
6.35765e+06
2.96302e+07
7.21961e+07
2.36003e+07
7.46401e+07
7.46295e+07
3.1727e+07
4.61676e+06
4.62117e+06
7.13936e+07
7.13864e+07
2.46551e+07
7.72862e+07
7.72958e+07
3.1054e+07
7.07985e+07
1.17531e+07
2.20382e+06
2.20165e+06
1.04412e+07
6.10401e+07
6.10433e+07
3.77246e+07
5.93576e+06
3.82392e+07
2.0097e+07
6.92947e+07
3.33958e+07
2.34087e+07
2.34202e+07
4.84736e+07
4.84667e+07
3.67001e+07
1.75725e+07
3.02149e+07
6.70789e+07
6.7082e+07
1.02036e+07
8.62408e+06
8.62367e+06
2.61948e+06
8.67602e+07
8.67631e+07
1.29901e+07
1.92498e+07
2.87295e+07
2.65053e+07
2.65259e+07
3.77357e+07
3.77303e+07
2.63977e+07
3.1932e+07
4.2367e+07
4.21867e+07
5.16178e+07
3.48949e+07
5.29636e+07
6.7048e+06
6.56821e+07
2.17182e+07
3.12779e+07
3.12629e+07
8.66861e+06
2.24791e+07
2.24748e+07
7.05102e+07
7.05159e+07
5.81603e+07
8.01257e+07
5.65519e+06
1.50269e+07
3.07099e+07
7.39459e+06
6.64579e+07
6.40213e+07
4.41373e+07
2.74133e+07
3.67479e+07
1.34247e+07
3.64044e+07
4.44283e+07
4.44292e+07
4.17028e+07
4.1698e+07
5.68562e+07
5.79023e+07
2.75289e+07
4.10412e+07
4.10463e+07
7.29731e+06
4.85363e+07
4.85989e+07
6.77664e+07
6.7769e+07
1.64906e+07
4.94871e+07
1.08988e+07
3.67963e+07
6.51197e+07
265712
267422
3.15828e+07
1.86062e+07
2.14034e+07
1.64767e+07
1.00882e+07
3.39721e+07
3.39671e+07
5.46238e+07
5.46239e+07
3.14947e+07
6.92339e+07
8.88486e+07
8.88457e+07
4.784e+07
4.78383e+07
2.86536e+07
2.30295e+07
2.32901e+07
2.87107e+07
5.12752e+07
5.15782e+07
2.01692e+07
4.60533e+07
4.61303e+07
4.93675e+07
4.93744e+07
4.86375e+07
3.26425e+07
3.26365e+07
3.13999e+07
3.13788e+07
3.98093e+07
2.56054e+07
2.56113e+07
1.49562e+07
2.12052e+07
5.43844e+06
2.24916e+07
2.94971e+07
1.01571e+07
1.016e+07
2.48089e+07
2.95117e+07
5.36251e+07
5.36286e+07
2.06686e+07
2.99752e+07
3.08982e+07
3.55925e+07
4.10443e+07
4.10387e+07
3.77017e+07
8.62151e+07
8.62242e+07
3.41632e+07
3.65157e+07
1.63903e+07
5.72744e+07
4.58734e+07
4.58738e+07
1.68602e+07
4.2467e+07
3.51053e+07
7.94027e+07
7.94057e+07
5.271e+07
5.26902e+07
2.40975e+07
2.54818e+07
2.38373e+07
1.72255e+07
2.36734e+07
2.14014e+07
2.86203e+07
2.6522e+07
4.43673e+06
6.77222e+06
5.51327e+07
5.51332e+07
9.38913e+06
9.08021e+07
6.08134e+07
6.08153e+07
5.85363e+07
3.67478e+07
3.50594e+07
2.86134e+07
3.67653e+07
8.42166e+07
8.42194e+07
1.24536e+07
3.93669e+07
5.7718e+07
5.77193e+07
3.31355e+07
3.09868e+07
5.03209e+07
84542.7
83480.4
2.97304e+07
7.37695e+07
7.37605e+07
3.07794e+07
1.14338e+07
2.58703e+07
5.98244e+07
4.85933e+07
2.92587e+06
9.07928e+07
1.41495e+06
1.41445e+06
2.09072e+07
4.29289e+07
1.35676e+07
1.03784e+06
1.03855e+06
3.53493e+07
5.27802e+07
5.27817e+07
9.3813e+07
9.38049e+07
4.79805e+07
4.79872e+07
3.51024e+07
3.34247e+06
3.34505e+06
3.57029e+07
1.87304e+07
2.63462e+07
4.96099e+06
2.9985e+07
2.81251e+07
6.67963e+07
6.68213e+07
6.10524e+07
6.10556e+07
9.58879e+06
3.05647e+07
8.1879e+07
1.98035e+07
4.07028e+07
1.4173e+06
3.8454e+07
3.98725e+07
9.9127e+07
9.91143e+07
6.38261e+07
2.39023e+07
4.81099e+07
4.81174e+07
1.11932e+07
2.85295e+06
2.76635e+06
2.89108e+07
113840
112672
1.6923e+07
1.10268e+07
1.10281e+07
9.16872e+06
7.97891e+07
7.9795e+07
1.39069e+07
3.2033e+07
4.77291e+07
3.20602e+07
6.67187e+07
6.66676e+07
1.51856e+07
2.22955e+07
3.30054e+07
6.8286e+06
7.94749e+07
7.94811e+07
4.28897e+07
4.30251e+07
8.30109e+07
1.31332e+07
1.00035e+08
1.00042e+08
3.48429e+07
3.48366e+07
2.88483e+07
6.6664e+07
1.02493e+07
4.79366e+07
4.79343e+07
9.016e+07
9.01574e+07
3.59371e+06
8.33097e+06
3.59155e+07
7.80961e+07
2.88587e+07
1.87066e+07
5.65451e+07
5.65465e+07
1.42149e+07
2.51449e+07
3.47476e+07
5.80656e+07
1.46052e+07
3.42307e+07
5.327e+07
5.32666e+07
7.39868e+07
8.88917e+07
8.88947e+07
824077
820480
4.28003e+07
3.18823e+07
9.13804e+07
3.88822e+07
4.81306e+07
4.81286e+07
4.89206e+07
3.1758e+07
6.79207e+07
2.88894e+07
1.64178e+07
9.42404e+07
9.42438e+07
6.26692e+07
6.34952e+07
6.35028e+07
1.00436e+08
1.00443e+08
9.1369e+07
323399
321760
2.96626e+07
9.79794e+07
9.79825e+07
4.91264e+07
4.91301e+07
1.36624e+07
1.36598e+07
4.81946e+07
1.60156e+07
7.03078e+07
7.03046e+07
1.41074e+07
2.07368e+07
5.5583e+07
5.55815e+07
3.61798e+07
2.71759e+07
7.16256e+07
7.16222e+07
3.0132e+07
1.43845e+07
1.43827e+07
5.11791e+07
1.21027e+07
2.63036e+07
1.01036e+08
1.01023e+08
6.91489e+07
4.59279e+07
4.59266e+07
3.588e+07
3.58859e+07
7.77774e+06
7.77944e+06
1.69962e+07
6.10747e+07
9.37763e+06
9.378e+06
5.32285e+07
5.3232e+07
1.71893e+07
1.06336e+07
2.63298e+07
4.892e+07
1.43441e+07
1.01795e+07
7.47636e+07
7.47535e+07
6.52603e+07
6.52576e+07
1.0586e+08
1.05867e+08
2.91297e+07
3.11798e+07
3.10272e+07
6.39509e+07
6.39477e+07
2.36472e+07
1.12761e+06
1.13267e+06
1.48589e+07
5.22376e+07
3.27465e+07
3.27606e+07
8.01307e+07
2.1053e+07
4.24414e+07
8.86753e+07
8.8678e+07
2.78977e+07
3.04304e+07
3.04632e+07
5.01045e+06
2.42705e+07
4.43585e+06
5.04606e+07
6.14722e+07
6.14837e+07
8.41006e+06
2.55604e+07
8.73999e+07
4.99475e+07
4.99544e+07
1.65515e+07
6.54776e+07
6.54749e+07
7.04535e+06
2.09146e+07
2.08889e+07
6.39432e+06
1.69682e+07
8.26102e+06
6.83145e+07
6.83176e+07
6.63738e+07
6.6366e+07
1.2279e+07
8.26549e+07
8.26585e+07
8.15369e+06
1.48313e+07
8.15664e+06
2.7222e+07
2.72234e+07
2.85788e+07
2.80558e+07
1.63553e+07
4.85679e+06
2.89136e+07
2.61187e+07
6.61498e+07
6.61407e+07
2.32303e+07
2.73056e+07
5.54966e+07
2.12118e+07
7.63152e+07
6.19268e+07
2.14624e+07
2.2451e+07
7.37363e+06
1.33224e+07
9.10247e+07
9.10286e+07
9.01637e+07
9.01668e+07
4.42354e+06
3.57308e+06
3.582e+06
3.73347e+07
2.26014e+07
2.89296e+07
4.06504e+06
1.10092e+07
6.84976e+07
7.42198e+06
3.31114e+06
9.19346e+07
9.19379e+07
2.42798e+07
2.11559e+07
7.29898e+07
3.77857e+07
3.77792e+07
6.26907e+07
7.59116e+07
1.70697e+07
5.35923e+07
2.26834e+07
4.70737e+07
9.3832e+06
6.85291e+06
1.98417e+07
2.09283e+07
9.60521e+07
9.60551e+07
3.9456e+06
3.9571e+06
2.52126e+07
4.40338e+06
4.57236e+07
4.56939e+07
2.00874e+07
2.47801e+07
2.53412e+07
5.16073e+07
5.16094e+07
7.32913e+07
7.02683e+06
4.03779e+07
2.86043e+07
8.43112e+06
5.86091e+07
1.17864e+07
3.51697e+07
3.27249e+06
3.98947e+06
2.41219e+07
4.47286e+06
2.06829e+07
4.34003e+07
9.1727e+07
9.17243e+07
3.98471e+07
3.98427e+07
2.5098e+07
2.51099e+07
1.22188e+07
5.06483e+07
3.55679e+07
3.48179e+07
3.4822e+07
7.20552e+07
2.85102e+07
3.92545e+06
3.56641e+07
3.19871e+07
2.08432e+07
1.44228e+07
3.51016e+06
3.50011e+06
3.39474e+07
3.39542e+07
9.74165e+06
9.73981e+06
5.44073e+07
4.49701e+07
2.66621e+07
2.31516e+07
2.87156e+07
2.20216e+07
783418
2.64358e+06
5.60657e+06
2.59196e+07
4.46816e+07
1.22268e+07
1.03667e+07
4.01069e+07
6.63494e+07
6.63656e+07
4.20816e+07
1.49679e+07
9.79331e+06
6.95788e+07
6.95755e+07
6.04013e+07
6.03989e+07
2.9733e+07
1.48563e+07
2.43645e+07
2.81448e+07
2.83521e+07
2.63444e+07
2.79197e+07
9.07638e+06
2.74309e+07
1.77167e+07
1.728e+07
9.29693e+06
2.08081e+07
2.25165e+06
2.23265e+06
1.18264e+07
3.96405e+07
5.59961e+07
1.34927e+07
3.88081e+07
3.87973e+07
8.06822e+07
4.50567e+07
4.50539e+07
1.44203e+06
1.43491e+06
3.19109e+07
6.47151e+07
6.47126e+07
6.10316e+06
3.50977e+07
2.14128e+07
1.05679e+07
1.84699e+07
1.84408e+07
5.49792e+07
5.4981e+07
1.95737e+07
8.71473e+06
3.95911e+07
8.10144e+07
8.10044e+07
6.49442e+07
6.49421e+07
9.18705e+06
3.9421e+07
3.9421e+07
2.97461e+07
2.67572e+07
7.69964e+07
7.69997e+07
1.40944e+07
2.8416e+07
3.26105e+07
1.07144e+07
25797.9
26606.7
4.95257e+07
4.95277e+07
4.2461e+07
4.24652e+07
8.39855e+06
8.4011e+06
2.31578e+07
3.99383e+06
3.99927e+06
4.81137e+07
6.70632e+07
3.14918e+07
4.62506e+07
4.62474e+07
5.51831e+06
5.64918e+07
6.65953e+06
1.93489e+07
6.17038e+07
5.00575e+07
5.00647e+07
2.72623e+07
1.79275e+07
6.0942e+07
8.93144e+07
8.93253e+07
5.57316e+07
6.45989e+07
6.45851e+07
3.96716e+07
3.96729e+07
24747.5
24164.3
2.64789e+07
3.23934e+07
1.79143e+07
8.71114e+07
2.94735e+07
3.26541e+07
2.64651e+07
2.64613e+07
8.52529e+07
8.52496e+07
2.11684e+07
7.71431e+07
7.71401e+07
3.51264e+07
4.15963e+07
4.15947e+07
7.52941e+07
3.36498e+07
7.08253e+07
7.08282e+07
6.77291e+07
3.22277e+07
4.40104e+07
2.62007e+07
2.7402e+07
5.57485e+07
5.57502e+07
2.66751e+07
2.66773e+07
2.18244e+07
4.74211e+06
7.3709e+07
2.80655e+07
7.50651e+06
4.03887e+07
4.054e+07
1.55512e+07
9.86355e+07
9.86386e+07
6.79172e+07
6.79198e+07
8.42978e+06
1.46834e+07
1.47518e+07
8.63199e+07
6.06181e+07
4.14522e+07
7.84926e+06
7.83988e+07
3.02782e+07
8.26217e+07
6.16182e+06
8.48553e+06
1.8579e+07
2.46594e+07
4.4884e+07
4.56329e+07
4.56301e+07
6.0918e+06
1.022e+08
1.02208e+08
5.17761e+07
5.17723e+07
3.15228e+07
2.36603e+07
1.22199e+07
1.2235e+07
5.06276e+07
8.07437e+07
8.07404e+07
5.40388e+07
1.87709e+07
1.65692e+07
1.21854e+07
986604
983405
8.42833e+07
4.53645e+06
5.41898e+07
5.41902e+07
2.8883e+07
2.88886e+07
2.03589e+07
2.03714e+07
4.42242e+07
4.48694e+07
5.12304e+06
4.42685e+07
9.14118e+06
3.17489e+07
3.18135e+07
4.53391e+07
3.04045e+07
3.04077e+07
3.46813e+07
6.36902e+07
6.3701e+07
1.24674e+07
2.12721e+07
2.0516e+07
2.52925e+07
1.90211e+07
1.0578e+07
2.81987e+07
8.54479e+07
8.54509e+07
3.79883e+07
3.76517e+07
3.76584e+07
1.03404e+08
1.03409e+08
3.53832e+07
2.19498e+07
5.46831e+07
5.4684e+07
2.01334e+07
3.52226e+07
1.48668e+07
3.21152e+07
1.83955e+07
5.95586e+07
3.51682e+07
3.51643e+07
1.18689e+07
1.28753e+07
1.28789e+07
9.83659e+07