/*--------------------------------*- C++ -*----------------------------------*\
| =========                 |                                                 |
| \\      /  F ield         | OpenFOAM: The Open Source CFD Toolbox           |
|  \\    /   O peration     | Version:  v3.0+                                 |
|   \\  /    A nd           | Web:      www.OpenFOAM.com                      |
|    \\/     M anipulation  |                                                 |
\*---------------------------------------------------------------------------*/
FoamFile
{
    version     2.0;
    format      ascii;
    class       volSymmTensorField;
    location    "9000";
    object      sigma;
}
// * * * * * * * * * * * * * * * * * * * * * * * * * * * * * * * * * * * * * //

dimensions      [1 -1 -2 0 0 0 0];

internalField   nonuniform List<symmTensor> 
27023
(
(-1.96783e+07 -1.62426e+07 1.65273e-13 -1.5803e+07 -2.14058e-14 -8.80364e+06)
(1.96817e+07 -1.62458e+07 1.0828e-13 1.58058e+07 -1.80207e-13 8.80516e+06)
(1.26701e+07 -1.19981e+07 7.17435e-13 1.25572e+07 -2.08877e-13 6.25942e+06)
(-1.26674e+07 -1.1996e+07 5.50644e-13 -1.25571e+07 1.61576e-13 -6.25872e+06)
(-1.98827e+07 -1.54754e+07 0 -1.48472e+07 0 -8.61719e+06)
(1.98862e+07 -1.54786e+07 -5.46601e-13 1.48495e+07 1.64259e-13 8.61863e+06)
(1.07327e+08 -1.51609e+07 4.5415e-12 5.67027e+06 -4.32192e-12 2.8037e+07)
(-1.0732e+08 -1.51583e+07 -1.12177e-12 -5.66926e+06 -1.04271e-12 -2.8035e+07)
(4.75731e+06 -6.03938e+06 -1.06132e-13 8.79321e+06 7.11512e-14 3.36216e+06)
(-4.75156e+06 -6.03886e+06 -5e-13 -8.79919e+06 -1.37961e-13 -3.36222e+06)
(7.7652e+07 -1.48389e+07 -6.81939e-13 8.79105e+06 1.21425e-12 2.14483e+07)
(-7.76414e+07 -1.48346e+07 -9.65992e-13 -8.79168e+06 -5.55798e-13 -2.14458e+07)
(855759 -1.40736e+06 -6.89591e-14 2.32025e+06 -1.41441e-13 788033)
(-874646 -1.41481e+06 3.66887e-14 -2.32094e+06 -3.80364e-14 -792889)
(-3.10689e+07 -2.558e+06 8.3136e-13 -830356 3.4066e-12 -7.91485e+06)
(2.53351e+06 1.179e+07 1.01815e-12 131574 -7.64636e-13 661261)
(1.71085e+06 1.12704e+07 -9.22057e-13 481154 -3.88594e-13 543881)
(-6.65802e+07 -2.57336e+06 0 -1.45023e+06 0 -1.68797e+07)
(6.65841e+07 -2.57437e+06 3.37296e-12 1.45074e+06 -1.9234e-12 1.68808e+07)
(4.88081e+07 -2.03419e+06 0 2.25508e+06 0 1.26698e+07)
(-4.88059e+07 -2.03329e+06 -7.30886e-14 -2.25009e+06 1.03354e-12 -1.2668e+07)
(1.06707e+08 -1.3638e+07 3.88557e-15 4.84437e+06 -1.07146e-12 2.76782e+07)
(-1.067e+08 -1.36356e+07 -2.63775e-12 -4.8434e+06 -3.19663e-12 -2.76762e+07)
(5.45924e+07 -1.35337e+06 -9.33366e-13 7.25639e+06 -1.48085e-12 1.53459e+07)
(-5.45904e+07 -1.35087e+06 2.39108e-12 -7.25225e+06 -2.44902e-13 -1.53444e+07)
(8.57927e+06 -287685 3.85153e-12 826890 -5.52258e-13 2.33386e+06)
(-3.81796e+07 4.02669e+06 1.78819e-12 -5.17641e+06 2.86349e-13 -1.07575e+07)
(4.05405e+06 -1.40793e+06 8.42414e-12 -38952.9 2.18615e-11 996227)
(-3.76757e+07 3.70435e+06 -1.39657e-12 -5.66476e+06 7.30579e-13 -1.07537e+07)
(3.70589e+07 -3.14187e+06 -5.18181e-12 -144233 6.49088e-12 9.15927e+06)
(1.78149e+07 -674625 9.95013e-12 1.04628e+06 -5.3376e-12 4.67985e+06)
(4.88547e+07 -2.5003e+06 4.15017e-13 2.24094e+06 -2.11348e-12 1.26779e+07)
(-4.88534e+07 -2.50014e+06 5.11643e-12 -2.23791e+06 4.19276e-12 -1.26768e+07)
(-4.96678e+07 -2.15666e+06 -4.93405e-13 -101931 2.29619e-12 -1.23489e+07)
(-3.07573e+07 -1.63662e+06 1.0129e-12 -900992 4.17272e-12 -7.85507e+06)
(3.86e+07 -1.85534e+06 -1.09414e-11 136880 2.08395e-12 9.61142e+06)
(4.44791e+07 -1.07194e+06 1.74901e-12 3.83304e+06 -1.4832e-12 1.19872e+07)
(-4.44734e+07 -1.0703e+06 3.49796e-12 -3.83397e+06 2.96634e-12 -1.1986e+07)
(4.55885e+06 -6.02571e+06 1.96068e-13 8.21297e+06 -1.81843e-13 3.16895e+06)
(-4.5565e+06 -6.02609e+06 -2.83947e-13 -8.21736e+06 -1.30333e-13 -3.16945e+06)
(-1.26429e+07 -1.20145e+07 -2.10167e-13 -1.33072e+07 -6.82395e-14 -6.43874e+06)
(1.26459e+07 -1.20166e+07 -9.33167e-14 1.33075e+07 2.66822e-14 6.43957e+06)
(-2.51069e+07 -1.99217e+06 -1.10714e-11 -210511 -5.53508e-12 -6.28177e+06)
(-1.89496e+07 -1.56763e+07 -1.14109e-13 -1.45705e+07 -1.41757e-13 -8.31701e+06)
(1.8953e+07 -1.56795e+07 1.14087e-13 1.45731e+07 -1.41619e-13 8.31852e+06)
(6.57024e+07 -2.49228e+06 5.20431e-12 1.35582e+06 -1.47432e-12 1.66385e+07)
(-6.56985e+07 -2.49133e+06 -3.75579e-12 -1.35527e+06 -2.24593e-12 -1.66374e+07)
(5.16451e+07 -1.62491e+06 -4.8928e-12 5.63235e+06 1.85017e-12 1.42117e+07)
(-5.16422e+07 -1.6241e+06 4.89279e-12 -5.62846e+06 1.85024e-12 -1.421e+07)
(3.41896e+07 -2.70909e+06 -3.30722e-12 -163012 1.2305e-12 8.44268e+06)
(4.98307e+07 -761973 3.69524e-12 5.30121e+06 -1.10573e-12 1.36794e+07)
(-4.98285e+07 -761100 -1.44268e-12 -5.29746e+06 -1.87981e-13 -1.36779e+07)
(-4.84478e+07 -2.37243e+06 8.61235e-12 -75293.2 1.09876e-12 -1.20396e+07)
(484.878 -88334.7 4.69762e-15 578157 2.46023e-14 143573)
(-481.977 -88091.1 1.03672e-13 -575239 8.54231e-14 -142848)
(5.45768e+07 -2.19074e+06 1.79896e-12 205596 3.61389e-12 1.35926e+07)
(2.28321e+07 -1.78279e+06 2.91555e-12 279894 7.83211e-12 5.73456e+06)
(4.05964e+07 -1.59868e+06 1.36349e-11 -42492.3 3.37214e-12 1.00623e+07)
(-1.85079e+07 -3.01023e+06 -2.44489e-12 36495.5 2.02701e-12 -4.58313e+06)
(1.20688e+07 -1.24052e+07 -1.11615e-12 1.38088e+07 3.68309e-13 6.42076e+06)
(-1.20664e+07 -1.24032e+07 -7.49543e-13 -1.38083e+07 -2.37972e-13 -6.42003e+06)
(3.36514e+07 -1.66034e+06 -1.98677e-11 74601.4 7.17491e-12 8.36811e+06)
(5.19637e+06 -2.04147e+06 8.02376e-12 262880 -1.76938e-12 1.35455e+06)
(6.02183e+06 -856510 4.56368e-12 -175413 2.29003e-11 1.45061e+06)
(-2.43892e+07 -3.24814e+06 -1.18359e-11 -93547.2 -1.75854e-11 -6.07466e+06)
(1.58164e+07 -277936 -2.34369e-12 1.13779e+06 1.05399e-12 4.20668e+06)
(4.34337e+07 -1.80347e+06 1.22087e-12 1.46952e+06 -5.63474e-12 1.11414e+07)
(1.06303e+07 128474 -5.28276e-12 894449 1.97852e-13 2.85952e+06)
(-3.87044e+07 4.20888e+06 1.15383e-12 -4.34743e+06 -9.35894e-13 -1.0682e+07)
(-2.3422e+07 -2.91108e+06 -1.15802e-11 -222653 -2.47908e-12 -5.86672e+06)
(4.25903e+07 -1.45258e+06 0 4.02633e+06 0 1.15665e+07)
(-4.25844e+07 -1.4508e+06 -3.53497e-12 -4.02718e+06 -5.13217e-12 -1.15653e+07)
(7.43745e+07 -4.40849e+06 -3.39639e-13 6.87307e+06 2.79931e-12 2.01592e+07)
(-7.4371e+07 -4.40592e+06 -1.96613e-12 -6.87057e+06 3.73036e-12 -2.01577e+07)
(9.90072e+07 -1.54755e+06 -2.11607e-12 137034 7.38391e-12 2.45997e+07)
(-9.9004e+07 -1.54745e+06 -1.26331e-12 -137025 3.60887e-12 -2.45989e+07)
(178332 -361452 1.27328e-14 1.0004e+06 6.95988e-14 292468)
(-176180 -359144 -6.74721e-14 -999874 6.23026e-14 -291803)
(-1.16698e+08 -6.18667e+06 7.85139e-12 -1.64109e+06 7.04062e-12 -2.93623e+07)
(1.16703e+08 -6.18721e+06 -3.59119e-12 1.6412e+06 4.66679e-12 2.93635e+07)
(-2.89981e+07 1.58438e+06 1.25703e-12 -3.83846e+06 1.88621e-12 -8.14743e+06)
(7.50332e+07 -1.40688e+07 4.23254e-12 8.33289e+06 -2.89591e-12 2.06848e+07)
(-7.50224e+07 -1.40645e+07 -3.32874e-12 -8.33321e+06 -2.27365e-12 -2.06822e+07)
(7.24543e+07 -4.87332e+06 -6.24551e-13 7.26614e+06 1.17178e-12 1.97803e+07)
(-7.24509e+07 -4.87083e+06 1.57175e-12 -7.26354e+06 3.92671e-12 -1.97788e+07)
(-1.0512e+08 -789431 -5.01346e-12 16626.2 -1.72698e-12 -2.60783e+07)
(1.05123e+08 -789400 -2.69416e-12 -16624.2 1.46344e-12 2.6079e+07)
(-4.32953e+07 -1.80414e+06 2.95311e-12 -1.4288e+06 -5.76629e-13 -1.1097e+07)
(4.17212e+06 -3.07748e+06 5.57616e-12 194712 -4.30943e-13 1.0835e+06)
(-1.95825e+07 -2.94026e+06 -4.83751e-12 81382.7 2.77828e-12 -4.83861e+06)
(1.87633e+07 -2.81894e+06 2.85064e-12 181933 4.62176e-11 4.70069e+06)
(2.46667e+07 -1.58874e+07 1.43407e-13 1.30779e+07 1.35072e-13 9.36519e+06)
(-2.46631e+07 -1.5884e+07 -2.85842e-13 -1.30751e+07 -1.61021e-13 -9.36362e+06)
(2.1684e+07 8.76791e+06 -4.0265e-13 2.35315e+06 7.05323e-13 5.9641e+06)
(-8.80127e+06 -2.21836e+06 -8.74281e-14 -496251 -1.13144e-13 -2.3069e+06)
(-5.47428e+07 -405891 -3.86418e-12 -6.8026e+06 -3.10152e-12 -1.52707e+07)
(5.47387e+07 -404625 -4.06845e-12 6.80565e+06 6.2802e-13 1.52704e+07)
(-2.89279e+07 2.17946e+06 3.6818e-12 -3.97809e+06 7.40521e-13 -8.16466e+06)
(-1.95125e+07 -3.26338e+06 -5.90727e-12 -201092 -3.90071e-12 -4.89134e+06)
(929817 -3.54531e+06 3.20371e-12 -35936.7 7.08953e-12 221790)
(-3.18889e+07 -1.9028e+06 -2.19033e-12 -11981.5 -7.54978e-12 -7.91527e+06)
(-1.99622e+07 -160420 -9.22405e-12 -115620 1.91126e-11 -4.98172e+06)
(2.02927e+07 -58333.2 -3.53056e-12 427732 3.53536e-11 5.14116e+06)
(8.71323e+07 -9.45017e+06 -3.97438e-14 7.13025e+06 1.53274e-12 2.33884e+07)
(-8.71271e+07 -9.44655e+06 2.17004e-12 -7.12803e+06 1.16045e-12 -2.33866e+07)
(3.50988e+06 -2.10417e+06 1.39335e-11 -153536 -2.55593e-13 832777)
(9.74164e+07 -9.6635e+06 -1.33529e-12 5.40705e+06 2.13368e-14 2.55126e+07)
(-9.7411e+07 -9.66104e+06 9.5559e-13 -5.40585e+06 -1.23174e-12 -2.55109e+07)
(5.38704e+07 -2.31218e+06 -5.15606e-12 453914 -1.68835e-12 1.3479e+07)
(3.7968e+07 -1.90322e+06 2.87437e-11 403876 -8.89917e-12 9.52085e+06)
(2.32024e+07 -3.68049e+06 -1.30196e-11 -177028 -4.38632e-12 5.71307e+06)
(9.77365e+07 -1.01146e+07 -1.00524e-13 6.39942e+06 1.6474e-12 2.58382e+07)
(-9.77313e+07 -1.01121e+07 1.04451e-12 -6.39812e+06 3.91161e-13 -2.58366e+07)
(5.40183e+07 -383704 -4.9281e-12 6.70365e+06 5.24277e-12 1.50663e+07)
(-5.40169e+07 -381804 7.53584e-13 -6.70107e+06 2.22356e-12 -1.50654e+07)
(9.98579e+07 -901035 2.21282e-12 172366 2.88977e-12 2.48195e+07)
(-9.98548e+07 -900895 5.35359e-12 -172300 4.56976e-12 -2.48187e+07)
(2.4e+07 3.0353e+06 -3.60303e-13 -1.35895e+06 1.90336e-13 5.6177e+06)
(-3.94105e+07 536437 -1.58826e-12 -2.57632e+06 5.12798e-14 -1.04178e+07)
(-2.94012e+07 -1.24707e+06 2.50468e-12 -2.45517e+06 -7.49388e-13 -7.9042e+06)
(2.38685e+07 -2.08201e+06 -1.40593e-11 362379 -5.71149e-13 6.01218e+06)
(2.50143e+06 -1.46818e+06 8.33785e-12 32757.3 -1.48325e-12 628782)
(-8.08183e+07 -3.07012e+07 -7.8718e-13 -1.31994e+07 -7.66742e-13 -2.33277e+07)
(8.08301e+07 -3.07051e+07 2.13443e-12 1.32009e+07 -2.36192e-12 2.3331e+07)
(1.15604e+08 -1.45683e+07 -3.8892e-12 2.44552e+06 3.22748e-12 2.92905e+07)
(-1.15597e+08 -1.4567e+07 1.80696e-12 -2.44516e+06 6.43482e-13 -2.92887e+07)
(2.42414e+07 -1.53302e+07 -5.64188e-14 1.22701e+07 2.44492e-13 9.05924e+06)
(-2.42378e+07 -1.53268e+07 3.33263e-13 -1.22671e+07 2.72853e-13 -9.05762e+06)
(8.85719e+07 -1.02094e+07 3.42626e-13 7.71104e+06 5.09404e-13 2.38897e+07)
(-8.85665e+07 -1.02055e+07 2.41658e-12 -7.7085e+06 2.89736e-12 -2.38878e+07)
(-1.79196e+07 -1.75494e+06 -1.11198e-12 -179229 9.18268e-12 -4.49069e+06)
(-2.10895e+06 -1.58434e+06 2.53062e-14 -1.26388e+06 6.25511e-14 -836868)
(2.14358e+06 -1.57818e+06 -1.24352e-14 1.1597e+06 3.4003e-14 819610)
(-1.6723e+07 -1.15445e+06 1.46999e-13 -1.25604e+06 -1.49627e-13 -4.46096e+06)
(2.06066e+07 -2.57862e+06 -1.00895e-11 230029 -4.37129e-12 5.17e+06)
(-1.05394e+08 71087.6 -7.83067e-12 -180677 -1.10071e-11 -2.61951e+07)
(1.05396e+08 71078.1 -2.03964e-13 180681 2.50518e-12 2.61958e+07)
(1.01505e+07 3.86675e+06 2.44871e-12 1.40452e+06 1.73204e-12 2.86704e+06)
(6.82951e+07 -2.94052e+06 2.54391e-12 2.12905e+06 -5.77573e-12 1.74737e+07)
(-6.82911e+07 -2.93951e+06 2.84958e-13 -2.12844e+06 -3.68331e-12 -1.74725e+07)
(-1.00355e+08 -1.68e+07 -7.27531e-13 -7.31891e+06 -1.4265e-12 -2.67161e+07)
(1.00363e+08 -1.68039e+07 -5.60238e-12 7.32071e+06 3.59605e-12 2.67185e+07)
(-7.08814e+06 3.74356e+06 -2.49048e-12 -823338 -2.32696e-12 -1.963e+06)
(1.03803e+08 -1.481e+07 -2.38748e-12 6.02983e+06 2.49617e-12 2.72518e+07)
(-1.03796e+08 -1.48071e+07 -1.61635e-12 -6.02852e+06 -5.83415e-13 -2.72497e+07)
(-1.68128e+07 -558095 1.87287e-12 -920002 4.41625e-12 -4.39986e+06)
(-1.84396e+07 -2.14995e+06 -9.4235e-12 8162.84 -1.34121e-12 -4.57322e+06)
(4.96519e+07 233491 -3.3466e-12 6.1772e+06 3.66577e-12 1.38523e+07)
(4.42391e+07 -2.56897e+06 1.20706e-12 1.4789e+06 3.21105e-12 1.13436e+07)
(4.17284e+07 -2.41314e+07 2.2303e-13 1.72018e+07 4.25969e-13 1.46218e+07)
(-4.17227e+07 -2.4128e+07 -3.11993e-13 -1.71995e+07 -1.52549e-13 -1.46198e+07)
(5.23465e+07 -2.05131e+07 1.18965e-12 1.25951e+07 -1.21949e-12 1.61133e+07)
(-5.23426e+07 -2.05099e+07 -6.85772e-13 -1.25921e+07 -4.05151e-13 -1.61116e+07)
(-3.0055e+07 -3.16744e+06 2.99079e-12 -6240.98 -5.41113e-12 -7.45881e+06)
(-3.166e+07 -852620 2.92445e-12 -2.32354e+06 -6.24999e-13 -8.43201e+06)
(-3.28917e+07 -644976 2.12219e-11 -367628 9.74092e-13 -8.25232e+06)
(3.28551e+07 -631988 -9.04083e-12 656458 8.63083e-12 8.31491e+06)
(3.12281e+07 -2.03832e+06 6.10112e-12 939082 -5.33396e-12 7.98134e+06)
(6.74815e+07 -3.03192e+06 6.32073e-12 2.1482e+06 -9.23169e-12 1.72765e+07)
(-6.74775e+07 -3.03091e+06 -2.7718e-12 -2.14765e+06 -2.52917e-12 -1.72754e+07)
(-6.12417e+07 -1.84195e+06 4.50349e-12 215877 4.1208e-12 -1.51417e+07)
(-2.53837e+07 -2.95973e+06 -1.00521e-11 -32107.2 -1.47962e-12 -6.30618e+06)
(-5.29551e+07 -1.43369e+06 9.62797e-12 -45059.1 3.56409e-12 -1.31504e+07)
(3.65142e+06 -3.32403e+06 1.03105e-11 425707 -1.14356e-11 1.01162e+06)
(-6.24574e+07 -2.16409e+07 -5.59719e-13 -1.1711e+07 -4.78414e-13 -1.84027e+07)
(6.24656e+07 -2.16417e+07 -5.8976e-13 1.17122e+07 4.37586e-13 1.8405e+07)
(-9.11132e+07 -1.50976e+07 -4.06826e-13 -7.22908e+06 -8.16798e-13 -2.44007e+07)
(9.11217e+07 -1.51022e+07 2.17468e-12 7.23134e+06 -2.29125e-12 2.44034e+07)
(-2.07509e+07 2.66532e+06 -3.46705e-13 -2.84174e+06 -1.69994e-12 -5.8538e+06)
(2.14993e+06 2.87771e+06 -1.68324e-12 248398 3.14238e-12 595073)
(5.92302e+06 -4.04826e+06 1.46744e-12 174159 4.86714e-11 1.51283e+06)
(-1.17405e+08 -7.70465e+06 7.10317e-12 -1.91198e+06 6.12924e-12 -2.9605e+07)
(1.1741e+08 -7.70523e+06 2.41285e-13 1.91204e+06 4.58531e-13 2.96061e+07)
(-2.15644e+07 -3.1118e+06 -2.34153e-12 161365 4.20048e-11 -5.31052e+06)
(2.15022e+07 -2.8375e+06 0 316924 0 5.41378e+06)
(-3.35867e+07 -2.62376e+06 1.27965e-11 -523103 3.44617e-12 -8.46334e+06)
(2.72149e+06 -2.07568e+06 1.33955e-11 161932 -9.76392e-12 715435)
(-6.61143e+06 3.49402e+06 -3.32275e-12 -1.26343e+06 -1.74166e-12 -1.95391e+06)
(-2.20404e+07 -3.29877e+06 -2.45512e-12 147528 7.02923e-12 -5.43206e+06)
(1.06793e+07 4.81314e+06 3.90269e-13 1.86692e+06 1.5558e-13 3.11298e+06)
(-4.44037e+07 -2.57364e+06 1.03796e-12 -1.49166e+06 3.31721e-12 -1.13876e+07)
(-9.58e+07 -1.56657e+07 -4.0224e-12 -6.42122e+06 -3.54371e-12 -2.53632e+07)
(9.58077e+07 -1.56696e+07 -2.59081e-12 6.423e+06 2.76979e-12 2.53655e+07)
(-3.33532e+07 -2.15354e+06 -3.0099e-12 225593 -6.82756e-12 -8.21962e+06)
(-6.08007e+07 -2.15094e+06 -6.91313e-12 -265258 2.31782e-12 -1.51517e+07)
(-6.47314e+07 -1.71795e+06 1.95903e-12 -387198 -4.12003e-14 -1.61573e+07)
(-5.1861e+07 -388189 1.84779e-12 -6.96217e+06 2.28386e-12 -1.45952e+07)
(5.18584e+07 -385972 -1.26015e-12 6.9675e+06 3.04916e-12 1.45959e+07)
(-5.56204e+07 -1.59512e+06 -6.68762e-12 -30411.7 1.36433e-11 -1.38081e+07)
(-1.98465e+07 -3.178e+06 4.65266e-12 20878.1 -7.22516e-12 -4.91913e+06)
(-9.10925e+07 -1.64921e+07 -3.15963e-12 -8.23354e+06 -3.50214e-12 -2.46448e+07)
(9.11006e+07 -1.64969e+07 2.14127e-13 8.23554e+06 -1.00382e-12 2.46473e+07)
(-2.78576e+07 3.42596e+06 -8.55273e-13 -3.73151e+06 2.57221e-12 -7.83789e+06)
(4.68898e+06 -2.76574e+06 -2.37885e-12 18480.8 -1.18261e-11 1.16802e+06)
(1.16353e+08 -1.47859e+07 1.8138e-12 3.82016e+06 -1.25071e-12 2.98173e+07)
(-1.16346e+08 -1.47844e+07 3.02642e-12 -3.81985e+06 2.94351e-12 -2.98157e+07)
(-6.87031e+07 -595135 -1.19445e-11 -23229.3 8.04814e-14 -1.70524e+07)
(-8.80405e+07 -1.72237e+07 1.1259e-12 -8.04835e+06 9.38815e-13 -2.38416e+07)
(8.80504e+07 -1.72285e+07 6.83411e-13 8.04993e+06 -7.47421e-13 2.38444e+07)
(-3.70147e+07 921424 6.3533e-13 -2.70052e+06 2.90247e-13 -9.85415e+06)
(3.30445e+07 -2.65562e+06 5.281e-12 880666 3.99607e-12 8.41753e+06)
(-3.92837e+07 3.81014e+06 1.20605e-12 -4.60199e+06 1.77203e-13 -1.08889e+07)
(9.70984e+07 -1.01019e+06 3.84881e-12 -13292.9 -7.55197e-13 2.40888e+07)
(-9.70954e+07 -1.00994e+06 7.4484e-12 13279.5 7.07292e-12 -2.4088e+07)
(-1.87591e+07 -1.47451e+07 0 -1.3014e+07 0 -7.88355e+06)
(1.87626e+07 -1.47482e+07 -7.63119e-13 1.30161e+07 2.33791e-13 7.88494e+06)
(-2.48905e+07 89857.9 2.8595e-12 -2.15552e+06 1.25379e-12 -6.71068e+06)
(-6.7713e+07 -1.90545e+06 -1.72764e-12 -149557 -3.49629e-12 -1.68381e+07)
(9.68895e+07 -384215 3.39602e-12 117632 -6.39215e-12 2.40694e+07)
(-9.68865e+07 -383965 4.17192e-12 -117652 5.29084e-12 -2.40687e+07)
(25520.1 -191708 0 113007 0 34371.3)
(-25352.4 -190777 1.33233e-15 -112497 1.43262e-15 -34203.2)
(2.10762e+07 9.84178e+06 -7.24309e-13 1.72342e+06 5.59095e-14 5.65706e+06)
(-2.65437e+07 -709325 2.82216e-12 -2.37214e+06 -7.22686e-13 -7.1746e+06)
(-1.12207e+07 -5.78608e+06 -3.28101e-13 -1.84843e+06 2.18367e-14 -3.24272e+06)
(1.12246e+07 -5.78158e+06 1.92855e-13 1.84589e+06 8.56711e-14 3.24305e+06)
(-3.2639e+07 2.99892e+06 -1.73434e-12 -4.23046e+06 -2.13339e-12 -9.14806e+06)
(2.51579e+06 3.63604e+06 1.81309e-12 529420 -4.01961e-13 755577)
(6.94057e+06 -3.74587e+06 3.4572e-12 44315.9 3.20731e-12 1.73309e+06)
(-1.0352e+08 -3.24225e+06 2.68711e-12 -721918 1.88454e-12 -2.58644e+07)
(1.03523e+08 -3.2426e+06 3.69742e-12 721962 -5.61023e-12 2.58653e+07)
(-1.80445e+07 -1.51879e+06 1.17134e-11 -79385 -5.59935e-12 -4.49691e+06)
(-8.13014e+07 -2.98321e+07 1.03271e-12 -1.17391e+07 1.21949e-12 -2.30852e+07)
(8.1313e+07 -2.98359e+07 1.01064e-13 1.17402e+07 -8.28805e-14 2.30884e+07)
(-3.12276e+07 -1.48315e+06 -3.12484e-12 -46405.6 -1.43215e-11 -7.75972e+06)
(9.12097e+07 -4.46883e+06 -2.17668e-12 2.4481e+06 -1.81277e-12 2.32384e+07)
(-9.12058e+07 -4.46802e+06 4.83464e-12 -2.44777e+06 4.02577e-12 -2.32374e+07)
(7.50283e+07 -5.00531e+06 -7.25036e-13 7.27018e+06 -2.69382e-12 2.04199e+07)
(-7.50248e+07 -5.00209e+06 -2.79831e-12 -7.26725e+06 -3.16002e-12 -2.04183e+07)
(1.93267e+06 -2.90095e+06 2.65897e-14 4.76398e+06 -1.43521e-13 1.66158e+06)
(-1.93284e+06 -2.90249e+06 1.827e-13 -4.76788e+06 1.3448e-13 -1.66258e+06)
(4.89928e+06 -2.86953e+06 -8.80181e-12 -446435 -1.61964e-11 1.10484e+06)
(9.39217e+07 -3.51719e+06 -1.47079e-12 2.02962e+06 -5.50357e-12 2.38075e+07)
(-9.39178e+07 -3.51647e+06 -2.46904e-12 -2.02937e+06 -9.82936e-13 -2.38064e+07)
(-6.24854e+07 -1.66117e+06 -3.29863e-12 -86119.8 -2.62718e-12 -1.55253e+07)
(9.1103e+07 -2.53077e+06 4.10548e-12 666998 4.13022e-12 2.277e+07)
(-9.10995e+07 -2.53042e+06 -1.74894e-12 -666895 3.54403e-12 -2.27691e+07)
(1.00495e+08 -211269 6.46938e-12 116466 -1.2053e-11 2.49636e+07)
(3.76484e+07 -2.08612e+06 2.97962e-13 310548 -4.73746e-12 9.41838e+06)
(-1.12904e+08 -1.73982e+07 5.06387e-12 -4.52775e+06 5.06399e-12 -2.91373e+07)
(1.12912e+08 -1.74001e+07 -5.06416e-12 4.52815e+06 5.0643e-12 2.91392e+07)
(4.00682e+07 3.25187e+06 3.27737e-12 5.39229e+06 -1.36892e-12 1.12797e+07)
(6.45877e+07 -2.05886e+06 -3.63434e-13 87305.9 2.19541e-12 1.60472e+07)
(6.39277e+07 -2.13389e+06 -1.19189e-11 168594 1.01339e-11 1.59036e+07)
(-5.08563e+07 -2.64281e+06 -1.10494e-12 -648416 1.74666e-12 -1.27794e+07)
(2.35075e+07 8.62832e+06 1.28694e-12 1.48646e+06 -4.79806e-13 6.20151e+06)
(297421 -3.95953e+06 1.11354e-11 531794 -1.21744e-11 205745)
(-3.48389e+07 5.42755e+06 1.03037e-12 -4.60504e+06 -6.54564e-13 -9.78685e+06)
(5.32929e+07 -827048 -7.92691e-13 -89012.7 9.47453e-12 1.3201e+07)
(-4.97783e+07 -2.11069e+06 7.65166e-13 -513084 -3.33117e-12 -1.24783e+07)
(-1.07888e+08 -7.66283e+06 -3.10797e-12 -3.98507e+06 -2.40545e-12 -2.7758e+07)
(1.07893e+08 -7.66414e+06 4.72711e-12 3.98562e+06 -5.04963e-12 2.77594e+07)
(-2.31784e+07 -3.00198e+06 -7.87071e-12 140160 3.78118e-13 -5.71625e+06)
(-1.72198e+07 8.10435e+06 -1.23985e-12 -2.53909e+06 3.03594e-13 -4.90257e+06)
(-6.814e+07 -338774 3.16232e-12 3211.15 1.13486e-12 -1.69061e+07)
(-6.89126e+07 -1.13267e+06 -7.99835e-12 -164118 -2.98574e-12 -1.71393e+07)
(8.28798e+07 -1.54011e+06 0 12238.6 0 2.05672e+07)
(-6.31313e+07 -582077 -6.73399e-12 -164300 -4.52407e-12 -1.57049e+07)
(5.47929e+07 -2.8328e+06 -6.63881e-12 2.19187e+06 -3.46256e-13 1.41391e+07)
(-5.47886e+07 -2.83288e+06 2.51017e-12 -2.19018e+06 -2.24919e-12 -1.41376e+07)
(2.15974e+07 4.0347e+06 8.25533e-13 -1.80107e+06 -3.67919e-13 4.91186e+06)
(3.69217e+06 6.44668e+06 -2.14482e-12 849397 1.0151e-12 1.12686e+06)
(5.83127e+07 550001 -9.98588e-12 450350 6.51681e-12 1.45803e+07)
(9.3642e+07 -1.82409e+06 3.09454e-12 648882 -4.09277e-13 2.33955e+07)
(-9.36386e+07 -1.82372e+06 -5.96933e-12 -648739 -4.89303e-12 -2.33946e+07)
(1.02922e+08 -1.45875e+07 -5.71198e-12 5.34081e+06 6.71767e-12 2.68622e+07)
(-1.02915e+08 -1.45847e+07 -2.8238e-13 -5.33971e+06 -1.54599e-12 -2.68602e+07)
(7.7826e+06 -1.73655e+06 -1.08843e-12 240121 3.84909e-12 1.9906e+06)
(-1.48164e+07 8.75066e+06 -4.86896e-12 -1.6522e+06 -7.45397e-13 -4.08619e+06)
(7.99879e+07 -2.69285e+07 -2.00407e-13 1.23678e+07 1.71779e-13 2.29153e+07)
(-7.99762e+07 -2.69256e+07 1.38444e-13 -1.23672e+07 -2.09744e-13 -2.29123e+07)
(4.04945e+07 -1.15197e+06 2.28636e-11 693762 -1.1759e-12 1.02196e+07)
(-2.34337e+07 -1.82681e+06 8.59323e-12 -1.0251e+06 3.33624e-12 -6.06873e+06)
(-4.3857e+07 -1.6284e+06 1.14881e-12 66275.9 3.56435e-12 -1.08654e+07)
(1.03141e+07 -1.87704e+06 -5.96375e-12 184425 1.60697e-12 2.60489e+06)
(6.03661e+06 -2.61766e+06 -2.22002e-12 -112897 -1.0365e-11 1.46979e+06)
(-6.32732e+07 -2.08956e+07 -5.25857e-14 -1.09292e+07 -1.5158e-13 -1.84111e+07)
(6.32815e+07 -2.08962e+07 -3.31606e-14 1.093e+07 1.17385e-13 1.84134e+07)
(-5.47196e+07 -2.04673e+06 -7.20877e-12 -1.50504e+06 -7.1614e-12 -1.39505e+07)
(5.4726e+07 -2.04781e+06 1.18819e-12 1.50215e+06 -9.05104e-12 1.39513e+07)
(4.62352e+07 -2.68997e+06 -2.25501e-11 -289533 -3.89569e-12 1.14e+07)
(-5.68552e+07 -2.17974e+06 2.32111e-12 -12670.6 4.91212e-12 -1.41101e+07)
(1.13995e+07 -3.25227e+06 3.06562e-11 -164550 -2.72348e-11 2.78762e+06)
(-1.11475e+07 -3.11885e+06 -4.62121e-12 31298.1 -7.49671e-13 -2.75815e+06)
(-23193.5 -74134.1 -2.06351e-14 -851394 -2.28207e-14 -217003)
(22642.9 -73483.7 -2.19377e-14 855108 2.22447e-14 217788)
(-2.35631e+07 -2.37159e+06 -6.13182e-12 -70443.4 -4.69839e-12 -5.86395e+06)
(-2.93597e+07 -2.02688e+06 1.46041e-11 -178751 1.07557e-11 -7.3291e+06)
(1.35062e+07 1.1619e+07 -3.04845e-12 458129 1.38058e-13 3.46483e+06)
(4.66114e+07 -4.53504e+06 -2.64934e-14 4.9336e+06 -2.42758e-13 1.27894e+07)
(2.5762e+06 -1.53535e+06 -8.86035e-12 -329814 -9.13099e-12 557375)
(-2.26357e+07 -3.03063e+06 3.94496e-12 -199858 -5.11273e-13 -5.66598e+06)
(-8.92147e+07 -5.3519e+06 -6.229e-13 -4.18601e+06 -4.20194e-12 -2.31746e+07)
(8.92187e+07 -5.35303e+06 2.79646e-12 4.18662e+06 -1.49243e-12 2.31758e+07)
(-1.03594e+08 -1.13408e+06 0 19621.2 0 -2.56989e+07)
(1.03597e+08 -1.13413e+06 -1.56011e-12 -19625.2 3.34603e-12 2.56996e+07)
(-5.03305e+07 -2.19075e+06 -5.25081e-12 88791.8 6.84976e-12 -1.2466e+07)
(6.70036e+07 -2.12881e+06 2.97419e-12 103497 1.24164e-12 1.66506e+07)
(-9.70018e+07 -997083 3.12383e-12 87745.6 -3.42629e-13 -2.40463e+07)
(9.70048e+07 -997165 0 -87690.6 0 2.40471e+07)
(1.50169e+06 -1.70966e+06 -1.2695e-13 2.37125e+06 4.54342e-14 960956)
(8.66684e+06 1.10252e+07 -1.3134e-12 616001 -1.56482e-15 2.30326e+06)
(-8.94734e+07 -1.2947e+07 9.68854e-13 -7.10931e+06 3.13174e-13 -2.39641e+07)
(8.94798e+07 -1.29512e+07 0 7.11154e+06 0 2.39663e+07)
(-1.35789e+07 -368348 -1.99661e-13 2.69013e+06 2.26642e-14 -2.70173e+06)
(1.5316e+07 -7.36469e+06 3.66739e-14 2.74806e+06 -2.61347e-14 4.48206e+06)
(-1.53089e+07 -7.3615e+06 -1.46062e-14 -2.75583e+06 1.64823e-13 -4.48223e+06)
(3.29217e+07 2.5727e+06 -5.01822e-12 4.85626e+06 2.29746e-12 9.37347e+06)
(3.3726e+07 -2.67674e+06 -1.00455e-11 315543 -6.95827e-13 8.44639e+06)
(-6.52518e+06 -3.89807e+06 -4.0211e-12 422327 -1.09462e-11 -1.51424e+06)
(-204853 -1.95643e+06 2.71976e-11 583926 8.60498e-12 94055.6)
(-915.423 23740.6 5.06218e-14 498140 -6.57055e-14 123371)
(927.176 22737.7 -5.05732e-14 -496433 -6.55311e-14 -122945)
(943725 -2.53362e+06 1.73172e-13 6.72134e+06 1.76386e-13 1.90186e+06)
(-944381 -2.53545e+06 4.17487e-13 -6.7267e+06 2.00577e-13 -1.90335e+06)
(4.54433e+07 -2.60678e+06 4.91604e-12 175980 -2.33708e-12 1.13191e+07)
(-5.07628e+07 -2.41206e+06 -1.91425e-12 -3.79696e+06 -6.77893e-12 -1.35374e+07)
(5.07676e+07 -2.41391e+06 5.56755e-13 3.7971e+06 9.02014e-14 1.35386e+07)
(1.43075e+06 267572 -5.46597e-12 145475 -4.54566e-12 391094)
(3.29453e+07 -2.94196e+06 2.15227e-12 143908 -5.01464e-12 8.21011e+06)
(1.96341e+06 -2.45702e+06 -5.57113e-14 2.89902e+06 -2.91141e-14 1.20647e+06)
(-1.96541e+06 -2.46727e+06 -8.7204e-14 -2.90611e+06 -7.53986e-14 -1.20872e+06)
(-4.11442e+07 2.45309e+06 1.05592e-12 -6.21854e+06 -2.08298e-12 -1.17517e+07)
(-2.76648e+07 5.96912e+06 1.11645e-12 131957 7.52977e-13 -6.83147e+06)
(-2.20681e+07 1.49735e+06 -7.32602e-13 2.58882e+06 -4.4196e-13 -4.83319e+06)
(3.42241e+07 -3.0676e+06 -9.49345e-13 -51709.1 1.46496e-12 8.47887e+06)
(-7.89152e+07 -415860 5.93169e-12 -115185 -7.41389e-13 -1.9609e+07)
(1.05155e+07 -2.46874e+06 -1.59338e-12 19945.1 -7.59852e-12 2.61405e+06)
(4.60889e+07 1.76055e+06 -4.02227e-12 5.38766e+06 3.85373e-12 1.27724e+07)
(-5.53096e+07 -3.52677e+06 5.83009e-13 -6.17443e+06 8.34875e-13 -1.52554e+07)
(-1.94349e+07 5.98179e+06 -1.31837e-13 -2.6944e+06 5.03342e-13 -5.49072e+06)
(5.53026e+07 -3.44053e+06 -2.7081e-12 6.07494e+06 2.00229e-12 1.5229e+07)
(-8.98803e+07 -885969 -7.35806e-12 482628 -1.81403e-13 -2.21814e+07)
(9.07021e+06 -2.17697e+06 -3.35532e-13 728804 1.8383e-13 2.43133e+06)
(3.84084e+07 -1.75746e+06 -9.98444e-12 246359 -3.21951e-12 9.59104e+06)
(-3.28901e+07 -2.28754e+07 -5.65976e-13 -1.86397e+07 -1.75204e-13 -1.27856e+07)
(3.28947e+07 -2.28787e+07 -9.42843e-13 1.86427e+07 5.36902e-13 1.27875e+07)
(-1.78642e+07 -826359 7.60905e-13 -1.46199e+06 2.82978e-12 -4.79522e+06)
(1.15324e+07 1.04296e+07 -2.12877e-12 907883 8.57846e-14 3.0867e+06)
(8.48588e+07 -7.72376e+06 -1.25071e-13 6.86418e+06 7.28992e-13 2.27583e+07)
(-8.48545e+07 -7.72076e+06 -1.61863e-12 -6.86221e+06 -8.13436e-13 -2.27568e+07)
(-6.61031e+07 -682847 2.57191e-11 517661 1.86432e-12 -1.62731e+07)
(6.64102e+07 -661413 -1.402e-11 -540113 2.06387e-11 1.63437e+07)
(66703.4 -179955 0 133275 0 49618.8)
(-66354.4 -179081 2.19678e-15 -132682 1.67532e-14 -49384.9)
(-3.58601e+07 5.1201e+06 -2.17276e-12 -4.03415e+06 -1.77688e-12 -9.89858e+06)
(1.92397e+07 -1.83828e+07 -5.98594e-13 1.80198e+07 2.57316e-13 9.24484e+06)
(-1.92363e+07 -1.83794e+07 1.27385e-12 -1.80164e+07 8.05964e-13 -9.24314e+06)
(-2.82235e+07 -1.15965e+06 -3.15208e-12 408832 1.57238e-11 -6.90139e+06)
(1.3205e+07 -1.54932e+06 3.02469e-12 356192 6.85843e-12 3.36481e+06)
(-5.10404e+07 -2.62033e+06 3.87342e-12 -406209 -6.67787e-12 -1.27649e+07)
(5.10636e+07 -2.63887e+06 -6.00834e-13 357447 7.77785e-12 1.27586e+07)
(9.66792e+07 -3.84173e+06 4.40464e-13 1.87153e+06 -1.91767e-12 2.44524e+07)
(-9.66754e+07 -3.84107e+06 -2.70415e-12 -1.87127e+06 -1.09148e-12 -2.44514e+07)
(-36372 -6478.1 2.87409e-14 125999 -1.25687e-13 22238.3)
(36394.4 -6405.35 -2.13045e-14 -124924 -4.49209e-14 -21966.1)
(6.38826e+06 1.27253e+07 -7.88645e-13 -171107 -4.37583e-13 1.5426e+06)
(-1.12677e+08 -6.70282e+06 4.97002e-12 -3.13575e+06 1.29718e-12 -2.87354e+07)
(1.12681e+08 -6.70368e+06 -5.57611e-12 3.13609e+06 9.60759e-12 2.87366e+07)
(-5.8995e+06 -2.19908e+06 8.84691e-13 -64663.6 -4.11582e-12 -1.47983e+06)
(-4.4181e+07 -102494 1.5717e-12 -3.59633e+06 9.01986e-13 -1.18545e+07)
(-9.39649e+07 -582003 1.67854e-12 -205039 2.98926e-12 -2.33655e+07)
(9.39681e+07 -582212 -4.96208e-12 205081 7.4733e-12 2.33663e+07)
(-9.91211e+07 -2.26299e+07 6.98707e-14 -8.11148e+06 -1.11514e-13 -2.66066e+07)
(9.91317e+07 -2.26341e+07 2.01431e-12 8.11302e+06 -1.34882e-12 2.66096e+07)
(1.90457e+07 -3.40429e+06 -9.46835e-12 -233458 2.17039e-11 4.6677e+06)
(-4.0949e+07 -2.82974e+06 4.27222e-12 206130 2.69835e-12 -1.01091e+07)
(-6.68829e+06 1.08521e+07 1.19994e-12 -683477 -5.3031e-13 -1.82908e+06)
(-2.84827e+07 -1.84839e+07 -5.58565e-13 -1.40733e+07 -3.34246e-13 -1.0559e+07)
(2.84866e+07 -1.8487e+07 5.58718e-13 1.40767e+07 -3.34162e-13 1.05608e+07)
(-1.11471e+08 -6.1186e+06 -3.65253e-12 -1.91902e+06 -2.8899e-12 -2.81344e+07)
(1.11475e+08 -6.11918e+06 -2.30978e-12 1.91913e+06 6.30344e-13 2.81355e+07)
(-1.86739e+07 9.55867e+06 -1.89622e-12 -1.00661e+06 -3.48427e-13 -4.88313e+06)
(-6.2854e+07 -2.33113e+06 0 -473910 0 -1.57129e+07)
(-2.3095e+07 1.74947e+06 -1.76407e-13 1.45424e+06 -1.17559e-13 -5.36951e+06)
(-6.38441e+07 -1.8437e+06 9.60146e-12 182892 -3.79073e-12 -1.57956e+07)
(-6.34896e+07 -1.91248e+06 -6.13083e-12 -424574 -8.75834e-12 -1.58584e+07)
(-3.79229e+07 1.51927e+06 -2.32801e-12 -5.4216e+06 -1.54432e-12 -1.07547e+07)
(-4.16796e+07 -592408 7.22223e-12 -84934.7 -5.54141e-12 -1.03626e+07)
(4.17571e+07 -817821 4.05061e-12 4.39947e+06 -2.84838e-12 1.14524e+07)
(3.1862e+07 -1.9548e+06 4.39784e-12 72440.8 -5.40873e-12 7.92357e+06)
(-4.17498e+07 -818869 3.05119e-12 -4.40142e+06 1.34356e-12 -1.1451e+07)
(1.09505e+08 -1.37411e+07 3.35896e-12 5.24462e+06 -2.08887e-12 2.84717e+07)
(-1.09498e+08 -1.37389e+07 1.52318e-12 -5.24373e+06 6.18031e-13 -2.84698e+07)
(-3.35607e+07 5.07737e+06 -3.88452e-13 -4.75369e+06 1.65396e-12 -9.50658e+06)
(1.3114e+07 2.75838e+06 -1.67999e-12 2.08783e+06 1.24984e-12 3.77188e+06)
(1.81478e+07 -2.0554e+06 -1.32074e-12 140962 2.24777e-11 4.53781e+06)
(-6.51489e+07 -2.44423e+06 6.02902e-12 46243.7 -3.39131e-12 -1.61533e+07)
(-5.23824e+07 -741841 -1.48829e-12 -6.51387e+06 -8.37506e-13 -1.46134e+07)
(-3.66921e+06 4.19129e+06 1.46092e-13 1.20838e+06 -9.77542e-14 -610583)
(-3.29245e+07 6.40662e+06 -1.79187e-12 -3.8892e+06 -4.13114e-13 -9.13424e+06)
(1.23174e+07 -2.60811e+06 2.59163e-11 51746.6 -2.30545e-11 3.06904e+06)
(4.42975e+07 -131572 6.9149e-13 3.76662e+06 -1.32166e-12 1.19257e+07)
(4.60704e+06 -3.83804e+06 -6.86881e-12 153489 -2.09251e-11 1.18118e+06)
(1.99351e+06 1.17314e+07 -7.11333e-13 117425 5.44298e-13 523767)
(-9.69434e+06 -3.37892e+06 1.22947e-12 87860.3 -1.25166e-11 -2.38356e+06)
(4.0601e+07 -1.84005e+06 6.45127e-13 427400 3.93782e-12 1.018e+07)
(2.20519e+07 -1.7219e+06 -1.55442e-11 445906 -2.85163e-13 5.58217e+06)
(-9.26385e+07 -687067 -9.77522e-12 -30188.3 -1.29685e-11 -2.2993e+07)
(-4.35992e+07 -1.69094e+06 0 -378254 0 -1.09117e+07)
(7.44189e+07 -5.54781e+06 7.99489e-13 7.68564e+06 -1.73914e-12 2.03718e+07)
(-7.44154e+07 -5.54463e+06 -9.29972e-13 -7.68255e+06 -1.50597e-12 -2.03702e+07)