/*--------------------------------*- C++ -*----------------------------------*\
| =========                 |                                                 |
| \\      /  F ield         | OpenFOAM: The Open Source CFD Toolbox           |
|  \\    /   O peration     | Version:  v3.0+                                 |
|   \\  /    A nd           | Web:      www.OpenFOAM.com                      |
|    \\/     M anipulation  |                                                 |
\*---------------------------------------------------------------------------*/
FoamFile
{
    version     2.0;
    format      ascii;
    class       volScalarField;
    location    "9000";
    object      sigmazz;
}
// * * * * * * * * * * * * * * * * * * * * * * * * * * * * * * * * * * * * * //

dimensions      [1 -1 -2 0 0 0 0];

internalField   nonuniform List<scalar> 
27023
(
-8.80364e+06
8.80516e+06
6.25942e+06
-6.25872e+06
-8.61719e+06
8.61863e+06
2.8037e+07
-2.8035e+07
3.36216e+06
-3.36222e+06
2.14483e+07
-2.14458e+07
788033
-792889
-7.91485e+06
661261
543881
-1.68797e+07
1.68808e+07
1.26698e+07
-1.2668e+07
2.76782e+07
-2.76762e+07
1.53459e+07
-1.53444e+07
2.33386e+06
-1.07575e+07
996227
-1.07537e+07
9.15927e+06
4.67985e+06
1.26779e+07
-1.26768e+07
-1.23489e+07
-7.85507e+06
9.61142e+06
1.19872e+07
-1.1986e+07
3.16895e+06
-3.16945e+06
-6.43874e+06
6.43957e+06
-6.28177e+06
-8.31701e+06
8.31852e+06
1.66385e+07
-1.66374e+07
1.42117e+07
-1.421e+07
8.44268e+06
1.36794e+07
-1.36779e+07
-1.20396e+07
143573
-142848
1.35926e+07
5.73456e+06
1.00623e+07
-4.58313e+06
6.42076e+06
-6.42003e+06
8.36811e+06
1.35455e+06
1.45061e+06
-6.07466e+06
4.20668e+06
1.11414e+07
2.85952e+06
-1.0682e+07
-5.86672e+06
1.15665e+07
-1.15653e+07
2.01592e+07
-2.01577e+07
2.45997e+07
-2.45989e+07
292468
-291803
-2.93623e+07
2.93635e+07
-8.14743e+06
2.06848e+07
-2.06822e+07
1.97803e+07
-1.97788e+07
-2.60783e+07
2.6079e+07
-1.1097e+07
1.0835e+06
-4.83861e+06
4.70069e+06
9.36519e+06
-9.36362e+06
5.9641e+06
-2.3069e+06
-1.52707e+07
1.52704e+07
-8.16466e+06
-4.89134e+06
221790
-7.91527e+06
-4.98172e+06
5.14116e+06
2.33884e+07
-2.33866e+07
832777
2.55126e+07
-2.55109e+07
1.3479e+07
9.52085e+06
5.71307e+06
2.58382e+07
-2.58366e+07
1.50663e+07
-1.50654e+07
2.48195e+07
-2.48187e+07
5.6177e+06
-1.04178e+07
-7.9042e+06
6.01218e+06
628782
-2.33277e+07
2.3331e+07
2.92905e+07
-2.92887e+07
9.05924e+06
-9.05762e+06
2.38897e+07
-2.38878e+07
-4.49069e+06
-836868
819610
-4.46096e+06
5.17e+06
-2.61951e+07
2.61958e+07
2.86704e+06
1.74737e+07
-1.74725e+07
-2.67161e+07
2.67185e+07
-1.963e+06
2.72518e+07
-2.72497e+07
-4.39986e+06
-4.57322e+06
1.38523e+07
1.13436e+07
1.46218e+07
-1.46198e+07
1.61133e+07
-1.61116e+07
-7.45881e+06
-8.43201e+06
-8.25232e+06
8.31491e+06
7.98134e+06
1.72765e+07
-1.72754e+07
-1.51417e+07
-6.30618e+06
-1.31504e+07
1.01162e+06
-1.84027e+07
1.8405e+07
-2.44007e+07
2.44034e+07
-5.8538e+06
595073
1.51283e+06
-2.9605e+07
2.96061e+07
-5.31052e+06
5.41378e+06
-8.46334e+06
715435
-1.95391e+06
-5.43206e+06
3.11298e+06
-1.13876e+07
-2.53632e+07
2.53655e+07
-8.21962e+06
-1.51517e+07
-1.61573e+07
-1.45952e+07
1.45959e+07
-1.38081e+07
-4.91913e+06
-2.46448e+07
2.46473e+07
-7.83789e+06
1.16802e+06
2.98173e+07
-2.98157e+07
-1.70524e+07
-2.38416e+07
2.38444e+07
-9.85415e+06
8.41753e+06
-1.08889e+07
2.40888e+07
-2.4088e+07
-7.88355e+06
7.88494e+06
-6.71068e+06
-1.68381e+07
2.40694e+07
-2.40687e+07
34371.3
-34203.2
5.65706e+06
-7.1746e+06
-3.24272e+06
3.24305e+06
-9.14806e+06
755577
1.73309e+06
-2.58644e+07
2.58653e+07
-4.49691e+06
-2.30852e+07
2.30884e+07
-7.75972e+06
2.32384e+07
-2.32374e+07
2.04199e+07
-2.04183e+07
1.66158e+06
-1.66258e+06
1.10484e+06
2.38075e+07
-2.38064e+07
-1.55253e+07
2.277e+07
-2.27691e+07
2.49636e+07
9.41838e+06
-2.91373e+07
2.91392e+07
1.12797e+07
1.60472e+07
1.59036e+07
-1.27794e+07
6.20151e+06
205745
-9.78685e+06
1.3201e+07
-1.24783e+07
-2.7758e+07
2.77594e+07
-5.71625e+06
-4.90257e+06
-1.69061e+07
-1.71393e+07
2.05672e+07
-1.57049e+07
1.41391e+07
-1.41376e+07
4.91186e+06
1.12686e+06
1.45803e+07
2.33955e+07
-2.33946e+07
2.68622e+07
-2.68602e+07
1.9906e+06
-4.08619e+06
2.29153e+07
-2.29123e+07
1.02196e+07
-6.06873e+06
-1.08654e+07
2.60489e+06
1.46979e+06
-1.84111e+07
1.84134e+07
-1.39505e+07
1.39513e+07
1.14e+07
-1.41101e+07
2.78762e+06
-2.75815e+06
-217003
217788
-5.86395e+06
-7.3291e+06
3.46483e+06
1.27894e+07
557375
-5.66598e+06
-2.31746e+07
2.31758e+07
-2.56989e+07
2.56996e+07
-1.2466e+07
1.66506e+07
-2.40463e+07
2.40471e+07
960956
2.30326e+06
-2.39641e+07
2.39663e+07
-2.70173e+06
4.48206e+06
-4.48223e+06
9.37347e+06
8.44639e+06
-1.51424e+06
94055.6
123371
-122945
1.90186e+06
-1.90335e+06
1.13191e+07
-1.35374e+07
1.35386e+07
391094
8.21011e+06
1.20647e+06
-1.20872e+06
-1.17517e+07
-6.83147e+06
-4.83319e+06
8.47887e+06
-1.9609e+07
2.61405e+06
1.27724e+07
-1.52554e+07
-5.49072e+06
1.5229e+07
-2.21814e+07
2.43133e+06
9.59104e+06
-1.27856e+07
1.27875e+07
-4.79522e+06
3.0867e+06
2.27583e+07
-2.27568e+07
-1.62731e+07
1.63437e+07
49618.8
-49384.9
-9.89858e+06
9.24484e+06
-9.24314e+06
-6.90139e+06
3.36481e+06
-1.27649e+07
1.27586e+07
2.44524e+07
-2.44514e+07
22238.3
-21966.1
1.5426e+06
-2.87354e+07
2.87366e+07
-1.47983e+06
-1.18545e+07
-2.33655e+07
2.33663e+07
-2.66066e+07
2.66096e+07
4.6677e+06
-1.01091e+07
-1.82908e+06
-1.0559e+07
1.05608e+07
-2.81344e+07
2.81355e+07
-4.88313e+06
-1.57129e+07
-5.36951e+06
-1.57956e+07
-1.58584e+07
-1.07547e+07
-1.03626e+07
1.14524e+07
7.92357e+06
-1.1451e+07
2.84717e+07
-2.84698e+07
-9.50658e+06
3.77188e+06
4.53781e+06
-1.61533e+07
-1.46134e+07
-610583
-9.13424e+06
3.06904e+06
1.19257e+07
1.18118e+06
523767
-2.38356e+06
1.018e+07
5.58217e+06
-2.2993e+07
-1.09117e+07
2.03718e+07
-2.03702e+07
7.41297e+06
-7.79842e+06
3.12184e+06
-1.06148e+07
1.06166e+07
231627
5.59347e+06
-1.40287e+07
758413
1.40106e+07
245796
-244827
-4.8229e+06
1.33873e+07
1.10012e+07
1.6532e+07
8.78721e+06
-1.17539e+07
5.76178e+06
-1.4536e+07
3.38065e+06
1.97837e+06
1.24183e+06
-2.18588e+07
-2.34615e+07
2.34622e+07
-2.04553e+07
1.91835e+06
1.54554e+07
-9.14342e+06
2.26827e+07
-2.26819e+07
-1.77303e+07
1.77317e+07
1.62918e+07
1.00302e+06
4.31874e+06
-4.31925e+06
-2.05683e+07
2.05627e+07
1.52725e+07
-1.52713e+07
-72329.8
72644.4
-5.7397e+06
-3.60081e+06
-1.3107e+07
-1.26709e+06
-3.22985e+06
-2.46478e+07
2.46508e+07
-2.38844e+07
2.38875e+07
1.45378e+07
-1.45364e+07
1.58826e+07
-1.58807e+07
-3.61893e+06
208664
-3.29779e+06
-1.25862e+07
6.6229e+06
1.53751e+07
-5.27644e+06
-2.87668e+07
2.87688e+07
-1.38061e+07
7.03413e+06
3.57337e+06
1.84292e+07
1.59015e+07
-1.2202e+07
-4.22955e+06
2.35885e+07
-2.35872e+07
-6.2555e+06
6.32875e+06
5.76905e+06
-5.76853e+06
2.35532e+07
-2.35522e+07
617829
3.86532e+06
-4.29684e+06
4.4591e+06
2.22963e+07
2.23633e+06
-2.15558e+07
2.15583e+07
-9.02981e+06
1.22173e+07
746455
-1.3598e+07
1.35992e+07
1.06601e+07
-1.06584e+07
9.14993e+06
-1.92713e+07
-1.12011e+07
-9.11431e+06
9.11607e+06
-1.23407e+07
-2.23554e+06
1.2385e+07
-1.23835e+07
-1.07311e+07
2.75431e+07
-2.75394e+07
2.14798e+07
-2.14772e+07
-1.43936e+07
-2.10646e+07
2.10672e+07
-6.51532e+06
-9.23393e+06
2.14583e+07
-2.14574e+07
-1.65242e+07
-2.35677e+07
2.35685e+07
1.35779e+07
-2.28115e+07
2.28128e+07
-1.39717e+07
1.39734e+07
-3.49045e+06
1.83158e+07
-1.83138e+07
-1.11293e+07
-2.21754e+06
-2.78572e+06
-4.02984e+06
1.76759e+07
-1.76741e+07
-2.7427e+07
2.74281e+07
-1.00286e+07
-1.68083e+07
1.0754e+07
1.01745e+06
-1.28957e+07
-1.188e+07
5.70227e+06
-4.35692e+06
4.35649e+06
-1.95166e+07
-2.59105e+07
2.59112e+07
9.96064e+06
1.01201e+06
-2.318e+07
2.31817e+07
-1.18184e+07
-1.33003e+07
1.33002e+07
195204
1.33094e+06
-3.84427e+06
-1.02225e+07
-8.5626e+06
1.23203e+07
-1.23186e+07
-1.18789e+07
-250652
1.94637e+07
-1.94626e+07
4.3884e+06
-1.24052e+07
1.24068e+07
-3.56411e+06
1.20613e+07
-1.20595e+07
-2.32225e+07
2.32251e+07
-1.36385e+07
1.36404e+07
1.31369e+07
-1.00958e+07
1.00693e+07
1.30735e+07
-1.48383e+07
1.48403e+07
-9.19143e+06
4.87946e+06
-5.6235e+06
-1.37933e+07
995425
-2.51217e+06
-5.01612e+06
-2.18866e+07
1.44698e+07
-1.44677e+07
1.01e+07
1.46881e+07
-1.46865e+07
-9.51566e+06
-1.94346e+07
1.94361e+07
-3.57694e+06
-910698
-1.26237e+07
1.26248e+07
2.22968e+07
-2.22959e+07
1.69618e+07
7.12008e+06
1.15047e+07
1.97575e+07
-1.97562e+07
2.54043e+07
-2.54034e+07
7.94316e+06
-6.33179e+06
3.27123e+06
-3.33098e+06
9.97882e+06
-9.9766e+06
-1.03572e+07
-58356.1
-130504
131137
58643.5
-6.37756e+06
710236
-710942
-1.41005e+07
1.41023e+07
-8.59434e+06
8.59594e+06
1.19924e+07
-1.19906e+07
1.94439e+06
1.77891e+07
-1.77876e+07
-1.30996e+07
-6.21303e+06
-1.69749e+07
1.69764e+07
-7.86354e+06
1.89277e+07
-1.89264e+07
-1.01976e+07
-8.09027e+06
1.59735e+07
-1.3054e+07
1.30558e+07
1.56958e+07
1.15569e+06
-48599
-7.44323e+06
-2.33655e+07
2.33669e+07
-1.97177e+06
1.39418e+07
-2.87051e+07
2.87062e+07
-67197
67476.8
1.42889e+07
-1.42883e+07
1.23705e+07
-1.90646e+06
2.80026e+07
-2.80018e+07
-9.35847e+06
-1.40126e+07
2.00548e+06
5.33621e+06
1.17389e+07
9.42549e+06
5.05961e+06
-973186
-4.09468e+06
-1.52535e+07
1.05214e+07
1.44675e+07
-1.38563e+07
-7.1722e+06
-5.67103e+06
172525
-172216
1.93806e+07
-1.93791e+07
1.13008e+07
-976678
-6.17951e+06
-2.20489e+06
1.26672e+07
1.34882e+07
-1.41293e+07
-1.42225e+06
8.92525e+06
-9.64832e+06
-3.68914e+06
7.97773e+06
-7.97636e+06
1.26918e+07
1.77851e+07
-1.69182e+06
-8.86968e+06
2.35598e+07
-2.35586e+07
-2.43345e+07
2.43352e+07
132617
-132085
-1.15764e+06
-1.8407e+06
-7.22433e+06
-1.03793e+06
-1.3139e+07
1.31415e+07
7.76078e+06
3.40898e+06
-3.40996e+06
-2.59731e+07
2.5974e+07
-2.03354e+07
2.13404e+07
-2.1339e+07
-3.2091e+06
1.60451e+07
-1.00885e+07
-5.79805e+06
1.59286e+07
1.79638e+06
2.13218e+07
-2.13209e+07
8.51822e+06
-2.81827e+06
2.62145e+07
-2.62113e+07
-8.54408e+06
-2.28308e+07
-7.69489e+06
2.28323e+07
5.77037e+06
-5.74406e+06
1.15601e+07
8.66883e+06
-1.20734e+07
-477935
-1.21017e+07
-6.37672e+06
2.1193e+07
-4.21173e+06
8.40883e+06
-8.40639e+06
-2.4237e+07
2.42378e+07
6.12164e+06
1.80414e+06
-2.27175e+07
2.27188e+07
-1.33201e+07
1.08721e+07
8.83259e+06
4.48098e+06
9.8942e+06
9.58349e+06
-9.58176e+06
-3.54e+06
1.35767e+07
-1.35748e+07
-2.40196e+07
2.40205e+07
321651
-9.16987e+06
-1.93222e+06
-2.11809e+07
2.00246e+07
-2.00222e+07
8.97347e+06
1.1209e+06
-6.37512e+06
-1.43541e+07
-5.84614e+06
-9.75335e+06
-3.77923e+06
-9.04719e+06
1.02514e+07
2.44082e+07
-2.44074e+07
2.19335e+07
-2.19307e+07
1.60218e+07
-1.57768e+07
-3.67862e+06
1.42987e+06
2.38235e+07
-2.38227e+07
-1.66388e+07
-1.50724e+07
437592
-6.14879e+06
1.9715e+06
1.55257e+06
-1.55218e+06
-6.6986e+06
-2.6319e+06
2.71887e+07
-2.71864e+07
-815920
6.91777e+06
-1.10559e+06
2.91082e+07
-2.91072e+07
-9.5637e+06
9.56689e+06
-1.14619e+07
-7.40899e+06
7.41035e+06
-3.52849e+06
-1.64607e+06
806768
1.4886e+06
2.22937e+07
-2.22928e+07
-3.08977e+06
-1.33277e+07
1.33287e+07
2.48205e+07
-2.48198e+07
-9.49294e+06
9.47496e+06
1.60687e+07
-1.60668e+07
-2.63409e+07
2.63437e+07
3.07588e+06
-1.56992e+07
2.67042e+07
-2.67017e+07
-1.64135e+07
-1.38848e+06
1.52265e+07
-1.52247e+07
1.99404e+07
-1.99395e+07
-1.55986e+07
-2.34354e+07
2.34367e+07
-2.72624e+07
2.72631e+07
1.55974e+07
6.78272e+06
9.70831e+06
4.26112e+06
1.77155e+07
-1.77144e+07
-2.18195e+07
1.45492e+06
1.93818e+06
2.18203e+07
7.93438e+06
1.27012e+07
-9.73534e+06
1.34554e+07
-1.34542e+07
261839
3.74403e+06
-1.17531e+07
1.76272e+07
-1.76336e+07
6.78886e+06
-844545
212750
-212252
-9.8937e+06
-1.14108e+07
-8.17213e+06
2.68042e+07
-2.6802e+07
-1.63665e+07
-1.2177e+07
-1.5962e+07
7.45356e+06
1.57354e+07
-1.57333e+07
-1.55217e+07
6.71598e+06
1.6374e+07
-8.65249e+06
8.71696e+06
1.59637e+07
-1.43474e+07
1.52742e+07
-1.52723e+07
-2.17491e+07
2.17499e+07
1.4111e+07
-5.61293e+06
9.1545e+06
2.21111e+07
-2.21083e+07
-2.06454e+07
2.06466e+07
-11109.6
-7.37984e+06
1.78231e+07
-1.7822e+07
-1.01234e+07
2.97821e+06
-2.97871e+06
-8.08612e+06
-8.53699e+06
2.1948e+07
-1.31941e+07
-1.37421e+07
-1.65797e+07
9.16776e+06
-9.83818e+06
-3.1783e+06
2.50964e+07
-2.50956e+07
-1.47835e+06
465792
4.6222e+06
-9.7747e+06
-4.11806e+06
-2.44069e+06
-1.57637e+06
9.12927e+06
-7.17727e+06
778533
4.34067e+06
-9.75963e+06
7.979e+06
-2.00929e+07
4.91499e+06
-5.19092e+06
-4.50357e+06
4.50323e+06
9.57853e+06
-3.22135e+06
3.22004e+06
-7.12551e+06
-4.27357e+06
1.79787e+07
-1.79769e+07
9.08585e+06
2.44833e+06
-2.4489e+06
-8.2085e+06
-4.32956e+06
8.53459e+06
-1.17182e+07
1.37171e+07
8.66408e+06
-2.33145e+07
1.07236e+07
7.91656e+06
1.31697e+07
9.34422e+06
-9.34255e+06
3.29226e+06
-3.65444e+06
829558
-830375
1.44958e+07
-341636
9.73225e+06
7.22414e+06
-1.01433e+07
1.01445e+07
-1.61577e+07
-3.24441e+06
8.11243e+06
-438801
438757
-9.21811e+06
-6.28833e+06
-86106.3
1.09208e+06
-5.15139e+06
1.57927e+07
9.18994e+06
-1.18184e+07
-1.04538e+07
1.04538e+07
-1.85226e+07
-1.4505e+07
453084
1.9135e+06
-1.07719e+07
-1.89908e+07
1.89933e+07
829973
-7.73323e+06
-1.77895e+07
-4.67902e+06
4.67876e+06
-9.4646e+06
4.61831e+06
9.55444e+06
-2.31251e+07
2.31263e+07
-4.43199e+06
-1.33061e+07
1.33216e+07
1.78189e+07
-1.78161e+07
7.24046e+06
-9.92717e+06
320397
-319776
-8.93755e+06
890787
2.76587e+06
2.44278e+07
-2.44269e+07
-2.99108e+06
2.79208e+07
-2.79175e+07
1.394e+06
1.15511e+07
-4.26292e+06
-1.91356e+07
-8.31055e+06
-2.48076e+06
1.91378e+07
1.75865e+07
2.18823e+06
-7.73823e+06
-1.10543e+07
1.10552e+07
1.09901e+07
-1.13539e+07
1.5709e+07
8.86352e+06
1.06377e+07
-2.34271e+06
1.77095e+06
-3.70861e+06
-6.70916e+06
626466
2.28258e+06
-3.32892e+06
-2.72236e+06
81595.4
1.01311e+07
6.13496e+06
-1.32392e+07
-9.64664e+06
-4.82807e+06
-1.61297e+07
1.521e+07
-1.87127e+07
1.87147e+07
3.15997e+06
-1.36677e+06
-9.89585e+06
9.89551e+06
1.97129e+07
-1.97118e+07
-6.50782e+06
-2.60496e+06
1.30843e+07
-1.9325e+06
1.93257e+06
2.36977e+07
-2.36969e+07
1.65609e+06
469055
-8.40528e+06
-2.65938e+06
-2.06361e+06
-546414
-2.36294e+06
-431431
1.61243e+07
1.74195e+07
-1.7418e+07
1.03022e+07
-1.02585e+07
4.62979e+06
4.02316e+06
2.37914e+07
-2.37905e+07
2.36852e+06
4.59773e+06
1.03193e+07
-3.42647e+06
-1.48195e+07
-6.23606e+06
5.77867e+06
-4.88414e+06
1.76005e+07
-2.78095e+06
-5.53608e+06
2.09155e+07
1.80785e+07
-1.80769e+07
-1.8733e+07
3.55534e+06
1.11755e+07
-7.77638e+06
8.01766e+06
2.0936e+07
-2.09198e+07
-9.11951e+06
-2.14477e+07
-2.64401e+06
2.64336e+06
3.56348e+06
-3.56424e+06
6.18203e+06
8.4717e+06
-7.83057e+06
2.45786e+07
-2.4342e+07
2.43453e+07
4.25757e+06
-4.25782e+06
-3.51735e+06
2.51288e+07
-2.51279e+07
-1.01895e+07
9.97049e+06
-2.96122e+06
57973.3
-57695.3
-9.26576e+06
-4.53227e+06
1.99672e+07
-5.43366e+06
-2.47212e+07
2.47236e+07
9.95266e+06
1.89722e+07
-1.88368e+07
7.12753e+06
4.78343e+06
-679175
1.06673e+07
-1.06626e+07
-2.36187e+07
2.36196e+07
-4.67719e+06
-1.24051e+07
1.24087e+07
-2.28588e+07
2.28599e+07
5.40284e+06
-1.19028e+07
1.01324e+07
-3.88501e+06
9.9758e+06
-9.97363e+06
-7.87673e+06
3.04427e+06
1.71528e+07
-167012
-1.08344e+07
1.08361e+07
-1.01756e+07
5.16708e+06
2.03877e+07
2.12553e+07
-2.12542e+07
1.51987e+07
-2.35449e+06
-7.79871e+06
7.64243e+06
2.67262e+07
-2.67231e+07
-1.08335e+07
1.86608e+07
-1.86594e+07
1.0611e+07
-1.70002e+07
-1.35272e+07
1.35239e+07
1.03518e+07
6.39875e+06
501233
-875042
-1.26464e+07
4.5161e+06
-3.72358e+06
123336
-122669
1.70215e+07
3.57525e+06
-3.5757e+06
2.25241e+07
-2.25215e+07
-2503.65
2.68171e+07
-2.68142e+07
-1.98679e+07
1.98702e+07
-2.67729e+07
2.67736e+07
6.92303e+06
2.47463e+07
-2.47455e+07
1.87476e+06
-8.14846e+06
-920360
-8.02302e+06
5.30489e+06
-7.28186e+06
1.91737e+07
-1.91726e+07
-6.08245e+06
6.08357e+06
5.31841e+06
-731319
428249
1.56811e+07
2.63203e+06
1.14221e+07
-1.69449e+07
2.44678e+06
-3.36653e+06
2.22912e+06
-2.2302e+06
1.57736e+07
-1.21776e+07
1.55182e+07
-1.01205e+07
-5.63557e+06
1.34962e+06
1.1847e+07
-1.18441e+07
1.1526e+07
5.64654e+06
-9.36343e+06
9.39038e+06
-3.94937e+06
-1.2017e+07
-2.3944e+07
-1.4447e+07
1.44485e+07
1.68787e+07
-8.49854e+06
1.09378e+07
-1.18648e+07
1.42917e+07
2.3946e+07
1.1863e+07
1.32695e+07
1.10063e+07
7.19222e+06
1.07721e+07
-3.75759e+06
9.05077e+06
6.62501e+06
5.01543e+06
-1.57802e+06
-5.38371e+06
9.3123e+06
-1.0936e+07
-6.05167e+06
1.95048e+07
-1.95039e+07
-1.39457e+07
4.21017e+06
-4.06336e+06
-4.76548e+06
1.67038e+07
-1.80564e+07
2.1777e+06
-2.00125e+07
-6.88391e+06
3.08122e+06
1.80585e+07
8.94623e+06
-1.32031e+07
5.75188e+06
-2.45693e+06
1.52091e+07
-1.49802e+07
1.02373e+07
220920
-220889
-1.68894e+07
-2.03965e+07
2.03991e+07
937511
2.31346e+07
-2.31323e+07
2.72367e+06
9.06251e+06
-9.06083e+06
-1.09417e+07
124562
2.40961e+06
2.58347e+07
-2.5834e+07
-1.1307e+06
-1.98084e+07
2.14497e+07
-7.99675e+06
2.25878e+07
-2.25854e+07
-1.25101e+07
3.59019e+06
2.32071e+06
-1.84189e+07
1.04332e+07
-1.04354e+07
151549
-150903
1.50016e+06
6.03241e+06
1.58223e+07
-1.58203e+07
2.33806e+07
-2.3379e+07
-1.81225e+07
4.10076e+06
8.54333e+06
2.19456e+07
-2.19437e+07
937290
-279007
279613
-1.89679e+07
1.89643e+07
-2.32657e+07
2.3267e+07
-2.01144e+07
2.37518e+07
-2.37509e+07
1.72101e+07
-1.72078e+07
1.10623e+07
-5.24135e+06
-2.2247e+07
2.15036e+07
1.01443e+07
783001
-2.15026e+07
4.46168e+06
1.26353e+07
1.18949e+07
1.32071e+07
7.63516e+06
2.25996e+07
-2.25988e+07
-6.50635e+06
-2.04206e+07
2.04229e+07
2.56777e+07
-2.56763e+07
-8.82941e+06
-1.78988e+07
1.79004e+07
1.03257e+07
-1.03254e+07
-9.86374e+06
9.97599e+06
-9.97151e+06
9.64316e+06
-2.43836e+07
2.43844e+07
6.15941e+06
-4.28371e+06
-9.88272e+06
-1.77321e+06
9.61487e+06
-9.61442e+06
3.76492e+06
-9.2725e+06
3.81258e+06
-7.46955e+06
-75256.7
75708.4
-2.75762e+07
2.75775e+07
-3.75243e+06
6.88845e+06
2.76409e+07
-2.76378e+07
-1.02879e+07
9.99882e+06
4.92754e+06
-1.62669e+07
1.6305e+07
1.10118e+07
-710751
-1.66785e+07
2.18954e+06
-2.71572e+07
2.71598e+07
-1.11212e+07
1.11223e+07
-1.58632e+07
1.58644e+07
804214
-804675
4.32457e+06
-1.51212e+07
-3.05118e+06
-8.45796e+06
-9.99654e+06
-2.05276e+06
1.35627e+06
-1.35737e+06
-4.3879e+06
-554294
8.85396e+06
-1.10439e+07
1.10453e+07
8.38106e+06
-447523
-1.16612e+07
1.82912e+07
-1.82898e+07
-1.17824e+07
1.57568e+06
-1.74296e+07
1.74307e+07
-7.95835e+06
-1.87826e+07
1.87842e+07
-1.41195e+07
-8.37012e+06
-1.10978e+07
-5.13262e+06
5.47281e+06
-5.52056e+06
2.17823e+07
5.28842e+06
1.51821e+07
-1.51802e+07
563492
1.33275e+07
-1.33257e+07
2.01834e+06
2.01702e+07
-2.01689e+07
-1.00339e+07
1.00356e+07
-1.07086e+06
-6.04488e+06
6.04639e+06
-1.89718e+07
1.89728e+07
1.16051e+07
-7.83369e+06
-1.14895e+07
1.35739e+07
-1.3572e+07
1.14507e+07
-3.92818e+06
-1.14936e+07
1.14914e+07
2.5736e+06
2.47354e+07
-2.47317e+07
3.57174e+06
1.47294e+07
2.37445e+07
-2.37437e+07
-321923
323081
-3.1414e+06
2.27243e+07
-2.27228e+07
2.66456e+06
1.05204e+07
-1.05206e+07
1.96637e+06
-1.96719e+06
-220220
1.06065e+07
2.42611e+07
-2.42575e+07
-2.85585e+07
2.856e+07
9.3534e+06
1.08167e+06
-4.19493e+06
4.19435e+06
6.56636e+06
44353.2
-44126.6
-2.535e+07
2.53507e+07
-7.71758e+06
5.3789e+06
-5.37875e+06
3.19947e+06
-2.3248e+07
2.32494e+07
-6.45465e+06
-3.20695e+06
-2.43237e+07
2.43247e+07
-2.39978e+07
2.40009e+07
-7.1476e+06
690997
-1.59393e+07
8.22359e+06
-4.96349e+06
-2.85874e+06
9.05179e+06
1.02515e+07
-1.03718e+07
1.03257e+07
-2.00566e+07
2.00577e+07
2.40139e+07
-2.4013e+07
1.91405e+07
-1.00528e+07
-2.24442e+06
886637
-2.2442e+07
-9.83687e+06
1.55052e+07
1.4456e+07
-1.56477e+07
1.378e+07
-1.37788e+07
-1.18235e+07
1.18253e+07
2.21523e+06
-2.73669e+06
-1.0605e+07
412654
-1.03846e+06
8.349e+06
-9.32952e+06
-3.96373e+06
1.13002e+07
-1.12993e+07
310120
-1.28626e+07
1.2864e+07
-5.39088e+06
-2.66572e+07
2.6661e+07
-2.47891e+07
2.47914e+07
-4.07249e+06
-1.9049e+07
1.90505e+07
2.97161e+07
-2.97149e+07
2.11258e+07
-2.11242e+07
1.41106e+07
-1.41086e+07
2.11779e+07
5.66232e+06
6.98859e+06
-3.23382e+06
-1.15828e+07
1.15846e+07
-1.93477e+07
1.93492e+07
-6.08171e+06
5.84689e+06
-5.69008e+06
2.75235e+07
-2.75226e+07
1.05803e+07
-1.3955e+07
1.39139e+07
-8.48524e+06
-1.01243e+07
1.46893e+07
-4.56064e+06
1.04131e+07
-1.04034e+07
1.24735e+06
-1.06045e+07
9.89518e+06
981848
-982532
1.79851e+07
3.8675e+06
4.15179e+06
-5.54106e+06
-1.27707e+07
-2.06958e+07
4.96005e+06
6.70165e+06
-6.70073e+06
2.13872e+07
-2.13861e+07
1.37039e+07
-1.37022e+07
-5.8147e+06
5.01768e+06
4.7588e+06
3.36211e+06
-5.90714e+06
-1.75222e+07
6.43615e+06
7.11515e+06
3.359e+06
-2.03719e+07
2.03648e+07
2.05155e+06
-2.05312e+06
5.64945e+06
5.04198e+06
-1.39117e+07
1.39131e+07
1.46467e+07
-1.46446e+07
2.54672e+07
-2.54664e+07
-7.12295e+06
-3.34987e+06
3.33584e+06
1.81695e+06
-1.86017e+07
1.88272e+07
-2.29189e+07
2.29198e+07
1.03443e+07
-395497
1.90775e+07
-1.90752e+07
-1.10868e+07
1.09891e+07
8.2946e+06
-3.31612e+06
-1.06146e+07
-5.1575e+06
9.92614e+06
-9.92801e+06
1.65531e+07
-1.65513e+07
-1.54041e+07
2.31839e+07
-2.31829e+07
2.16155e+07
-2.16128e+07
2.08174e+07
1.03727e+07
-1.03733e+07
-8.29278e+06
8.29412e+06
2.74804e+06
-6.09899e+06
-1.39335e+07
-1.04545e+07
1.04557e+07
-3.9477e+06
3.94704e+06
580275
1.38144e+07
-1.73082e+07
1.73096e+07
1.23879e+07
5.34987e+06
-2.83306e+07
2.83323e+07
5.21172e+06
1.45759e+07
-1.8471e+07
5.91954e+06
-1.80823e+07
-2.05522e+07
2.05537e+07
7.43693e+06
2.17303e+07
-2.17288e+07
4.10809e+06
7.12534e+06
1.8082e+07
-1.61757e+07
1.61772e+07
-7.95074e+06
8.81566e+06
-82272.7
2.38536e+07
-2.38526e+07
2.31218e+06
-3.12021e+06
1.46938e+07
-1.46924e+07
8.50867e+06
-9.32761e+06
9.26751e+06
3.1396e+06
1.20135e+06
-1.14747e+06
1.35816e+07
-1.35804e+07
3.0862e+06
-4.28522e+06
-8.85638e+06
1.63791e+07
-1.19712e+06
-5.04671e+06
-1.64843e+06
581833
9.36579e+06
1.99251e+07
-7.29251e+06
2.18253e+07
-2.18223e+07
-9.96434e+06
1.35106e+06
-1.35217e+06
2.22477e+07
-2.22453e+07
7.17046e+06
-2.36996e+07
2.37023e+07
9.03195e+06
1.97821e+07
-2.73914e+06
-603695
603157
1.59228e+06
-1.85277e+07
1.85289e+07
-1.23877e+07
1.22289e+06
1.30326e+07
-224646
-1.91109e+07
8.89742e+06
-6.27111e+06
6.27223e+06
1.4426e+07
-1.44241e+07
-9.99992e+06
4.59119e+06
9.32163e+06
-2.15123e+07
2.15141e+07
-2.2692e+06
2.1512e+06
-2.15166e+06
-158875
-2.39782e+07
2.39791e+07
-3.48524e+06
6.6517e+06
-8.14672e+06
6.57158e+06
-6.61387e+06
1.1836e+07
-1.1835e+07
-8.81613e+06
8.75961e+06
-1.14411e+07
1.15547e+07
1.40512e+07
-9.8814e+06
-1.45403e+07
881814
-1.78737e+07
-4.14615e+06
1.00534e+07
-1.00514e+07
-204362
6.75013e+06
-6.74932e+06
1.95483e+07
-1.95478e+07
1.61817e+07
2.18858e+07
1.54286e+06
2.6494e+06
1.07668e+07
785296
-1.82159e+07
-1.75725e+07
1.20897e+07
7.75367e+06
-1.00378e+07
-3.44027e+06
9.96033e+06
-1.31823e+07
1.31835e+07
1.44364e+07
-1.44364e+07
1.64079e+07
-1.64197e+07
7.73525e+06
-1.29025e+07
1.29035e+07
1.19216e+06
-1.33147e+07
1.33924e+07
-2.14984e+07
2.14998e+07
5.60034e+06
1.36755e+07
-3.00434e+06
-9.95468e+06
-1.79478e+07
-68820.1
69263.2
8.79002e+06
-4.72508e+06
5.61996e+06
-5.60338e+06
2.79513e+06
1.06852e+07
-1.06832e+07
-1.83779e+07
1.83794e+07
9.76613e+06
-1.89978e+07
2.46823e+07
-2.46815e+07
-1.65684e+07
1.65699e+07
7.83306e+06
6.25787e+06
6.32309e+06
8.46755e+06
1.41124e+07
-1.40554e+07
5.81336e+06
-1.2486e+07
1.24615e+07
-1.3888e+07
1.389e+07
1.32912e+07
9.4701e+06
-9.46844e+06
1.00134e+07
-1.00129e+07
1.334e+07
-7.3425e+06
7.27955e+06
-4.95689e+06
4.29169e+06
436126
-5.58584e+06
-9.90158e+06
2.85166e+06
-2.85252e+06
-8.47702e+06
9.9038e+06
-1.62006e+07
1.62019e+07
6.45097e+06
7.92063e+06
8.4593e+06
9.92948e+06
1.20508e+07
-1.2049e+07
1.05621e+07
-2.52596e+07
2.52624e+07
1.12571e+07
1.00421e+07
-5.67128e+06
-1.56425e+07
1.56887e+07
-1.56872e+07
5.28621e+06
1.17665e+07
9.58826e+06
-2.19342e+07
2.1935e+07
1.42284e+07
-1.42248e+07
8.55601e+06
-9.0781e+06
-6.52512e+06
-1.99979e+06
6.95133e+06
5.88595e+06
7.77821e+06
-7.26348e+06
908504
-1.00721e+06
-1.84654e+07
1.8467e+07
1.98997e+06
2.51406e+07
-1.96227e+07
1.96241e+07
1.61373e+07
-1.31364e+07
9.58874e+06
-8.46808e+06
1.31445e+07
-2.31808e+07
2.31815e+07
3.3491e+06
1.32811e+07
-1.93169e+07
1.93187e+07
1.11411e+07
-8.61681e+06
1.37947e+07
1773.06
-1557.29
8.98127e+06
2.27706e+07
-2.27682e+07
8.23525e+06
-555282
7.07482e+06
1.65804e+07
-1.3395e+07
-690079
-2.5138e+07
381839
-381555
-5.3459e+06
1.16836e+07
4.09042e+06
291500
-291156
1.22865e+07
-1.71383e+07
1.71397e+07
2.74925e+07
-2.74901e+07
-1.34139e+07
1.34158e+07
9.70792e+06
995679
-1.00927e+06
-9.80238e+06
-4.77941e+06
7.61134e+06
576590
-9.49809e+06
-9.30784e+06
1.85027e+07
-1.85005e+07
-1.86496e+07
1.86508e+07
-2.39366e+06
-1.01983e+07
-2.23014e+07
6.41145e+06
-1.12499e+07
-358517
1.05019e+07
1.10021e+07
2.79304e+07
-2.79269e+07
-1.76705e+07
-6.38368e+06
-1.3943e+07
1.39446e+07
-3.00944e+06
-882229
250366
7.83337e+06
-23666.5
23410.8
-4.18733e+06
2.74028e+06
-2.74049e+06
-235927
-2.47116e+07
2.47139e+07
-3.97538e+06
-1.12328e+07
1.31257e+07
1.1232e+07
-1.82662e+07
1.82617e+07
4.42584e+06
-5.67526e+06
-9.40568e+06
1.2329e+06
-2.44633e+07
2.44656e+07
1.20116e+07
-1.20103e+07
-2.28735e+07
3.79429e+06
-2.85393e+07
2.85413e+07
9.93481e+06
-9.93302e+06
-9.73832e+06
1.80293e+07
-2.63067e+06
-1.6388e+07
1.63893e+07
2.48659e+07
-2.48652e+07
-283830
-1.4914e+06
1.16255e+07
2.15556e+07
9.73835e+06
5.87724e+06
-1.83693e+07
1.83708e+07
-4.33678e+06
6.91098e+06
-1.15792e+07
-1.60549e+07
-4.17557e+06
-1.09233e+07
1.60103e+07
-1.60091e+07
2.00595e+07
-2.45603e+07
2.45612e+07
133097
-132599
1.18441e+07
1.07485e+07
2.50982e+07
-1.28892e+07
-1.36409e+07
1.36419e+07
-1.37957e+07
9.97611e+06
-1.87805e+07
9.71043e+06
-4.40745e+06
-2.64974e+07
2.64984e+07
-1.70559e+07
-1.75304e+07
1.75325e+07
-2.87918e+07
2.8794e+07
-2.50948e+07
71189.7
-70831.7
8.12481e+06
-2.70232e+07
2.70241e+07
-1.52564e+07
1.52576e+07
-3.74822e+06
3.74743e+06
1.32142e+07
4.80077e+06
2.00973e+07
-2.00962e+07
-3.73505e+06
-5.52379e+06
1.80269e+07
-1.80254e+07
-1.05152e+07
-7.46536e+06
2.25258e+07
-2.25242e+07
-9.29321e+06
4.08528e+06
-4.08549e+06
1.4144e+07
52457.6
-7.8017e+06
2.8349e+07
-2.83455e+07
1.90786e+07
1.37464e+07
-1.37449e+07
-1.15035e+07
1.15056e+07
1.99842e+06
-1.99929e+06
5.06547e+06
1.67691e+07
-2.47656e+06
2.47593e+06
-1.60515e+07
1.60527e+07
-5.67237e+06
1.56166e+06
7.09402e+06
1.3796e+07
3.94551e+06
3.28982e+06
2.16614e+07
-2.16587e+07
2.04946e+07
-2.04932e+07
-2.98887e+07
2.98904e+07
-7.94326e+06
-9.41877e+06
9.27859e+06
1.95469e+07
-1.95457e+07
-8.44195e+06
-238117
239047
-3.85834e+06
-1.44391e+07
1.01925e+07
-1.01904e+07
-2.2222e+07
5.57641e+06
-1.15233e+07
-2.44061e+07
2.44068e+07
-7.66731e+06
-1.08039e+07
1.08069e+07
546092
7.29594e+06
-707786
-1.37705e+07
-1.94719e+07
1.94742e+07
-2.03642e+06
-9.11118e+06
2.42784e+07
-1.45657e+07
1.45676e+07
4.74594e+06
2.04504e+07
-2.0449e+07
206516
-6.66115e+06
-6.05239e+06
1.58861e+06
-4.791e+06
1.76352e+06
-1.92736e+07
1.92746e+07
1.84483e+07
-1.84472e+07
-3.07486e+06
-2.45161e+07
2.45173e+07
-2.19023e+06
3.0486e+06
2.18775e+06
-8.29077e+06
8.29166e+06
9.14752e+06
-7.62852e+06
4.24937e+06
1.63741e+06
-8.80352e+06
6.82286e+06
1.8353e+07
-1.83529e+07
-4.48493e+06
-9.57396e+06
1.51076e+07
-6.64514e+06
-2.10353e+07
-1.6875e+07
-6.10739e+06
4.19994e+06
1.85739e+06
3.32596e+06
-2.64235e+07
2.64247e+07
-2.51135e+07
2.51144e+07
615917
1.12155e+06
-1.12126e+06
-1.06858e+07
-5.1297e+06
8.81205e+06
-1.10672e+06
2.40518e+06
-1.8799e+07
-1.97321e+06
1.02179e+06
-2.57634e+07
2.57643e+07
-5.95931e+06
1.68079e+06
2.0188e+07
1.04265e+07
-1.04247e+07
-1.72236e+07
2.09728e+07
5.11071e+06
1.47273e+07
6.18251e+06
-1.34731e+07
1.60221e+06
-1.53514e+06
-5.63536e+06
140305
-2.63988e+07
2.63996e+07
1.25832e+06
-1.26582e+06
6.98424e+06
1.34706e+06
1.4967e+07
-1.49616e+07
6.63165e+06
-4.6802e+06
6.51647e+06
-1.66039e+07
1.66053e+07
2.0169e+07
-1.46315e+06
1.37182e+07
-9.14228e+06
397681
-1.61857e+07
638480
-9.68133e+06
-141404
853292
6.63734e+06
698554
6.72143e+06
-1.19006e+07
2.53491e+07
-2.53483e+07
-1.19121e+07
1.19129e+07
7.129e+06
-7.13722e+06
2.74208e+06
-1.40444e+07
1.12771e+07
-1.05084e+07
1.05103e+07
-1.9864e+07
7.90254e+06
-657259
1.13065e+07
-1.11593e+07
-7.40534e+06
-3.47879e+06
-889815
894161
-1.0913e+07
1.09143e+07
-2.84263e+06
2.84121e+06
1.49879e+07
-1.53797e+07
6.49239e+06
-3.94341e+06
-7.96689e+06
7.34247e+06
171383
-824576
-1.26354e+06
-7.03144e+06
1.53092e+07
-651878
3.27732e+06
1.41196e+07
1.82023e+07
-1.82035e+07
1.13691e+07
-779642
-3.21718e+06
1.982e+07
-1.9819e+07
1.91226e+07
-1.91213e+07
-9.93852e+06
-3.60054e+06
-6.77934e+06
-8.94412e+06
9.00012e+06
8.47438e+06
-7.40911e+06
-2.26076e+06
-7.34483e+06
-4.64233e+06
4.52941e+06
-2.47261e+06
-2.33721e+06
644141
-642391
3.1992e+06
-1.33013e+07
1.53316e+07
-3.62973e+06
-1.37255e+07
1.37271e+07
-2.25457e+07
1.45971e+07
-1.45958e+07
185796
-185465
8.43751e+06
2.03107e+07
-2.03094e+07
10157.8
-9.75935e+06
183576
253857
-5.56261e+06
5.55575e+06
-1.77989e+07
1.78002e+07
-5.0974e+06
1.54205e+06
1.33236e+07
2.39723e+07
-2.39694e+07
2.099e+07
-2.09883e+07
1.12142e+06
-1.38019e+07
1.38026e+07
9.94007e+06
7.24142e+06
-2.20109e+07
2.20119e+07
2.67895e+06
-7.61768e+06
-8.73629e+06
3.3231e+06
-11999.8
11611.3
-1.59942e+07
1.59955e+07
-1.32265e+07
1.32278e+07
2.33977e+06
-2.34086e+06
-6.24599e+06
1.11581e+06
-1.11654e+06
-1.336e+07
-1.84478e+07
8.50859e+06
1.4855e+07
-1.48536e+07
1.76539e+06
-1.54943e+07
1.72008e+06
-1.54848e+06
-1.69417e+07
-1.46749e+07
1.46769e+07
-7.7238e+06
-4.41798e+06
-1.68658e+07
-2.58603e+07
2.58634e+07
1.53342e+07
1.79558e+07
-1.79563e+07
1.34094e+07
-1.34078e+07
-18416.3
18190.9
8.78653e+06
1.0018e+07
6.05792e+06
2.40116e+07
1.01411e+07
1.0331e+07
-8.78325e+06
-8.50108e+06
2.418e+07
-2.4179e+07
1.19552e+06
2.13881e+07
-2.13872e+07
-9.46288e+06
-1.23037e+07
1.23044e+07
-2.06898e+07
9.2019e+06
-2.23402e+07
2.23418e+07
-1.88154e+07
9.85825e+06
1.50934e+07
7.26561e+06
7.47987e+06
-1.79453e+07
1.79467e+07
7.74795e+06
-7.74294e+06
-4.42189e+06
-692540
2.02656e+07
7.6468e+06
-2.04027e+06
-1.08286e+07
1.08532e+07
-4.04708e+06
-2.73473e+07
2.73482e+07
-2.16404e+07
2.16419e+07
1.80283e+06
-4.42848e+06
4.43155e+06
2.3817e+07
-1.6609e+07
1.15381e+07
-2.05354e+06
-2.15369e+07
8.28276e+06
2.27595e+07
378819
2.10002e+06
-595489
-8.29836e+06
-1.24344e+07
1.47759e+07
-1.47744e+07
1.96593e+06
-2.8746e+07
2.87483e+07
1.48549e+07
-1.48534e+07
-1.07687e+07
-6.49155e+06
-3.85985e+06
-2.45549e+06
1.39712e+07
2.283e+07
-2.28291e+07
1.46981e+07
-5.13007e+06
3.72507e+06
-3.36157e+06
271737
-271263
-2.32163e+07
-302925
1.82299e+07
-1.82283e+07
-8.27841e+06
8.2799e+06