/*--------------------------------*- C++ -*----------------------------------*\
| =========                 |                                                 |
| \\      /  F ield         | OpenFOAM: The Open Source CFD Toolbox           |
|  \\    /   O peration     | Version:  v3.0+                                 |
|   \\  /    A nd           | Web:      www.OpenFOAM.com                      |
|    \\/     M anipulation  |                                                 |
\*---------------------------------------------------------------------------*/
FoamFile
{
    version     2.0;
    format      ascii;
    class       volScalarField;
    location    "9000";
    object      sigmayz;
}
// * * * * * * * * * * * * * * * * * * * * * * * * * * * * * * * * * * * * * //

dimensions      [1 -1 -2 0 0 0 0];

internalField   nonuniform List<scalar> 
27023
(
-2.14058e-14
-1.80207e-13
-2.08877e-13
1.61576e-13
0
1.64259e-13
-4.32192e-12
-1.04271e-12
7.11512e-14
-1.37961e-13
1.21425e-12
-5.55798e-13
-1.41441e-13
-3.80364e-14
3.4066e-12
-7.64636e-13
-3.88594e-13
0
-1.9234e-12
0
1.03354e-12
-1.07146e-12
-3.19663e-12
-1.48085e-12
-2.44902e-13
-5.52258e-13
2.86349e-13
2.18615e-11
7.30579e-13
6.49088e-12
-5.3376e-12
-2.11348e-12
4.19276e-12
2.29619e-12
4.17272e-12
2.08395e-12
-1.4832e-12
2.96634e-12
-1.81843e-13
-1.30333e-13
-6.82395e-14
2.66822e-14
-5.53508e-12
-1.41757e-13
-1.41619e-13
-1.47432e-12
-2.24593e-12
1.85017e-12
1.85024e-12
1.2305e-12
-1.10573e-12
-1.87981e-13
1.09876e-12
2.46023e-14
8.54231e-14
3.61389e-12
7.83211e-12
3.37214e-12
2.02701e-12
3.68309e-13
-2.37972e-13
7.17491e-12
-1.76938e-12
2.29003e-11
-1.75854e-11
1.05399e-12
-5.63474e-12
1.97852e-13
-9.35894e-13
-2.47908e-12
0
-5.13217e-12
2.79931e-12
3.73036e-12
7.38391e-12
3.60887e-12
6.95988e-14
6.23026e-14
7.04062e-12
4.66679e-12
1.88621e-12
-2.89591e-12
-2.27365e-12
1.17178e-12
3.92671e-12
-1.72698e-12
1.46344e-12
-5.76629e-13
-4.30943e-13
2.77828e-12
4.62176e-11
1.35072e-13
-1.61021e-13
7.05323e-13
-1.13144e-13
-3.10152e-12
6.2802e-13
7.40521e-13
-3.90071e-12
7.08953e-12
-7.54978e-12
1.91126e-11
3.53536e-11
1.53274e-12
1.16045e-12
-2.55593e-13
2.13368e-14
-1.23174e-12
-1.68835e-12
-8.89917e-12
-4.38632e-12
1.6474e-12
3.91161e-13
5.24277e-12
2.22356e-12
2.88977e-12
4.56976e-12
1.90336e-13
5.12798e-14
-7.49388e-13
-5.71149e-13
-1.48325e-12
-7.66742e-13
-2.36192e-12
3.22748e-12
6.43482e-13
2.44492e-13
2.72853e-13
5.09404e-13
2.89736e-12
9.18268e-12
6.25511e-14
3.4003e-14
-1.49627e-13
-4.37129e-12
-1.10071e-11
2.50518e-12
1.73204e-12
-5.77573e-12
-3.68331e-12
-1.4265e-12
3.59605e-12
-2.32696e-12
2.49617e-12
-5.83415e-13
4.41625e-12
-1.34121e-12
3.66577e-12
3.21105e-12
4.25969e-13
-1.52549e-13
-1.21949e-12
-4.05151e-13
-5.41113e-12
-6.24999e-13
9.74092e-13
8.63083e-12
-5.33396e-12
-9.23169e-12
-2.52917e-12
4.1208e-12
-1.47962e-12
3.56409e-12
-1.14356e-11
-4.78414e-13
4.37586e-13
-8.16798e-13
-2.29125e-12
-1.69994e-12
3.14238e-12
4.86714e-11
6.12924e-12
4.58531e-13
4.20048e-11
0
3.44617e-12
-9.76392e-12
-1.74166e-12
7.02923e-12
1.5558e-13
3.31721e-12
-3.54371e-12
2.76979e-12
-6.82756e-12
2.31782e-12
-4.12003e-14
2.28386e-12
3.04916e-12
1.36433e-11
-7.22516e-12
-3.50214e-12
-1.00382e-12
2.57221e-12
-1.18261e-11
-1.25071e-12
2.94351e-12
8.04814e-14
9.38815e-13
-7.47421e-13
2.90247e-13
3.99607e-12
1.77203e-13
-7.55197e-13
7.07292e-12
0
2.33791e-13
1.25379e-12
-3.49629e-12
-6.39215e-12
5.29084e-12
0
1.43262e-15
5.59095e-14
-7.22686e-13
2.18367e-14
8.56711e-14
-2.13339e-12
-4.01961e-13
3.20731e-12
1.88454e-12
-5.61023e-12
-5.59935e-12
1.21949e-12
-8.28805e-14
-1.43215e-11
-1.81277e-12
4.02577e-12
-2.69382e-12
-3.16002e-12
-1.43521e-13
1.3448e-13
-1.61964e-11
-5.50357e-12
-9.82936e-13
-2.62718e-12
4.13022e-12
3.54403e-12
-1.2053e-11
-4.73746e-12
5.06399e-12
5.0643e-12
-1.36892e-12
2.19541e-12
1.01339e-11
1.74666e-12
-4.79806e-13
-1.21744e-11
-6.54564e-13
9.47453e-12
-3.33117e-12
-2.40545e-12
-5.04963e-12
3.78118e-13
3.03594e-13
1.13486e-12
-2.98574e-12
0
-4.52407e-12
-3.46256e-13
-2.24919e-12
-3.67919e-13
1.0151e-12
6.51681e-12
-4.09277e-13
-4.89303e-12
6.71767e-12
-1.54599e-12
3.84909e-12
-7.45397e-13
1.71779e-13
-2.09744e-13
-1.1759e-12
3.33624e-12
3.56435e-12
1.60697e-12
-1.0365e-11
-1.5158e-13
1.17385e-13
-7.1614e-12
-9.05104e-12
-3.89569e-12
4.91212e-12
-2.72348e-11
-7.49671e-13
-2.28207e-14
2.22447e-14
-4.69839e-12
1.07557e-11
1.38058e-13
-2.42758e-13
-9.13099e-12
-5.11273e-13
-4.20194e-12
-1.49243e-12
0
3.34603e-12
6.84976e-12
1.24164e-12
-3.42629e-13
0
4.54342e-14
-1.56482e-15
3.13174e-13
0
2.26642e-14
-2.61347e-14
1.64823e-13
2.29746e-12
-6.95827e-13
-1.09462e-11
8.60498e-12
-6.57055e-14
-6.55311e-14
1.76386e-13
2.00577e-13
-2.33708e-12
-6.77893e-12
9.02014e-14
-4.54566e-12
-5.01464e-12
-2.91141e-14
-7.53986e-14
-2.08298e-12
7.52977e-13
-4.4196e-13
1.46496e-12
-7.41389e-13
-7.59852e-12
3.85373e-12
8.34875e-13
5.03342e-13
2.00229e-12
-1.81403e-13
1.8383e-13
-3.21951e-12
-1.75204e-13
5.36902e-13
2.82978e-12
8.57846e-14
7.28992e-13
-8.13436e-13
1.86432e-12
2.06387e-11
0
1.67532e-14
-1.77688e-12
2.57316e-13
8.05964e-13
1.57238e-11
6.85843e-12
-6.67787e-12
7.77785e-12
-1.91767e-12
-1.09148e-12
-1.25687e-13
-4.49209e-14
-4.37583e-13
1.29718e-12
9.60759e-12
-4.11582e-12
9.01986e-13
2.98926e-12
7.4733e-12
-1.11514e-13
-1.34882e-12
2.17039e-11
2.69835e-12
-5.3031e-13
-3.34246e-13
-3.34162e-13
-2.8899e-12
6.30344e-13
-3.48427e-13
0
-1.17559e-13
-3.79073e-12
-8.75834e-12
-1.54432e-12
-5.54141e-12
-2.84838e-12
-5.40873e-12
1.34356e-12
-2.08887e-12
6.18031e-13
1.65396e-12
1.24984e-12
2.24777e-11
-3.39131e-12
-8.37506e-13
-9.77542e-14
-4.13114e-13
-2.30545e-11
-1.32166e-12
-2.09251e-11
5.44298e-13
-1.25166e-11
3.93782e-12
-2.85163e-13
-1.29685e-11
0
-1.73914e-12
-1.50597e-12
6.39841e-13
4.58895e-12
-2.54514e-13
9.96688e-14
3.80683e-13
-1.23914e-13
-6.05554e-13
3.66195e-12
-1.09701e-12
-8.77771e-13
1.03839e-14
-2.79723e-14
-1.42597e-11
-6.39093e-12
4.67736e-13
1.6252e-12
-6.72767e-12
-4.57877e-12
0
-4.53688e-12
-1.43699e-13
3.24857e-12
1.66947e-11
-2.43771e-12
0
3.30946e-12
-4.70068e-12
-1.12196e-13
-6.36295e-13
0
-3.75741e-12
8.93077e-12
-1.87125e-12
-2.25658e-12
9.90018e-12
-2.10877e-14
-1.97964e-13
-2.08219e-13
-1.16718e-11
-4.56138e-13
8.10913e-13
-5.28907e-12
-1.32759e-14
-1.91651e-15
-2.0372e-12
4.51682e-12
-7.85952e-13
-2.81643e-13
-2.31568e-13
-3.86903e-13
-3.86883e-13
-1.15674e-12
-9.97894e-13
-3.46909e-12
3.0121e-12
-1.05732e-12
1.00751e-12
2.96077e-13
-9.69165e-14
2.44598e-13
-7.24924e-12
3.14399e-12
1.28069e-11
-7.23229e-13
-4.23435e-12
-1.45924e-12
4.65158e-12
9.23011e-12
2.02598e-11
0
-2.2407e-12
-1.66858e-12
-7.83133e-12
0
-2.5425e-13
1.99279e-11
-1.23888e-11
4.93599e-14
1.50924e-13
5.80546e-12
4.11003e-12
3.31822e-14
-4.25512e-12
-3.59994e-12
4.32591e-13
2.82872e-12
1.32455e-11
-5.72648e-12
-2.09003e-12
6.19798e-13
-4.69423e-13
3.70088e-12
4.77357e-12
1.26009e-12
1.10975e-12
-8.74393e-14
-2.6891e-13
4.92699e-12
4.76807e-13
1.72448e-13
3.32992e-14
9.08852e-12
-5.88053e-13
-3.42066e-13
3.58835e-12
1.58796e-12
-2.11876e-12
2.14356e-12
1.54063e-12
-1.54423e-12
-1.84032e-12
-4.25453e-13
-1.81171e-12
-2.17845e-12
2.28624e-12
4.90797e-12
1.57067e-12
-2.3635e-12
2.56255e-12
1.28127e-12
-2.52595e-12
-3.43974e-12
-2.1341e-12
-2.78127e-12
7.04379e-14
1.34081e-12
1.79086e-12
9.05974e-14
-2.12387e-11
-2.01732e-12
-3.25426e-12
-2.90949e-13
-1.14254e-12
-1.0305e-12
-3.05189e-12
2.73153e-12
5.86775e-12
-9.45946e-13
-1.05379e-12
9.7284e-12
7.75264e-13
-5.48314e-14
-3.17524e-11
1.57607e-13
-3.44821e-13
6.38585e-12
-2.30565e-12
5.23599e-12
1.15515e-13
-4.12258e-12
1.71956e-12
1.95017e-12
-7.41814e-13
1.15163e-11
1.61964e-11
3.60631e-12
4.90963e-14
2.43786e-12
6.24398e-13
-7.24301e-13
-9.91609e-14
1.89199e-12
-6.28774e-12
-2.50605e-13
0
0
-4.60393e-13
6.00201e-14
-1.32296e-12
-1.20858e-11
1.50934e-13
0
1.50719e-12
-2.48219e-12
-1.63451e-13
5.35436e-13
8.4046e-12
-4.66428e-12
1.40228e-12
7.75657e-12
1.42541e-12
0
8.17785e-12
7.39702e-13
2.30131e-12
-1.22762e-11
2.1135e-12
-5.40356e-14
0
1.06666e-11
-2.67183e-12
-3.60234e-12
-6.44986e-12
8.49343e-13
-3.6972e-13
-2.45407e-11
-3.67876e-12
-2.08682e-12
2.54989e-12
2.93965e-12
5.25491e-12
-3.41243e-12
1.71661e-12
3.81213e-13
4.34016e-12
9.19047e-13
1.87533e-12
-2.6732e-14
-2.67464e-14
2.04816e-12
1.63394e-12
6.1701e-12
-1.80109e-12
-3.19198e-11
-3.28677e-11
1.56821e-12
2.32233e-12
-5.17317e-12
-9.17931e-16
-1.33036e-14
2.12046e-15
1.52046e-15
3.29221e-12
-3.51784e-14
6.68293e-14
0
2.09574e-13
-1.59994e-13
-1.5987e-13
2.91028e-14
-3.17191e-13
1.5418e-12
-9.90858e-13
-8.38685e-13
-5.31902e-13
-3.61797e-11
1.66711e-12
1.65069e-13
-7.80517e-12
-1.15215e-12
-3.482e-12
1.38023e-12
2.34388e-12
4.84915e-12
-8.89266e-13
3.21665e-13
-1.07116e-12
0
-5.09207e-12
-2.77187e-12
3.22792e-12
0
4.96405e-13
-1.35414e-12
-2.95031e-12
2.89469e-13
7.37087e-15
1.96189e-14
4.05203e-12
-5.89934e-12
3.84934e-12
-3.28355e-12
5.26743e-12
4.94059e-12
-1.32923e-12
-1.85245e-12
0
-1.38439e-11
1.77218e-14
-2.16524e-12
3.27958e-12
-6.57352e-15
1.68935e-12
-8.97623e-12
1.44835e-12
8.22388e-12
5.74353e-12
0
-1.80407e-11
-2.87019e-14
-1.65935e-14
-3.77072e-13
2.33662e-12
-4.23032e-13
-1.55802e-12
-7.7669e-12
-1.03955e-11
-1.20018e-11
-4.94899e-12
9.85226e-14
-3.11404e-12
1.72365e-11
7.9989e-12
-2.36119e-13
2.70312e-13
9.23624e-15
2.49794e-12
-2.19338e-13
6.32638e-13
-9.53118e-12
-4.82425e-12
2.41206e-12
1.17499e-13
7.54452e-13
1.30689e-15
1.19564e-14
-5.80199e-12
-1.14681e-12
-4.77801e-12
-1.21913e-12
-4.7671e-13
7.76626e-13
3.20315e-11
-6.61249e-14
-1.25256e-13
0
-4.94551e-12
-7.88143e-12
5.86343e-13
4.445e-13
9.09738e-14
6.35449e-12
4.80444e-12
-4.96666e-12
-1.49844e-11
-3.17832e-12
0
-2.15206e-12
-8.64689e-12
-9.06043e-13
4.2813e-12
2.62735e-12
1.77279e-12
2.00219e-12
5.08748e-15
2.00342e-12
1.35843e-13
1.87556e-15
5.61326e-12
-9.52521e-13
-4.3255e-12
-2.11039e-14
-1.35556e-12
-1.52803e-13
1.08765e-11
1.96027e-12
-4.17446e-13
-6.45394e-13
-8.94932e-13
2.46216e-12
5.18248e-12
1.02269e-11
4.349e-12
0
-6.51197e-12
2.3068e-12
-1.97263e-11
2.43414e-12
-8.52026e-12
2.51305e-13
-3.34399e-13
-5.43122e-12
3.90451e-12
-1.37732e-12
2.96527e-13
3.83878e-12
-1.7251e-12
-6.94343e-12
-2.46898e-15
-7.08935e-12
-1.35594e-12
3.28158e-13
6.56006e-13
2.68331e-12
-7.44302e-12
5.28297e-12
4.28303e-12
0
2.77519e-12
-1.02568e-12
2.14362e-13
0
4.61904e-12
-2.26449e-13
-4.15373e-12
-3.42544e-12
9.50316e-12
2.16513e-12
1.5748e-13
0
0
8.05944e-12
4.53893e-12
3.10486e-12
-2.08315e-12
-3.1273e-11
-1.23985e-14
0
2.87647e-12
-4.60338e-12
-1.31799e-12
-2.3538e-12
4.61428e-12
-1.88688e-11
2.2092e-14
-3.43378e-12
3.21716e-12
3.40064e-13
-4.1238e-13
-1.81117e-12
3.36585e-13
5.20998e-14
-1.01344e-11
5.67932e-12
2.74126e-13
3.05608e-12
7.38723e-13
1.89065e-12
-1.67179e-12
-5.07482e-12
-5.25077e-12
0
-6.55278e-12
2.96226e-12
9.75458e-13
-2.86419e-13
-5.38818e-13
-6.04717e-12
5.32713e-13
6.3528e-12
5.59422e-12
9.87761e-13
3.47551e-12
1.67028e-11
-1.63279e-12
-1.09783e-13
6.52065e-13
-2.0145e-12
-9.0771e-13
2.988e-12
6.75007e-12
0
-4.69003e-13
4.07049e-13
2.70715e-12
-9.21316e-13
4.08559e-12
3.07811e-12
-2.88113e-12
-7.74822e-13
-1.90918e-13
-1.022e-12
4.51034e-14
6.51072e-12
8.79171e-13
-6.85494e-13
-8.73785e-12
4.50974e-12
-4.21155e-12
-3.52748e-12
0
5.91419e-13
2.81541e-12
1.75154e-11
-8.95983e-12
-3.42692e-12
-8.99872e-15
-2.9467e-14
-9.51045e-13
3.03369e-12
-3.88059e-12
1.17058e-13
2.23733e-12
3.66779e-13
-4.78217e-11
1.74109e-12
-6.72348e-13
8.71798e-13
1.82167e-13
4.60737e-12
1.99112e-12
-1.20265e-12
1.87289e-12
8.34508e-12
-3.1883e-14
-1.20181e-11
-3.88947e-14
-1.07369e-12
0
-6.81569e-12
6.61259e-12
-8.83081e-13
1.65131e-12
-9.92051e-13
9.25601e-13
3.1756e-12
7.16578e-13
6.48647e-13
3.68256e-12
-6.46129e-12
1.67453e-12
-8.31732e-13
-2.0313e-14
-2.37391e-14
1.11305e-12
-2.01279e-13
-3.08741e-12
9.22874e-13
4.11739e-12
2.51357e-12
1.20208e-11
1.71415e-12
-1.1408e-11
-2.92288e-12
2.9011e-13
3.01194e-11
1.00101e-12
3.5813e-12
0
-3.72006e-12
1.13897e-13
-5.97537e-13
2.81675e-12
-7.80464e-12
-4.01553e-13
-7.35231e-14
-5.22503e-13
-3.33787e-12
-1.0624e-11
-9.58466e-12
-1.66391e-12
0
-9.41613e-14
-8.36003e-13
-3.64094e-14
-4.99241e-15
-1.5301e-12
5.71307e-12
-3.37806e-12
-1.14583e-12
0
-3.3935e-14
6.00539e-15
2.42487e-12
9.17529e-12
-1.52098e-13
0
-2.78197e-12
-5.52538e-13
-9.76601e-12
-3.54676e-12
-8.18191e-13
-1.39635e-12
-8.80136e-13
-6.83514e-13
1.229e-11
-2.03972e-13
8.52536e-14
9.04458e-14
-8.52952e-13
7.91136e-12
-7.11773e-12
-3.73164e-12
4.56288e-12
4.45212e-12
-3.15928e-12
-2.97255e-12
-1.24463e-11
8.48696e-14
2.02412e-13
0
-1.14248e-11
-1.59948e-13
3.32925e-12
1.22513e-12
-2.05925e-12
-1.08619e-12
-1.34646e-11
-4.49063e-12
-1.08847e-12
6.80008e-15
8.79796e-12
-1.38976e-13
-1.36464e-12
-1.65791e-11
-8.80557e-13
6.83081e-13
-1.14351e-12
-2.9731e-12
2.59106e-12
-4.22556e-13
1.19166e-13
9.40811e-12
-1.50917e-13
6.76446e-12
0
-3.19203e-12
-2.21194e-12
5.68135e-13
3.28396e-12
-9.68859e-13
1.74066e-13
-1.76118e-11
-2.48913e-12
1.7786e-14
9.21397e-15
8.89357e-13
-1.47844e-14
-9.49263e-12
3.24788e-13
8.80364e-13
-1.55987e-12
2.50597e-13
1.45515e-12
-1.07442e-11
1.98845e-12
5.22315e-12
0
1.08066e-14
1.21744e-14
-1.04687e-13
4.6851e-12
5.97598e-12
1.57456e-13
-2.32729e-12
-4.83282e-12
-2.72373e-13
-3.88449e-13
-6.0343e-12
3.7442e-13
2.44249e-12
2.07687e-14
2.79426e-12
-6.13493e-12
-2.37003e-12
2.23106e-12
-4.68604e-12
-2.03083e-13
-2.93441e-12
1.37e-12
1.68089e-11
7.04048e-12
4.1314e-12
-1.08731e-11
1.78349e-12
4.83312e-12
-5.29444e-12
2.33994e-13
-1.0093e-12
9.8641e-13
3.3796e-12
-5.71037e-13
1.50155e-12
3.47628e-12
2.1984e-12
-3.45749e-11
-1.17371e-11
9.43228e-12
2.8518e-15
1.0378e-14
6.05763e-12
3.92383e-12
-3.20753e-12
3.17223e-14
-8.75618e-12
5.21121e-13
3.89906e-12
-4.84434e-13
-1.70307e-12
3.92137e-14
-5.76812e-12
1.03112e-12
1.124e-12
-5.88368e-14
-4.97574e-12
3.54927e-12
3.11073e-12
-4.27097e-12
-6.73608e-12
5.87019e-13
-4.00211e-12
-3.0046e-12
-1.75756e-13
1.50964e-12
4.55973e-12
-8.18912e-12
2.96249e-12
1.23174e-12
-4.7355e-12
7.60193e-13
-1.2355e-11
-1.88396e-12
1.21218e-12
-5.0306e-12
1.12284e-12
-4.50004e-13
-1.8727e-12
-1.02781e-11
1.92544e-12
-1.92794e-12
3.3321e-12
-9.65689e-12
3.0122e-13
-8.67738e-15
-2.0585e-13
-1.79345e-13
-5.15833e-13
-5.94015e-12
5.37809e-12
-2.45827e-12
3.33019e-13
-1.51263e-12
-8.37811e-14
-2.70724e-14
4.06411e-14
-1.15288e-12
-3.72588e-12
-8.46988e-12
-1.5347e-12
-2.09837e-12
-1.02005e-14
-6.34454e-15
-5.91846e-13
-1.82493e-12
-2.06321e-11
2.07337e-11
1.91147e-12
5.06293e-12
-1.72076e-13
-4.54971e-12
-3.1411e-11
2.82973e-12
1.02447e-11
-1.9734e-12
3.37951e-12
2.61175e-12
-5.22794e-12
9.77285e-13
-3.60091e-12
1.12473e-12
0
1.83717e-12
9.62731e-14
-2.98064e-12
4.5194e-12
-5.56053e-12
2.78195e-12
-5.18984e-13
7.61792e-13
-1.05267e-13
-9.6893e-14
7.14982e-12
-1.28638e-11
-5.53929e-14
5.5427e-14
1.09748e-11
2.62836e-12
5.81884e-14
2.0379e-12
-4.46061e-13
7.54061e-13
-3.3509e-13
5.16768e-12
2.58335e-11
1.40738e-12
9.68281e-13
1.97272e-12
3.59291e-12
2.88356e-12
4.17127e-12
-7.08584e-13
2.8579e-11
-1.90117e-11
-1.02411e-13
2.8612e-12
-7.83743e-12
2.83833e-11
-1.6016e-12
-2.88845e-12
1.58097e-12
-5.80561e-14
-5.79229e-14
1.62542e-11
-3.90788e-15
-1.10351e-13
-7.4534e-13
-3.29498e-13
-4.35427e-12
1.57552e-12
3.50066e-12
-1.08867e-12
-1.67475e-12
-5.19065e-13
3.83944e-13
-6.24209e-12
-4.0165e-12
-6.6329e-13
1.25197e-11
-8.9868e-12
3.32705e-14
1.69798e-12
2.27655e-11
1.51098e-11
5.94828e-12
3.12171e-12
-2.21836e-13
1.63194e-13
-3.65575e-12
3.66904e-12
-5.18329e-12
1.03255e-11
9.33661e-12
-4.2541e-12
-3.62112e-12
-3.2081e-13
-6.90142e-13
-8.83143e-14
1.5733e-14
-3.9053e-12
-2.32606e-12
-5.70146e-12
-2.17034e-12
5.6412e-13
4.43149e-14
5.76822e-13
-1.64132e-12
9.07797e-13
2.755e-12
2.74411e-11
-1.95112e-12
2.08401e-11
3.67944e-13
-5.06734e-12
-9.05854e-14
-2.74325e-12
-3.76736e-12
5.06017e-14
3.23352e-12
-8.1991e-13
2.03871e-13
-3.07104e-12
4.54487e-13
-1.03587e-12
-1.21358e-11
-1.51693e-12
9.32708e-13
3.29315e-13
-2.78111e-12
4.11637e-12
-5.54661e-12
-1.17317e-12
-5.70854e-12
7.60444e-12
-8.05937e-13
-3.83986e-12
-5.4119e-12
1.85346e-12
-1.35695e-11
0
1.78652e-12
4.50612e-12
-2.81261e-12
9.23771e-13
8.03051e-12
6.36772e-12
-5.6183e-12
6.14211e-12
9.22196e-13
-4.70829e-12
-8.00494e-12
-2.25797e-12
0
9.0182e-12
0
-1.80713e-12
-5.276e-14
-1.49328e-13
-5.84661e-12
-6.2454e-14
-2.64261e-12
-1.80146e-12
1.62194e-12
0
0
-3.4297e-13
-3.57632e-13
-6.63939e-12
8.7248e-13
1.53105e-11
-2.31748e-13
2.8877e-12
2.56447e-12
3.81274e-13
3.50338e-13
-7.17063e-14
9.74947e-14
-2.92725e-12
1.09821e-12
0
-1.8351e-12
3.40081e-12
-1.25329e-12
0
2.8625e-14
1.93302e-14
4.10936e-13
-1.58721e-12
1.85756e-13
-1.92432e-13
-6.21078e-14
1.46605e-12
-3.83705e-12
1.45192e-12
-2.64523e-12
-9.99219e-13
-1.24895e-12
3.87673e-12
4.0173e-14
3.46226e-14
0
-3.20468e-12
1.25968e-12
3.32136e-12
0
2.84828e-12
1.72212e-12
9.11532e-13
1.51886e-12
1.00417e-11
2.12696e-11
-3.41778e-12
7.29905e-12
-6.03109e-13
-2.3018e-13
3.16636e-12
1.47079e-12
-1.45514e-12
0
-6.32537e-12
-3.22333e-12
-7.24621e-12
2.42515e-12
-1.91668e-12
1.26353e-12
1.80031e-12
-2.57743e-12
5.44646e-12
-4.97004e-14
9.62215e-13
2.05659e-12
-4.86691e-12
4.50059e-12
-6.05047e-12
-1.95134e-12
1.9033e-12
0
5.35523e-12
-2.22542e-12
-2.45605e-13
-3.23831e-12
5.24152e-12
-2.27671e-13
2.61695e-12
-2.25192e-13
4.79972e-12
1.59849e-12
-4.02646e-13
3.58334e-12
4.33915e-16
-6.35007e-15
-2.57272e-12
-1.48439e-13
-3.14727e-11
1.30077e-12
-1.63166e-12
-3.64431e-13
-5.44619e-12
-5.06949e-13
-1.96476e-11
-5.1582e-12
-1.0429e-12
-8.91031e-13
-1.61444e-12
1.77698e-12
-3.50757e-13
-4.03562e-12
-7.4008e-13
-2.88761e-12
-2.97845e-12
2.25854e-12
5.89001e-13
-2.97469e-14
1.05434e-14
-3.58583e-13
-4.74206e-12
9.65424e-12
-5.94726e-12
-3.24422e-12
1.24107e-12
-4.21401e-14
2.04242e-13
1.25357e-11
-9.68919e-12
9.85962e-13
6.84515e-13
7.44937e-13
5.65263e-13
1.31537e-11
-1.236e-11
-3.45174e-12
1.74193e-12
1.56592e-12
-5.59676e-13
8.61178e-13
4.25929e-12
1.00473e-12
-1.42489e-12
1.00349e-13
-3.87183e-12
3.60547e-12
3.43742e-12
1.61738e-12
-3.68986e-13
2.50684e-13
-3.51885e-12
2.90815e-12
-1.67699e-12
0
7.85204e-12
-6.06074e-13
-6.06211e-13
-3.33585e-12
-5.29972e-13
4.52136e-13
-1.66432e-13
2.72114e-13
5.024e-12
-3.07767e-13
9.62689e-14
-1.77518e-12
1.02903e-12
-1.15708e-11
-2.53407e-12
-8.33875e-12
7.79401e-14
6.0223e-14
2.29345e-12
-8.27699e-12
0
2.74886e-12
3.73288e-12
5.8092e-14
1.42925e-12
2.76458e-12
4.21608e-12
-1.57417e-12
-2.0671e-12
-3.96761e-14
0
8.83877e-14
1.57124e-12
2.39881e-12
-3.38979e-11
4.19554e-12
5.27257e-12
-1.89313e-13
-1.86377e-13
1.04624e-13
1.4595e-12
-1.99474e-12
-4.327e-13
2.53017e-12
-2.31225e-12
3.913e-13
-2.80136e-13
-3.32967e-13
-3.27016e-13
-1.29068e-12
-4.67092e-15
6.67867e-15
8.15058e-12
-4.09485e-13
2.69617e-12
0
3.36329e-14
2.71256e-13
-2.16283e-12
-9.0571e-13
3.88516e-12
7.1325e-13
3.88795e-12
-1.64863e-13
-6.73479e-13
6.73481e-13
0
4.5306e-13
4.21431e-13
-2.28284e-12
-4.66594e-12
4.90064e-12
1.19305e-13
1.34796e-12
8.09453e-12
1.27849e-11
-2.39864e-12
-4.29879e-12
-2.72369e-12
2.72365e-12
-1.7618e-11
-1.64482e-12
9.64414e-13
1.10789e-12
-9.57844e-12
-2.21217e-11
7.65148e-12
-6.66196e-12
6.27993e-12
2.24942e-12
5.60624e-13
1.33663e-14
-3.28799e-13
0
-1.18091e-11
-7.29505e-13
2.41477e-12
-4.33808e-14
-2.42783e-12
1.50319e-12
-4.3606e-11
-3.56059e-12
1.22452e-12
-7.76166e-13
-4.40965e-12
-2.48805e-12
2.45573e-12
2.83559e-13
-3.28327e-13
2.09506e-12
-7.87556e-13
8.3708e-14
2.38428e-13
2.06815e-12
1.09018e-12
-2.94937e-12
-1.08944e-12
-1.48813e-12
-5.5879e-13
-4.60628e-13
-1.40557e-12
-4.08201e-12
-6.68598e-12
4.60414e-12
-8.90597e-14
-8.59988e-14
-5.40958e-13
1.34676e-12
-1.38904e-11
1.88626e-11
0
8.03648e-13
-8.03628e-13
4.34469e-12
1.341e-12
-1.6193e-11
-3.83519e-13
-3.18404e-12
-1.66088e-11
1.16251e-11
7.68888e-15
2.6542e-12
-8.95472e-12
-6.46362e-12
8.0342e-12
-3.69429e-15
1.11826e-13
2.02054e-12
2.92678e-12
1.11283e-12
0
-1.93858e-12
-9.57259e-13
2.37782e-12
8.18743e-14
2.03962e-13
-3.26444e-12
-1.21671e-13
-2.13083e-13
-7.50079e-13
-3.30451e-12
1.80149e-12
1.00973e-11
3.87565e-13
-1.57862e-12
2.7506e-12
6.67926e-12
-6.9061e-12
-1.31314e-12
-1.72641e-12
-1.72635e-12
-3.01712e-14
5.7296e-14
3.28124e-12
-4.55214e-13
1.1863e-12
-4.75033e-13
2.26217e-13
3.03473e-13
8.71268e-13
8.90134e-14
-6.3577e-12
-3.63261e-11
-2.11587e-11
2.51011e-12
1.10395e-11
-1.68602e-12
-1.0842e-11
-8.39521e-12
-2.6004e-12
-6.99828e-12
6.04788e-13
6.0492e-13
2.60528e-11
0
-3.22898e-12
-1.91173e-12
-3.2125e-12
-3.42363e-12
8.22207e-14
-9.67421e-13
-3.40538e-13
-1.31767e-12
-1.73368e-12
-2.11278e-12
-5.18988e-12
-5.10289e-13
5.68897e-13
-1.45706e-12
-1.03405e-12
6.95879e-13
2.92185e-13
2.09756e-13
9.32359e-14
-2.81341e-11
2.99524e-13
-9.74374e-14
1.61594e-12
1.84179e-13
-2.43677e-13
-5.95397e-13
-1.22992e-12
-2.82076e-12
0
6.55011e-12
-9.49642e-12
-2.37232e-13
-5.79945e-13
4.56544e-12
-5.43493e-12
-3.11758e-12
1.21723e-11
-7.38351e-15
-7.99121e-13
-2.96498e-12
2.13338e-12
2.06409e-12
7.22661e-13
1.07762e-14
-1.84699e-12
-2.6743e-14
1.51864e-12
3.50007e-12
-1.51999e-12
9.81022e-13
-1.23265e-12
0
5.55086e-12
-3.72595e-12
-1.14343e-13
-5.33807e-13
3.69997e-12
-9.36256e-12
-3.01266e-13
1.49642e-12
-7.33034e-14
-1.22395e-14
-3.52329e-14
1.33178e-12
-2.55926e-12
6.8933e-14
-1.89147e-12
-4.01046e-12
-2.98742e-12
1.25729e-11
1.00079e-12
3.05205e-11
-3.29969e-12
-3.54327e-13
1.20396e-11
1.59837e-12
4.90981e-13
2.18527e-12
-6.47335e-13
5.45e-14
-1.95474e-13
-4.09102e-12
8.06004e-14
-5.46615e-12
-4.66761e-13
1.18834e-12
-1.11461e-11
6.60701e-12
9.02626e-12
-1.18937e-13
-7.81508e-14
-9.82043e-13
2.36868e-12
-6.69905e-13
-1.28415e-12
7.69598e-12
-1.54487e-12
-3.3982e-13
1.96535e-12
-6.75926e-12
-1.99898e-13
-3.5378e-13
1.41265e-14
4.43107e-13
-6.05582e-12
-1.52019e-12
4.83379e-13
-1.55047e-12
-2.98716e-12
1.69713e-11
1.47161e-14
3.95084e-14
-2.67948e-11
-1.76088e-13
-2.9969e-12
-1.67151e-12
-2.28707e-12
0
-5.40256e-12
-5.87462e-12
2.74949e-12
2.74947e-12
-9.0955e-14
0
-1.75401e-13
-2.75345e-11
-8.461e-13
-3.17892e-12
-1.78374e-11
3.09096e-11
3.08477e-14
9.77498e-13
2.40186e-12
-1.82079e-12
2.15128e-12
-1.29081e-13
-5.22685e-14
-9.23847e-13
-3.81409e-12
2.97512e-14
-1.0376e-11
-3.2468e-12
1.88249e-13
-9.76885e-13
2.6536e-12
0
-1.5365e-12
8.04949e-12
-1.97455e-13
2.3966e-12
0
-1.43329e-11
-3.72518e-13
3.54523e-12
1.03959e-12
5.95095e-13
3.36668e-12
-2.41781e-12
-3.18726e-13
-2.90898e-13
1.97594e-12
-2.41863e-11
1.06003e-11
0
-2.461e-12
-8.91381e-13
-2.22756e-12
1.05818e-11
3.55933e-13
-1.47846e-12
5.64291e-12
-4.25422e-15
-1.00755e-14
-1.54227e-12
5.45947e-12
3.79739e-12
7.06791e-13
-8.58002e-12
4.64586e-13
-1.22256e-12
3.18906e-12
3.841e-12
-5.28403e-13
-6.65937e-12
3.35592e-12
2.01862e-12
0
1.58211e-12
-7.46081e-12
-2.72922e-13
-3.60508e-12
-3.07784e-12
8.55658e-12
8.82119e-12
9.18637e-13
-6.32444e-12
2.03762e-12
9.74038e-13
2.47416e-13
1.11001e-12
-5.18568e-13
-5.88659e-14
-6.13439e-12
0
-1.22847e-12
1.44189e-11
-1.35121e-11
-2.04828e-12
1.23791e-12
6.8928e-12
-9.50644e-13
-9.7871e-13
0
0
-1.61843e-12
2.99127e-12
4.24394e-12
-7.42063e-12
3.36883e-12
-6.96505e-14
5.55038e-12
-5.91692e-13
3.54867e-13
1.22316e-12
4.1644e-12
4.24177e-12
4.24208e-12
8.82628e-13
3.5231e-12
-3.21616e-12
-4.09476e-13
4.17263e-12
1.69348e-12
5.70025e-12
8.20164e-12
-6.05943e-12
-5.79543e-12
-3.62693e-12
-3.11881e-12
-4.85106e-12
-6.83438e-13
1.80047e-13
4.94084e-12
1.12252e-12
0
-3.70133e-12
-2.87636e-12
-4.30031e-12
-3.09225e-12
-7.72795e-12
-1.48285e-12
-3.44737e-12
4.99185e-12
4.66163e-13
-8.99197e-13
0
-2.56019e-12
-2.84997e-14
-5.85134e-12
8.71851e-14
1.96175e-12
-5.34292e-12
-6.68488e-12
-2.28883e-12
6.34445e-13
0
9.17018e-13
2.03519e-12
-9.80301e-13
-3.7798e-13
2.44443e-15
5.81517e-14
4.62939e-13
6.16112e-13
-9.12736e-13
1.97769e-11
9.96213e-13
8.49631e-13
-1.28869e-12
2.09669e-11
-5.6369e-12
-7.54462e-13
2.78546e-14
-1.55633e-14
-9.32894e-12
1.19736e-11
-2.12052e-12
-1.83375e-14
3.34686e-14
-2.21921e-13
1.125e-13
-4.44759e-12
-2.7785e-13
1.61991e-12
-3.46927e-13
2.99316e-13
-2.5826e-12
3.44546e-14
-2.9897e-14
-2.49793e-12
-3.35327e-12
1.9212e-12
9.44661e-12
-1.71477e-13
-1.9418e-12
-3.40621e-12
0
3.01235e-12
6.28229e-13
-1.18822e-11
-8.05691e-13
3.24156e-12
3.87657e-12
-1.15541e-11
-5.27299e-13
-2.41733e-12
-3.33132e-12
-1.26981e-12
-2.47348e-12
-1.74948e-12
-1.7367e-11
-1.87949e-12
-4.04703e-12
1.45479e-11
-6.03029e-12
-1.48572e-12
8.52283e-15
-2.08418e-15
1.06401e-15
-6.53389e-12
-3.1431e-14
-3.15949e-14
1.67705e-13
0
0
-3.51877e-11
-2.54148e-12
-4.68e-12
0
-1.1371e-11
1.35522e-11
-3.24982e-12
5.24735e-13
-1.43726e-11
-1.77201e-12
1.1838e-12
7.73178e-13
-7.39199e-12
1.82728e-12
1.34366e-11
-1.35594e-11
-1.35876e-12
-2.65613e-12
2.80664e-13
1.08672e-13
1.26287e-12
-1.60874e-11
-1.92084e-11
0
-2.44444e-13
8.72888e-13
2.54746e-12
1.05597e-12
-8.92712e-12
-6.20646e-13
7.36302e-12
1.81364e-14
-6.80786e-12
-1.21186e-12
-1.31406e-12
3.52798e-12
6.07995e-12
-3.21852e-13
-6.35909e-12
8.1015e-12
5.11482e-13
-4.18185e-13
4.23619e-12
-3.33712e-12
1.66339e-12
-1.24016e-12
0
-1.83175e-14
1.37397e-12
-1.02361e-12
-3.97364e-12
9.25492e-13
-1.87753e-12
-9.74037e-13
8.59949e-13
3.82363e-13
-4.96854e-12
6.24745e-13
7.37686e-12
-1.88245e-12
-9.50391e-13
-5.81897e-12
-6.66016e-13
1.69824e-13
3.38961e-12
3.10625e-12
-1.75557e-13
8.85656e-15
1.29655e-14
-2.0755e-12
-6.70588e-12
-7.32572e-12
3.96884e-12
3.42367e-12
7.90203e-14
-1.30533e-13
0
2.66443e-12
7.00104e-13
-2.86717e-12
3.25448e-12
2.18113e-11
-2.79736e-12
-1.16601e-12
-3.58203e-12
-2.16232e-11
4.19935e-12
3.66071e-12
-3.6881e-13
7.12153e-14
-4.9232e-14
3.81921e-12
1.83663e-12
1.7213e-13
-2.90164e-12
-1.18255e-12
4.37974e-12
-1.60039e-12
-4.0741e-12
3.43303e-13
6.41425e-14
-8.95118e-14
-1.78985e-13
0
-4.22736e-12
2.52494e-14
2.82872e-14
-4.34513e-12
-2.37977e-12
0
0
4.26534e-13
-5.1567e-12
-7.27184e-12
-1.66097e-12
9.8345e-13
9.83474e-13
-1.9665e-12
1.10933e-12
1.29881e-12
-2.41154e-12
-2.02254e-11
-7.15165e-13
1.51419e-12
-2.22547e-12
2.5717e-12
-1.63167e-12
3.02975e-14
5.86989e-15
-1.2974e-11
8.64505e-12
-1.99785e-12
-9.81976e-13
1.00933e-11
5.00037e-12
1.45495e-12
2.78453e-12
-3.33931e-12
8.11482e-13
2.38528e-12
1.61884e-12
1.5141e-11
-3.74124e-12
-1.45681e-11
-5.26721e-12
-4.27255e-13
-1.64279e-12
9.05137e-12
-3.09171e-12
1.89313e-12
-1.30374e-12
1.59596e-13
1.77327e-12
4.25931e-12
-4.31866e-12
1.86078e-11
1.22381e-12
1.32652e-12
-3.99984e-12
3.41966e-13
-3.24568e-12
-4.04325e-12
-4.69503e-12
-7.17032e-13
5.85803e-12
1.54225e-11
-2.49145e-12
-2.31088e-12
-2.77252e-14
7.41049e-15
5.55587e-15
-9.33052e-14
2.4954e-13
-1.62112e-12
-1.37726e-13
-3.9946e-12
-6.07984e-11
2.57721e-13
1.62714e-12
-2.0973e-12
9.74732e-12
2.67902e-13
1.36083e-13
-2.82845e-14
-6.61457e-12
-8.57796e-12
6.62809e-12
-9.11742e-12
4.40706e-13
-1.12639e-11
-2.38536e-12
-2.55367e-12
1.22604e-12
1.70274e-12
1.98287e-12
-2.25228e-12
3.43375e-14
3.50375e-14
-6.93362e-12
-1.92002e-13
6.3774e-13
-2.53667e-12
3.35298e-12
-3.23225e-13
3.06167e-12
3.04438e-12
0
3.21389e-12
-1.74009e-12
9.81299e-14
4.69848e-12
0
-1.65275e-12
8.06019e-12
1.9884e-12
-5.43929e-12
3.15663e-12
3.84553e-12
2.73234e-12
-8.72317e-13
3.8845e-12
1.43054e-13
-3.70686e-14
1.72633e-12
-2.72262e-12
-3.64383e-14
1.84376e-14
3.26035e-12
9.21598e-14
-2.16906e-13
9.99751e-13
2.80236e-12
2.62301e-13
-7.40816e-14
5.61322e-13
-2.35574e-12
1.90645e-12
1.00871e-12
-4.92305e-13
2.28123e-12
-1.21406e-12
-7.2732e-12
-2.35708e-12
8.33494e-12
-1.05696e-12
-2.90857e-12
0
3.56107e-14
3.40959e-12
8.045e-12
4.69635e-12
6.44966e-12
4.49509e-12
-6.1338e-12
1.20358e-11
-1.38614e-11
-1.09807e-12
-1.23887e-12
1.35367e-13
9.67433e-13
5.69543e-13
-1.11737e-11
-7.93639e-13
1.1317e-12
9.21443e-13
-1.25199e-12
4.12245e-12
1.85305e-11
9.06053e-14
1.15269e-13
7.63075e-13
-7.87729e-13
1.10334e-13
9.78382e-14
3.9138e-12
6.42954e-13
-1.12216e-12
-9.8654e-14
-7.21217e-12
-2.26879e-12
4.83246e-12
-2.42596e-12
1.02602e-13
-1.43745e-11
-6.50994e-13
-1.83687e-12
2.25628e-12
-9.33772e-13
-2.08417e-11
2.03529e-13
-3.74149e-12
-7.74655e-14
-3.44362e-12
4.06792e-12
0
-3.98514e-12
-6.29103e-12
2.24387e-12
9.45241e-12
1.48457e-12
0
-3.61911e-12
3.19616e-12
-9.24332e-12
-4.63823e-12
-1.55727e-13
-1.41601e-11
-4.28609e-12
2.57938e-12
8.0745e-13
-4.30142e-14
-4.75715e-14
-2.01692e-12
-7.24235e-13
-1.04448e-12
-5.15762e-13
-1.19649e-12
-2.6312e-12
-1.67812e-12
1.71998e-12
4.15843e-12
0
1.64754e-14
-2.0656e-11
-2.19348e-13
1.82341e-12
-2.63189e-12
-9.02125e-12
3.98312e-13
5.42957e-14
5.61339e-12
-8.13416e-13
6.60122e-12
3.93772e-12
-3.01766e-12
3.31055e-13
8.12513e-13
1.88857e-12
-4.31745e-13
2.2076e-12
1.05515e-12
1.73681e-12
3.51404e-12
-8.28687e-13
1.8572e-12
2.55463e-13
6.23276e-13
2.93011e-12
-1.83415e-14
1.08328e-11
-3.72627e-13
1.16973e-12
3.08593e-14
2.89842e-14
3.94914e-12
8.08484e-13
-6.58188e-13
-2.84161e-13
-1.11352e-13
1.77152e-14
3.17329e-12
1.20275e-13
3.45107e-14
6.16783e-12
-7.48162e-12
-9.64525e-13
-5.07902e-12
0
2.45653e-13
-3.01091e-12
2.47182e-12
-9.63274e-13
-5.04047e-13
3.59665e-13
7.65349e-14
-7.09267e-12
4.67598e-11
-3.29018e-12
-5.45607e-12
-5.1358e-12
-6.43088e-12
-4.9444e-12
9.68089e-12
-1.89589e-12
-1.69478e-12
-3.51809e-14
2.30621e-14
2.39959e-12
-2.09859e-13
-2.65929e-12
-5.31631e-12
5.71131e-13
-6.89008e-13
1.47987e-12
-1.56216e-12
9.8792e-13
1.35358e-12
3.61594e-13
2.99128e-12
-3.39929e-12
5.38205e-12
-7.70097e-12
1.42515e-12
-1.08546e-11
5.49818e-12
-2.68299e-12
-4.80988e-12
-1.11773e-12
1.65709e-12
-1.89985e-12
7.26754e-13
-1.64426e-11
3.63899e-12
6.30228e-14
-3.40084e-13
-1.5906e-13
1.58196e-13
-1.56841e-11
1.38421e-12
-2.25945e-12
-4.1727e-12
-1.60838e-11
4.14103e-12
-1.92653e-12
-2.80779e-12
-3.01381e-12
-1.70656e-12
0
-6.50324e-12
-9.60922e-12
0
7.71331e-12
2.88275e-12
4.38623e-12
-9.11285e-12
1.4101e-12
1.36343e-11
5.21736e-14
4.96279e-11
1.35486e-13
6.68018e-14
2.50641e-12
-1.13094e-11
-1.08733e-12
-2.60122e-12
2.4845e-12
-2.36025e-12
-4.91176e-13
1.41101e-13
-4.34158e-12
1.0239e-12
9.30099e-12
-2.98888e-12
-6.4482e-12
-3.65095e-12
7.09457e-12
6.87187e-13
5.27266e-12
-8.31627e-12
1.13693e-12
4.1435e-13
1.24475e-13
4.87959e-14
-3.3802e-12
-1.32471e-12
0
-5.11344e-13
1.08523e-13
1.08391e-13
-1.79529e-13
-1.79605e-13
-6.57133e-14
-6.06891e-12
1.00434e-12
0
0