/*--------------------------------*- C++ -*----------------------------------*\
| =========                 |                                                 |
| \\      /  F ield         | OpenFOAM: The Open Source CFD Toolbox           |
|  \\    /   O peration     | Version:  v3.0+                                 |
|   \\  /    A nd           | Web:      www.OpenFOAM.com                      |
|    \\/     M anipulation  |                                                 |
\*---------------------------------------------------------------------------*/
FoamFile
{
    version     2.0;
    format      ascii;
    class       volScalarField;
    location    "9000";
    object      sigmaxx;
}
// * * * * * * * * * * * * * * * * * * * * * * * * * * * * * * * * * * * * * //

dimensions      [1 -1 -2 0 0 0 0];

internalField   nonuniform List<scalar> 
27023
(
-1.96783e+07
1.96817e+07
1.26701e+07
-1.26674e+07
-1.98827e+07
1.98862e+07
1.07327e+08
-1.0732e+08
4.75731e+06
-4.75156e+06
7.7652e+07
-7.76414e+07
855759
-874646
-3.10689e+07
2.53351e+06
1.71085e+06
-6.65802e+07
6.65841e+07
4.88081e+07
-4.88059e+07
1.06707e+08
-1.067e+08
5.45924e+07
-5.45904e+07
8.57927e+06
-3.81796e+07
4.05405e+06
-3.76757e+07
3.70589e+07
1.78149e+07
4.88547e+07
-4.88534e+07
-4.96678e+07
-3.07573e+07
3.86e+07
4.44791e+07
-4.44734e+07
4.55885e+06
-4.5565e+06
-1.26429e+07
1.26459e+07
-2.51069e+07
-1.89496e+07
1.8953e+07
6.57024e+07
-6.56985e+07
5.16451e+07
-5.16422e+07
3.41896e+07
4.98307e+07
-4.98285e+07
-4.84478e+07
484.878
-481.977
5.45768e+07
2.28321e+07
4.05964e+07
-1.85079e+07
1.20688e+07
-1.20664e+07
3.36514e+07
5.19637e+06
6.02183e+06
-2.43892e+07
1.58164e+07
4.34337e+07
1.06303e+07
-3.87044e+07
-2.3422e+07
4.25903e+07
-4.25844e+07
7.43745e+07
-7.4371e+07
9.90072e+07
-9.9004e+07
178332
-176180
-1.16698e+08
1.16703e+08
-2.89981e+07
7.50332e+07
-7.50224e+07
7.24543e+07
-7.24509e+07
-1.0512e+08
1.05123e+08
-4.32953e+07
4.17212e+06
-1.95825e+07
1.87633e+07
2.46667e+07
-2.46631e+07
2.1684e+07
-8.80127e+06
-5.47428e+07
5.47387e+07
-2.89279e+07
-1.95125e+07
929817
-3.18889e+07
-1.99622e+07
2.02927e+07
8.71323e+07
-8.71271e+07
3.50988e+06
9.74164e+07
-9.7411e+07
5.38704e+07
3.7968e+07
2.32024e+07
9.77365e+07
-9.77313e+07
5.40183e+07
-5.40169e+07
9.98579e+07
-9.98548e+07
2.4e+07
-3.94105e+07
-2.94012e+07
2.38685e+07
2.50143e+06
-8.08183e+07
8.08301e+07
1.15604e+08
-1.15597e+08
2.42414e+07
-2.42378e+07
8.85719e+07
-8.85665e+07
-1.79196e+07
-2.10895e+06
2.14358e+06
-1.6723e+07
2.06066e+07
-1.05394e+08
1.05396e+08
1.01505e+07
6.82951e+07
-6.82911e+07
-1.00355e+08
1.00363e+08
-7.08814e+06
1.03803e+08
-1.03796e+08
-1.68128e+07
-1.84396e+07
4.96519e+07
4.42391e+07
4.17284e+07
-4.17227e+07
5.23465e+07
-5.23426e+07
-3.0055e+07
-3.166e+07
-3.28917e+07
3.28551e+07
3.12281e+07
6.74815e+07
-6.74775e+07
-6.12417e+07
-2.53837e+07
-5.29551e+07
3.65142e+06
-6.24574e+07
6.24656e+07
-9.11132e+07
9.11217e+07
-2.07509e+07
2.14993e+06
5.92302e+06
-1.17405e+08
1.1741e+08
-2.15644e+07
2.15022e+07
-3.35867e+07
2.72149e+06
-6.61143e+06
-2.20404e+07
1.06793e+07
-4.44037e+07
-9.58e+07
9.58077e+07
-3.33532e+07
-6.08007e+07
-6.47314e+07
-5.1861e+07
5.18584e+07
-5.56204e+07
-1.98465e+07
-9.10925e+07
9.11006e+07
-2.78576e+07
4.68898e+06
1.16353e+08
-1.16346e+08
-6.87031e+07
-8.80405e+07
8.80504e+07
-3.70147e+07
3.30445e+07
-3.92837e+07
9.70984e+07
-9.70954e+07
-1.87591e+07
1.87626e+07
-2.48905e+07
-6.7713e+07
9.68895e+07
-9.68865e+07
25520.1
-25352.4
2.10762e+07
-2.65437e+07
-1.12207e+07
1.12246e+07
-3.2639e+07
2.51579e+06
6.94057e+06
-1.0352e+08
1.03523e+08
-1.80445e+07
-8.13014e+07
8.1313e+07
-3.12276e+07
9.12097e+07
-9.12058e+07
7.50283e+07
-7.50248e+07
1.93267e+06
-1.93284e+06
4.89928e+06
9.39217e+07
-9.39178e+07
-6.24854e+07
9.1103e+07
-9.10995e+07
1.00495e+08
3.76484e+07
-1.12904e+08
1.12912e+08
4.00682e+07
6.45877e+07
6.39277e+07
-5.08563e+07
2.35075e+07
297421
-3.48389e+07
5.32929e+07
-4.97783e+07
-1.07888e+08
1.07893e+08
-2.31784e+07
-1.72198e+07
-6.814e+07
-6.89126e+07
8.28798e+07
-6.31313e+07
5.47929e+07
-5.47886e+07
2.15974e+07
3.69217e+06
5.83127e+07
9.3642e+07
-9.36386e+07
1.02922e+08
-1.02915e+08
7.7826e+06
-1.48164e+07
7.99879e+07
-7.99762e+07
4.04945e+07
-2.34337e+07
-4.3857e+07
1.03141e+07
6.03661e+06
-6.32732e+07
6.32815e+07
-5.47196e+07
5.4726e+07
4.62352e+07
-5.68552e+07
1.13995e+07
-1.11475e+07
-23193.5
22642.9
-2.35631e+07
-2.93597e+07
1.35062e+07
4.66114e+07
2.5762e+06
-2.26357e+07
-8.92147e+07
8.92187e+07
-1.03594e+08
1.03597e+08
-5.03305e+07
6.70036e+07
-9.70018e+07
9.70048e+07
1.50169e+06
8.66684e+06
-8.94734e+07
8.94798e+07
-1.35789e+07
1.5316e+07
-1.53089e+07
3.29217e+07
3.3726e+07
-6.52518e+06
-204853
-915.423
927.176
943725
-944381
4.54433e+07
-5.07628e+07
5.07676e+07
1.43075e+06
3.29453e+07
1.96341e+06
-1.96541e+06
-4.11442e+07
-2.76648e+07
-2.20681e+07
3.42241e+07
-7.89152e+07
1.05155e+07
4.60889e+07
-5.53096e+07
-1.94349e+07
5.53026e+07
-8.98803e+07
9.07021e+06
3.84084e+07
-3.28901e+07
3.28947e+07
-1.78642e+07
1.15324e+07
8.48588e+07
-8.48545e+07
-6.61031e+07
6.64102e+07
66703.4
-66354.4
-3.58601e+07
1.92397e+07
-1.92363e+07
-2.82235e+07
1.3205e+07
-5.10404e+07
5.10636e+07
9.66792e+07
-9.66754e+07
-36372
36394.4
6.38826e+06
-1.12677e+08
1.12681e+08
-5.8995e+06
-4.4181e+07
-9.39649e+07
9.39681e+07
-9.91211e+07
9.91317e+07
1.90457e+07
-4.0949e+07
-6.68829e+06
-2.84827e+07
2.84866e+07
-1.11471e+08
1.11475e+08
-1.86739e+07
-6.2854e+07
-2.3095e+07
-6.38441e+07
-6.34896e+07
-3.79229e+07
-4.16796e+07
4.17571e+07
3.1862e+07
-4.17498e+07
1.09505e+08
-1.09498e+08
-3.35607e+07
1.3114e+07
1.81478e+07
-6.51489e+07
-5.23824e+07
-3.66921e+06
-3.29245e+07
1.23174e+07
4.42975e+07
4.60704e+06
1.99351e+06
-9.69434e+06
4.0601e+07
2.20519e+07
-9.26385e+07
-4.35992e+07
7.44189e+07
-7.44154e+07
2.78358e+07
-2.70954e+07
1.30231e+07
-2.97973e+07
2.98014e+07
1.09045e+06
2.19479e+07
-4.99597e+07
2.9805e+06
4.98761e+07
98825.5
-98931.7
-1.89215e+07
5.39139e+07
4.04077e+07
6.62275e+07
3.5642e+07
-4.6894e+07
2.01697e+07
-5.85616e+07
1.67475e+07
7.30531e+06
4.94041e+06
-8.83291e+07
-9.43448e+07
9.43479e+07
-8.21246e+07
7.75566e+06
6.33119e+07
-3.18074e+07
9.09653e+07
-9.0962e+07
-6.50017e+07
6.50048e+07
6.57417e+07
6.09859e+06
5.49148e+06
-5.49131e+06
-8.30884e+07
8.30612e+07
5.83755e+07
-5.83714e+07
15112.8
-15176.9
-2.03359e+07
-1.45851e+07
-5.24027e+07
-5.4371e+06
-1.39477e+07
-9.01212e+07
9.01323e+07
-8.82905e+07
8.83015e+07
5.78028e+07
-5.78022e+07
4.85695e+07
-4.85641e+07
-1.25149e+07
324589
-1.27464e+07
-5.05002e+07
2.30126e+07
6.16942e+07
-2.10939e+07
-1.12658e+08
1.12666e+08
-5.55181e+07
2.81956e+07
1.42296e+07
7.44054e+07
6.39566e+07
-4.34553e+07
-1.57553e+07
9.03021e+07
-9.02979e+07
-2.54388e+07
2.54941e+07
1.44853e+07
-1.44809e+07
9.28521e+07
-9.28483e+07
2.4125e+06
1.33074e+07
-1.56357e+07
2.04243e+07
8.98967e+07
9.71119e+06
-7.73467e+07
7.73578e+07
-3.60645e+07
4.46532e+07
2.85994e+06
-5.12465e+07
5.12513e+07
2.51115e+07
-2.51078e+07
3.30196e+07
-7.73382e+07
-4.48305e+07
-3.08443e+07
3.08465e+07
-4.97717e+07
-8.05128e+06
4.5188e+07
-4.51852e+07
-3.81511e+07
1.03908e+08
-1.03894e+08
7.87647e+07
-7.87541e+07
-5.14117e+07
-7.04042e+07
7.04133e+07
-2.59716e+07
-3.6975e+07
8.58883e+07
-8.58848e+07
-6.62047e+07
-9.51738e+07
9.51769e+07
5.5389e+07
-8.59526e+07
8.59567e+07
-5.47682e+07
5.4776e+07
-1.31194e+07
5.48137e+07
-5.48079e+07
-4.44902e+07
-8.97899e+06
-1.05273e+07
-1.44843e+07
6.3329e+07
-6.33276e+07
-1.07318e+08
1.07322e+08
-4.0308e+07
-6.79692e+07
3.79117e+07
4.13431e+06
-4.58931e+07
-4.21691e+07
2.31197e+07
-5.20413e+06
5.20435e+06
-7.88371e+07
-1.0423e+08
1.04233e+08
4.00982e+07
4.08178e+06
-8.64135e+07
8.64181e+07
-4.32738e+07
-5.33844e+07
5.33989e+07
505465
6.32519e+06
-1.57241e+07
-3.60845e+07
-3.42909e+07
4.43857e+07
-4.43839e+07
-4.78002e+07
-1.11599e+06
7.61008e+07
-7.60968e+07
1.74644e+07
-4.79851e+07
4.79867e+07
-1.40354e+07
2.88126e+07
-2.88084e+07
-8.53079e+07
8.53169e+07
-3.37665e+07
3.37712e+07
5.32422e+07
-3.5397e+07
3.5328e+07
5.2484e+07
-4.27124e+07
4.27181e+07
-3.7172e+07
1.76342e+07
-2.01491e+07
-5.55738e+07
4.08702e+06
-1.03286e+07
-1.92503e+07
-8.81222e+07
5.12737e+07
-5.12688e+07
4.09025e+07
5.22566e+07
-5.22541e+07
-3.86983e+07
-7.13064e+07
7.13097e+07
-1.38936e+07
-3.73162e+06
-4.88969e+07
4.88983e+07
8.93178e+07
-8.93144e+07
6.82599e+07
2.50361e+07
4.06315e+07
7.45955e+07
-7.45915e+07
1.01236e+08
-1.01233e+08
3.24093e+07
-2.52955e+07
1.29769e+07
-1.33152e+07
3.61587e+07
-3.61461e+07
-4.13685e+07
-239242
-437734
439861
240419
-2.53828e+07
812653
-819879
-4.25764e+07
4.2582e+07
-2.20666e+07
2.20702e+07
2.81128e+07
-2.81087e+07
6.48075e+06
6.44801e+07
-6.44779e+07
-5.26021e+07
-2.50811e+07
-6.0875e+07
6.08769e+07
-3.15125e+07
7.05176e+07
-7.05139e+07
-4.12577e+07
-3.09804e+07
6.43594e+07
-3.12983e+07
3.13027e+07
6.32288e+07
4.73248e+06
-51786.5
-3.01861e+07
-8.84532e+07
8.84575e+07
-8.79975e+06
5.02661e+07
-1.12384e+08
1.12389e+08
14475.6
-14522.6
5.68282e+07
-5.68298e+07
4.94217e+07
-7.86458e+06
1.12705e+08
-1.12702e+08
-3.30317e+07
-5.05854e+07
9.31855e+06
2.22982e+07
4.30429e+07
3.68663e+07
2.04902e+07
-1.77312e+06
-1.45927e+07
-6.15523e+07
3.93688e+07
5.80978e+07
-5.55202e+07
-2.81701e+07
-2.3404e+07
50638.1
-50949.3
7.1037e+07
-7.10338e+07
4.2224e+07
-3.45159e+06
-2.49065e+07
-9.03686e+06
5.09517e+07
5.44249e+07
-5.06911e+07
-5.5217e+06
3.5442e+07
-3.89069e+07
-1.31715e+07
2.28076e+07
-2.28038e+07
4.54002e+07
7.1584e+07
-6.80136e+06
-3.56877e+07
9.01512e+07
-9.01471e+07
-9.79573e+07
9.79604e+07
-18771.8
18388.7
-4.84768e+06
-6.55442e+06
-2.82859e+07
-3.47249e+06
-4.68624e+07
4.6862e+07
3.09564e+07
3.86578e+06
-3.86607e+06
-1.03864e+08
1.03867e+08
-8.16338e+07
7.99429e+07
-7.9939e+07
-1.43129e+07
6.47119e+07
-4.061e+07
-2.35808e+07
6.41931e+07
7.14042e+06
8.51921e+07
-8.51887e+07
3.4485e+07
-9.91964e+06
9.88288e+07
-9.88178e+07
-3.43446e+07
-9.21169e+07
-2.69571e+07
9.21222e+07
2.42467e+07
-2.42102e+07
4.64153e+07
3.37985e+07
-4.87082e+07
-1.96458e+06
-4.86599e+07
-2.26478e+07
8.55513e+07
-1.57819e+07
2.98036e+07
-2.98007e+07
-9.76235e+07
9.76266e+07
2.45485e+07
6.75879e+06
-8.62575e+07
8.62616e+07
-5.35523e+07
4.42202e+07
3.60877e+07
1.70186e+07
4.00329e+07
1.94637e+07
-1.94604e+07
-1.38743e+07
4.84545e+07
-4.84527e+07
-9.65467e+07
9.65499e+07
1.10027e+06
-3.68451e+07
-6.68141e+06
-8.54944e+07
7.1324e+07
-7.13127e+07
3.63857e+07
4.16007e+06
-2.59686e+07
-5.79396e+07
-2.37584e+07
-3.45031e+07
-1.33389e+07
-3.431e+07
4.09179e+07
9.82803e+07
-9.82771e+07
7.90698e+07
-7.90588e+07
6.44077e+07
-6.33699e+07
-1.41896e+07
6.35755e+06
9.55311e+07
-9.55278e+07
-6.70957e+07
-6.08653e+07
1.78268e+06
-2.48979e+07
7.57168e+06
3.4075e+06
-3.4007e+06
-2.59202e+07
-1.02739e+07
1.03999e+08
-1.03991e+08
-2.72042e+06
2.7821e+07
-5.34101e+06
1.15804e+08
-1.158e+08
-3.42767e+07
3.42829e+07
-4.08822e+07
-2.0183e+07
2.01871e+07
-1.44057e+07
-6.54719e+06
3.39549e+06
6.23746e+06
8.9153e+07
-8.91496e+07
-1.27499e+07
-5.03195e+07
5.03236e+07
1.00017e+08
-1.00013e+08
-3.35475e+07
3.33238e+07
4.86243e+07
-4.8619e+07
-9.95626e+07
9.95722e+07
1.14978e+07
-6.30266e+07
1.02191e+08
-1.02182e+08
-6.6e+07
-4.85744e+06
4.85532e+07
-4.85488e+07
7.93108e+07
-7.93073e+07
-5.58981e+07
-8.89049e+07
8.89091e+07
-1.09534e+08
1.09537e+08
5.5893e+07
2.70161e+07
3.88567e+07
1.76418e+07
6.98054e+07
-6.98014e+07
-8.79905e+07
5.31441e+06
6.68992e+06
8.79926e+07
2.79825e+07
4.49504e+07
-3.9055e+07
4.8235e+07
-4.82339e+07
990064
1.28483e+07
-4.7348e+07
7.05676e+07
-7.05929e+07
2.7421e+07
-3.1165e+06
66651.5
-65125.3
-3.51348e+07
-4.03471e+07
-3.2645e+07
1.02009e+08
-1.02001e+08
-5.89115e+07
-4.87375e+07
-5.76545e+07
3.02689e+07
4.62096e+07
-4.62037e+07
-6.27517e+07
2.36334e+07
5.89513e+07
-3.47257e+07
3.49348e+07
5.76534e+07
-5.80531e+07
4.98149e+07
-4.98103e+07
-8.73416e+07
8.73449e+07
5.68158e+07
-2.01256e+07
3.6845e+07
8.1222e+07
-8.12116e+07
-7.98528e+07
7.98569e+07
105516
-3.01092e+07
7.02354e+07
-7.02315e+07
-4.07078e+07
7.50209e+06
-7.50067e+06
-3.21347e+07
-3.26996e+07
8.83199e+07
-5.31199e+07
-5.5613e+07
-6.66833e+07
3.59463e+07
-3.83609e+07
-1.28752e+07
1.00613e+08
-1.0061e+08
-5.54516e+06
1.29226e+06
1.7671e+07
-3.90839e+07
-1.672e+07
-9.26758e+06
-5.49464e+06
3.70324e+07
-2.93986e+07
2.6021e+06
1.48612e+07
-3.48337e+07
2.86042e+07
-8.0791e+07
2.00451e+07
-2.06882e+07
-5.33598e+06
5.33622e+06
3.41809e+07
-1.04935e+07
1.04924e+07
-2.76643e+07
-1.56003e+07
6.49159e+07
-6.49139e+07
3.50556e+07
7.56782e+06
-7.56964e+06
-2.92921e+07
-1.73576e+07
3.26812e+07
-4.27564e+07
4.90048e+07
3.12132e+07
-9.37869e+07
3.81225e+07
3.16497e+07
5.29145e+07
2.1233e+07
-2.12296e+07
1.27401e+07
-1.29737e+07
284212
-284585
5.20858e+07
-1.58492e+06
3.88174e+07
2.87767e+07
-3.82097e+07
3.82081e+07
-6.50952e+07
-1.18672e+07
3.31543e+07
-76857.1
76677.7
-3.69005e+07
-2.53127e+07
-770643
4.39758e+06
-1.83782e+07
6.3746e+07
3.27557e+07
-4.77944e+07
-3.96556e+07
3.96543e+07
-7.46586e+07
-5.82259e+07
1.22562e+06
7.12919e+06
-4.34372e+07
-6.75633e+07
6.7575e+07
2.79156e+06
-2.93434e+07
-7.1747e+07
-5.63723e+06
5.63753e+06
-3.81466e+07
1.73829e+07
3.87315e+07
-8.95946e+07
8.95987e+07
-1.6678e+07
-4.725e+07
4.72648e+07
6.17064e+07
-6.16961e+07
2.92128e+07
-3.88093e+07
232178
-229908
-3.1577e+07
1.51574e+06
1.14517e+07
9.77844e+07
-9.77809e+07
-1.14202e+07
1.05699e+08
-1.05686e+08
6.03281e+06
4.69059e+07
-1.57551e+07
-6.91255e+07
-2.91741e+07
-9.90685e+06
6.91369e+07
7.04268e+07
8.21141e+06
-2.93773e+07
-4.17099e+07
4.17111e+07
4.0335e+07
-4.1502e+07
6.29472e+07
3.1111e+07
4.26054e+07
-9.35357e+06
7.16897e+06
-1.46906e+07
-2.36734e+07
2.74667e+06
9.15709e+06
-1.45816e+07
-9.72325e+06
482760
4.1107e+07
2.39203e+07
-5.31496e+07
-3.90401e+07
-1.7664e+07
-6.51757e+07
6.10605e+07
-5.69695e+07
5.69753e+07
1.19794e+07
-4.86434e+06
-3.74699e+07
3.74638e+07
7.66016e+07
-7.65976e+07
-2.61154e+07
-1.01932e+07
5.26522e+07
-6.01801e+06
6.01667e+06
9.50473e+07
-9.50441e+07
6.49758e+06
1.41092e+06
-3.38535e+07
-9.51499e+06
-7.80577e+06
-1.86617e+06
-8.40647e+06
-2.08182e+06
6.49775e+07
6.29426e+07
-6.29406e+07
3.65726e+07
-3.65214e+07
1.63783e+07
1.56589e+07
9.52933e+07
-9.529e+07
8.32079e+06
1.66853e+07
3.70204e+07
-1.389e+07
-5.95695e+07
-2.53149e+07
2.32578e+07
-1.9396e+07
7.1093e+07
-1.09037e+07
-2.2171e+07
8.44786e+07
6.53561e+07
-6.53536e+07
-7.52396e+07
1.28205e+07
4.13626e+07
-3.12374e+07
3.24249e+07
8.34525e+07
-8.33894e+07
-3.27046e+07
-8.64642e+07
-3.574e+06
3.57549e+06
6.44082e+06
-6.43974e+06
2.39546e+07
3.45931e+07
-3.17852e+07
9.84309e+07
-8.95175e+07
8.95295e+07
1.37756e+07
-1.37695e+07
-1.58818e+07
1.00706e+08
-1.00703e+08
-4.0522e+07
3.99845e+07
-1.09367e+07
-23123.8
23059.8
-3.31727e+07
-1.57533e+07
8.02035e+07
-2.14136e+07
-9.22477e+07
9.22553e+07
3.55153e+07
7.65888e+07
-7.60454e+07
2.87106e+07
1.88565e+07
-2.60599e+06
3.77629e+07
-3.77596e+07
-9.46037e+07
9.46072e+07
-1.77034e+07
-4.41398e+07
4.4136e+07
-8.88582e+07
8.88622e+07
1.9597e+07
-4.80053e+07
4.03666e+07
-1.5883e+07
3.48875e+07
-3.48812e+07
-3.08788e+07
1.42676e+07
6.92148e+07
-707407
-2.82128e+07
2.82165e+07
-4.1215e+07
1.97806e+07
8.21061e+07
8.26256e+07
-8.26217e+07
6.14589e+07
-8.12533e+06
-3.13653e+07
3.08745e+07
1.01792e+08
-1.01781e+08
-4.37742e+07
6.92891e+07
-6.92856e+07
4.25569e+07
-6.84462e+07
-5.47537e+07
5.47529e+07
3.65921e+07
2.51642e+07
1.94923e+06
-3.03745e+06
-5.08636e+07
1.60703e+07
-1.30129e+07
36797.2
-37016.5
6.85079e+07
8.14441e+06
-8.14252e+06
8.16563e+07
-8.16461e+07
18062.3
9.97548e+07
-9.97448e+07
-6.68566e+07
6.68647e+07
-1.07722e+08
1.07724e+08
2.78723e+07
9.92811e+07
-9.92778e+07
8.10903e+06
-3.36092e+07
-1.39088e+06
-3.0914e+07
2.15572e+07
-2.94253e+07
7.72247e+07
-7.72224e+07
-2.02923e+07
2.02982e+07
2.03516e+07
-2.79836e+06
1.55612e+06
6.29958e+07
1.09868e+07
4.58844e+07
-6.81338e+07
1.04011e+07
-1.36289e+07
2.96336e+06
-2.96361e+06
6.34732e+07
-4.3713e+07
6.26064e+07
-4.06875e+07
-1.97684e+07
7.98936e+06
4.21507e+07
-4.21361e+07
4.13436e+07
2.29687e+07
-3.68336e+07
3.68249e+07
-1.55779e+07
-4.86998e+07
-9.64083e+07
-5.15029e+07
5.1504e+07
6.79004e+07
-3.27162e+07
3.98941e+07
-4.2062e+07
5.10601e+07
9.64151e+07
4.20651e+07
5.36532e+07
4.3965e+07
2.57664e+07
4.02744e+07
-1.30925e+07
3.52693e+07
2.64779e+07
2.0189e+07
-6.3238e+06
-2.16694e+07
3.71089e+07
-3.98848e+07
-2.45101e+07
7.82819e+07
-7.82783e+07
-5.63138e+07
1.56693e+07
-1.43669e+07
-1.68424e+07
6.68812e+07
-6.48788e+07
7.76556e+06
-8.03864e+07
-2.78822e+07
1.21892e+07
6.48926e+07
3.56398e+07
-5.22994e+07
2.22886e+07
-9.71491e+06
6.12661e+07
-6.0358e+07
4.14201e+07
59178.8
-60265.4
-6.82649e+07
-7.39066e+07
7.39179e+07
3.50454e+06
8.48793e+07
-8.48723e+07
1.01414e+07
1.78282e+07
-1.7825e+07
-4.43317e+07
333796
1.0302e+07
1.03859e+08
-1.03856e+08
-4.99165e+06
-7.98322e+07
8.67065e+07
-3.18057e+07
8.20265e+07
-8.2017e+07
-4.52738e+07
1.27032e+07
7.87245e+06
-7.40553e+07
3.90424e+07
-3.9048e+07
9593.39
-9687.13
5.18023e+06
2.4266e+07
4.63749e+07
-4.63693e+07
8.76382e+07
-8.76337e+07
-7.3031e+07
1.60668e+07
3.2462e+07
8.08497e+07
-8.08453e+07
3.95079e+06
-153014
151896
-7.6554e+07
7.65338e+07
-8.76725e+07
8.76767e+07
-8.12408e+07
9.49078e+07
-9.49043e+07
6.04957e+07
-6.0486e+07
4.51807e+07
-2.09939e+07
-8.86941e+07
8.66207e+07
3.67677e+07
2.4221e+06
-8.66196e+07
1.5734e+07
4.53691e+07
4.80695e+07
5.23108e+07
3.09053e+07
9.0558e+07
-9.05547e+07
-2.34187e+07
-6.9059e+07
6.90675e+07
9.78035e+07
-9.77986e+07
-3.41474e+07
-6.53033e+07
6.53064e+07
3.90066e+07
-3.90111e+07
-3.87919e+07
3.73559e+07
-3.73508e+07
3.8751e+07
-9.80454e+07
9.80485e+07
2.47592e+07
-1.71173e+07
-3.93428e+07
-7.40462e+06
3.37378e+07
-3.36673e+07
1.49035e+07
-3.75432e+07
1.79825e+07
-2.98928e+07
-4145.14
4138.15
-1.07158e+08
1.07163e+08
-1.52059e+07
2.73809e+07
1.03453e+08
-1.03442e+08
-4.13567e+07
3.59133e+07
1.97465e+07
-6.43091e+07
6.46586e+07
3.89599e+07
-2.4667e+06
-6.68391e+07
8.78869e+06
-1.02429e+08
1.02438e+08
-4.23837e+07
4.23859e+07
-6.19895e+07
6.19937e+07
1.56591e+06
-1.58092e+06
1.74514e+07
-6.11743e+07
-1.23254e+07
-3.43185e+07
-3.58973e+07
-7.40216e+06
1.08617e+06
-1.08668e+06
-1.76234e+07
-2.34323e+06
3.37182e+07
-3.86237e+07
3.86286e+07
3.03337e+07
-2.30706e+06
-4.69954e+07
6.79431e+07
-6.79395e+07
-4.14562e+07
6.55922e+06
-6.88938e+07
6.88976e+07
-2.87167e+07
-6.84928e+07
6.84957e+07
-5.65925e+07
-3.11039e+07
-3.88951e+07
-2.05626e+07
2.31306e+07
-2.32231e+07
8.77328e+07
1.96114e+07
5.04517e+07
-5.04476e+07
2.31846e+06
4.04697e+07
-4.04641e+07
6.85954e+06
7.51861e+07
-7.51824e+07
-2.40061e+07
2.40097e+07
-4.2142e+06
-2.27108e+07
2.27179e+07
-7.54826e+07
7.54862e+07
4.67089e+07
-2.74289e+07
-4.64918e+07
3.96732e+07
-3.96677e+07
4.6277e+07
-1.54301e+07
-4.12062e+07
4.12152e+07
1.02051e+07
8.77878e+07
-8.77745e+07
1.22836e+07
5.94705e+07
9.57172e+07
-9.57141e+07
-199736
201475
-3.81611e+06
8.48091e+07
-8.48049e+07
1.05466e+07
3.94437e+07
-3.94372e+07
3.96746e+06
-3.9671e+06
-1.20178e+06
3.86227e+07
8.72819e+07
-8.72687e+07
-1.11098e+08
1.11103e+08
3.57209e+07
4.17065e+06
-5.09145e+06
5.09166e+06
2.57341e+07
-24852.9
24773.6
-1.02344e+08
1.02347e+08
-2.74905e+07
8.16394e+06
-8.16282e+06
1.23065e+07
-8.76005e+07
8.76049e+07
-2.28819e+07
-1.19578e+07
-9.65075e+07
9.65112e+07
-8.7677e+07
8.76881e+07
-2.69081e+07
2.40704e+06
-6.40604e+07
2.99917e+07
-1.97874e+07
-1.02253e+07
3.30888e+07
3.65664e+07
-4.18725e+07
4.19344e+07
-7.842e+07
7.8424e+07
9.61636e+07
-9.61602e+07
7.69332e+07
-4.0453e+07
-9.0344e+06
3.31611e+06
-9.06547e+07
-3.96221e+07
6.25153e+07
5.81697e+07
-6.3142e+07
5.27284e+07
-5.27251e+07
-3.1428e+07
3.14325e+07
7.81509e+06
-1.10671e+07
-3.86127e+07
1.86523e+06
-3.97214e+06
3.22229e+07
-3.53759e+07
-1.49758e+07
4.22431e+07
-4.22384e+07
933243
-4.72671e+07
4.7272e+07
-1.95558e+07
-9.88537e+07
9.88679e+07
-9.26599e+07
9.2667e+07
-1.40548e+07
-6.95397e+07
6.95429e+07
1.17416e+08
-1.17411e+08
7.75603e+07
-7.75565e+07
3.73949e+07
-3.73896e+07
8.54014e+07
2.06953e+07
2.6987e+07
-1.26292e+07
-3.28313e+07
3.28356e+07
-7.06696e+07
7.06728e+07
-2.44446e+07
2.40018e+07
-2.07379e+07
1.10674e+08
-1.1067e+08
4.12751e+07
-5.64515e+07
5.64538e+07
-3.23301e+07
-4.0369e+07
5.92984e+07
-1.79775e+07
3.75472e+07
-3.75037e+07
5.46783e+06
-4.21966e+07
3.88826e+07
813488
-813731
7.23727e+07
1.49174e+07
1.47812e+07
-2.1209e+07
-5.12787e+07
-8.3544e+07
2.00438e+07
1.2912e+07
-1.29091e+07
8.34338e+07
-8.34297e+07
4.25142e+07
-4.25086e+07
-2.33795e+07
2.01112e+07
1.93966e+07
1.12796e+07
-2.05705e+07
-7.07458e+07
2.60148e+07
2.84037e+07
1.24076e+07
-8.07645e+07
8.07365e+07
1.36255e+06
-1.36341e+06
2.2035e+07
1.76947e+07
-5.4975e+07
5.49755e+07
3.79634e+07
-3.7958e+07
1.02578e+08
-1.02575e+08
-2.63016e+07
-1.33959e+07
1.32878e+07
6.60208e+06
-7.47531e+07
7.56693e+07
-9.17173e+07
9.17208e+07
4.14545e+07
-1.59252e+06
6.87051e+07
-6.86939e+07
-4.42776e+07
4.40069e+07
3.27686e+07
-1.30508e+07
-4.24603e+07
-2.09668e+07
3.50485e+07
-3.49916e+07
5.35807e+07
-5.35759e+07
-6.17971e+07
9.11644e+07
-9.11605e+07
7.82118e+07
-7.82008e+07
8.40606e+07
3.63719e+07
-3.63401e+07
-2.29667e+07
2.29708e+07
1.30571e+07
-2.43235e+07
-4.94403e+07
-3.85253e+07
3.85316e+07
-4.46615e+06
4.46602e+06
2.20435e+06
4.88303e+07
-6.29688e+07
6.29716e+07
4.9749e+07
2.18808e+07
-1.09862e+08
1.09868e+08
2.10466e+07
5.85814e+07
-7.4269e+07
2.32396e+07
-6.55826e+07
-7.60715e+07
7.60752e+07
2.6303e+07
8.10802e+07
-8.10762e+07
1.52924e+07
2.63065e+07
6.55862e+07
-5.88107e+07
5.88135e+07
-3.02118e+07
3.21044e+07
-379560
9.45233e+07
-9.45197e+07
8.37307e+06
-1.41904e+07
5.44421e+07
-5.44376e+07
3.4197e+07
-3.53954e+07
3.51456e+07
3.82267e+06
2.57097e+06
-2.40676e+06
5.21218e+07
-5.21188e+07
1.09146e+07
-1.60269e+07
-3.54649e+07
6.62775e+07
-5.01369e+06
-1.80886e+07
-6.03799e+06
2.50882e+06
3.41068e+07
8.01339e+07
-2.75948e+07
7.63395e+07
-7.6328e+07
-3.61397e+07
1.18337e+06
-1.18374e+06
8.20177e+07
-8.20104e+07
2.80403e+07
-8.72052e+07
8.72143e+07
3.52564e+07
7.90605e+07
-1.12094e+07
-86783.9
86678
5.57744e+06
-7.06739e+07
7.0678e+07
-4.54839e+07
4.91523e+06
4.69316e+07
-571689
-7.68751e+07
3.62296e+07
-2.41983e+07
2.4204e+07
4.25247e+07
-4.25191e+07
-4.03686e+07
1.83358e+07
3.48883e+07
-7.91652e+07
7.91695e+07
-9.11161e+06
5.22561e+06
-5.22487e+06
-950774
-9.63577e+07
9.6361e+07
-1.36425e+07
2.35856e+07
-3.20638e+07
2.78422e+07
-2.79312e+07
4.44606e+07
-4.44557e+07
-3.21038e+07
3.50839e+07
-4.64702e+07
4.65838e+07
5.68517e+07
-3.9032e+07
-5.85676e+07
4.42146e+06
-7.24304e+07
-1.53147e+07
3.72732e+07
-3.72611e+07
-1.11424e+06
1.44254e+07
-1.44222e+07
7.8433e+07
-7.8436e+07
6.47894e+07
8.85498e+07
5.86279e+06
1.38381e+07
3.78452e+07
3.07439e+06
-7.35584e+07
-7.08488e+07
4.87449e+07
3.03041e+07
-4.04559e+07
-1.34787e+07
4.00915e+07
-5.08729e+07
5.08758e+07
5.1633e+07
-5.16301e+07
6.44499e+07
-6.5103e+07
2.87831e+07
-4.8364e+07
4.83687e+07
5.10898e+06
-5.36452e+07
5.38974e+07
-7.99248e+07
7.99286e+07
2.01572e+07
5.48602e+07
-1.17828e+07
-4.02713e+07
-7.22499e+07
9167.69
-9230.76
3.51523e+07
-1.90223e+07
2.30813e+07
-2.00793e+07
1.0743e+07
3.75775e+07
-3.7571e+07
-6.63657e+07
6.6368e+07
3.60366e+07
-7.66503e+07
9.89306e+07
-9.89273e+07
-5.91299e+07
5.91312e+07
3.15534e+07
2.2276e+07
2.53223e+07
3.27425e+07
5.66546e+07
-5.67786e+07
2.2726e+07
-5.068e+07
5.06738e+07
-3.47394e+07
3.47442e+07
5.36568e+07
2.23482e+07
-2.23447e+07
3.73176e+07
-3.73041e+07
4.84939e+07
-2.89157e+07
2.8801e+07
-1.77316e+07
1.55692e+07
1.79224e+06
-2.01978e+07
-3.5961e+07
3.69315e+06
-3.6896e+06
-3.01216e+07
3.5974e+07
-6.19715e+07
6.19757e+07
2.42993e+07
3.22446e+07
3.41107e+07
3.95627e+07
3.39601e+07
-3.39553e+07
4.21064e+07
-9.49859e+07
9.49952e+07
4.12633e+07
4.02986e+07
-2.00841e+07
-6.32459e+07
5.63727e+07
-5.63703e+07
1.98359e+07
4.72082e+07
3.86017e+07
-8.81803e+07
8.81835e+07
5.77833e+07
-5.77651e+07
2.97757e+07
-3.15717e+07
-2.61664e+07
-6.98784e+06
2.68495e+07
2.33819e+07
3.13365e+07
-2.91221e+07
3.4013e+06
-4.05042e+06
-6.68802e+07
6.68829e+07
8.24312e+06
1.00973e+08
-7.24466e+07
7.245e+07
6.48918e+07
-4.62122e+07
3.86864e+07
-3.20232e+07
4.62359e+07
-9.33788e+07
9.33818e+07
1.33822e+07
4.81135e+07
-6.97435e+07
6.97468e+07
3.99317e+07
-3.4433e+07
5.55967e+07
7827.15
-7701.34
3.42828e+07
8.35084e+07
-8.35002e+07
3.33502e+07
-2.32192e+06
2.84778e+07
6.65339e+07
-5.38973e+07
-2.43717e+06
-1.00963e+08
57220.9
-57363.4
-2.18314e+07
4.72066e+07
1.55252e+07
87376.8
-85650.6
4.37673e+07
-6.31765e+07
6.31798e+07
1.0398e+08
-1.03972e+08
-3.31909e+07
3.31956e+07
3.88e+07
1.91526e+06
-1.90017e+06
-3.93272e+07
-1.93702e+07
2.75446e+07
2.95853e+06
-3.50997e+07
-3.29779e+07
7.42784e+07
-7.42902e+07
-7.08621e+07
7.08661e+07
-9.21819e+06
-3.64576e+07
-9.03698e+07
2.37052e+07
-4.51413e+07
-1.36311e+06
4.24599e+07
4.41144e+07
1.03946e+08
-1.03933e+08
-7.09427e+07
-2.57642e+07
-5.44959e+07
5.45033e+07
-1.17778e+07
-3.27966e+06
1.02854e+06
3.15624e+07
12932.7
-12855.6
-1.73801e+07
8.81543e+06
-8.81592e+06
-693431
-9.17217e+07
9.17283e+07
-1.56342e+07
-3.99129e+07
5.27815e+07
3.99283e+07
-7.38098e+07
7.37705e+07
1.71882e+07
-2.06294e+07
-3.71482e+07
4.98642e+06
-9.08846e+07
9.08913e+07
4.79293e+07
-4.80162e+07
-9.21008e+07
1.47998e+07
-1.0996e+08
1.09968e+08
2.0074e+07
-2.00705e+07
-3.52665e+07
7.33108e+07
-1.00205e+07
-5.89415e+07
5.89422e+07
1.00075e+08
-1.00072e+08
-1.00159e+06
-5.70349e+06
4.26702e+07
8.67202e+07
3.52728e+07
2.20414e+07
-6.76284e+07
6.76317e+07
-1.65288e+07
2.7742e+07
-4.20346e+07
-6.45127e+07
-1.64257e+07
-4.04827e+07
6.13898e+07
-6.13857e+07
8.14548e+07
-9.87065e+07
9.87098e+07
118556
-118223
4.75239e+07
3.84347e+07
1.01235e+08
-4.69063e+07
-5.40296e+07
5.40301e+07
-5.47821e+07
3.61691e+07
-7.54728e+07
3.44722e+07
-1.75309e+07
-1.05458e+08
1.05462e+08
-6.91164e+07
-5.12806e+07
5.12866e+07
-1.1119e+08
1.11198e+08
-1.01222e+08
-12956.2
12920.1
3.27564e+07
-1.08727e+08
1.0873e+08
-5.75636e+07
5.7568e+07
-3.83182e+06
3.8314e+06
5.32223e+07
1.72673e+07
7.92331e+07
-7.92293e+07
-1.48788e+07
-2.20892e+07
6.64145e+07
-6.64111e+07
-4.1025e+07
-3.00676e+07
8.38155e+07
-8.38111e+07
-3.4798e+07
9.85205e+06
-9.84908e+06
5.68369e+07
110991
-3.00426e+07
1.06876e+08
-1.06863e+08
7.67705e+07
5.28394e+07
-5.28362e+07
-3.96641e+07
3.9671e+07
3.64055e+06
-3.64056e+06
1.77873e+07
6.75894e+07
-6.44036e+06
6.44057e+06
-6.14317e+07
6.14358e+07
-2.07427e+07
7.15182e+06
2.74291e+07
5.4782e+07
1.58802e+07
1.19758e+07
7.55947e+07
-7.55839e+07
7.66616e+07
-7.66577e+07
-1.1661e+08
1.16617e+08
-3.18738e+07
-3.60517e+07
3.5716e+07
7.42133e+07
-7.42092e+07
-2.93237e+07
-276258
277111
-1.54085e+07
-5.7988e+07
3.83832e+07
-3.83884e+07
-8.91631e+07
2.27913e+07
-4.66749e+07
-9.83243e+07
9.83273e+07
-3.07446e+07
-3.79927e+07
3.80154e+07
2.06045e+06
2.79254e+07
-2.475e+06
-5.56846e+07
-6.89831e+07
6.89945e+07
-8.41615e+06
-3.15839e+07
9.73372e+07
-4.49965e+07
4.50019e+07
1.84596e+07
7.67816e+07
-7.67778e+07
1.08558e+06
-2.32057e+07
-2.35004e+07
6.37292e+06
-1.65488e+07
7.14542e+06
-7.65513e+07
7.65549e+07
7.38706e+07
-7.38638e+07
-1.29851e+07
-9.45132e+07
9.45173e+07
-6.63826e+06
1.40179e+07
6.62855e+06
-2.96912e+07
2.96903e+07
3.40078e+07
-2.95036e+07
1.71627e+07
5.85924e+06
-3.27281e+07
2.53983e+07
7.36051e+07
-7.35994e+07
-1.88234e+07
-3.39535e+07
6.11558e+07
-2.49592e+07
-8.46735e+07
-6.83261e+07
-2.41057e+07
1.57602e+07
7.31279e+06
1.35174e+07
-1.03102e+08
1.03106e+08
-1.00468e+08
1.00472e+08
2.78459e+06
2.56924e+06
-2.58516e+06
-4.20478e+07
-1.88332e+07
3.2751e+07
-4.17806e+06
8.29831e+06
-7.58269e+07
-7.22747e+06
3.27651e+06
-1.02671e+08
1.02675e+08
-2.19517e+07
6.90574e+06
8.11269e+07
2.12685e+07
-2.12648e+07
-6.94282e+07
8.43318e+07
1.95636e+07
5.92798e+07
2.47856e+07
-5.31528e+07
5.9335e+06
-6.37734e+06
-1.98211e+07
519749
-1.06428e+08
1.06431e+08
2.99321e+06
-2.97791e+06
2.78857e+07
4.88459e+06
5.39661e+07
-5.39379e+07
2.42881e+07
-1.91482e+07
2.422e+07
-6.14388e+07
6.14426e+07
8.12382e+07
-6.14485e+06
4.9526e+07
-3.40116e+07
1.17773e+06
-6.50663e+07
2.11646e+06
-3.88896e+07
-645942
3.34352e+06
2.66044e+07
2.68256e+06
2.48154e+07
-4.79339e+07
1.01914e+08
-1.01911e+08
-4.58531e+07
4.5852e+07
2.82294e+07
-2.82592e+07
1.07587e+07
-5.6304e+07
4.19236e+07
-3.22492e+07
3.22534e+07
-7.99555e+07
3.15815e+07
-2.58046e+06
4.22719e+07
-3.94571e+07
-2.56653e+07
-1.42703e+07
-2.37215e+06
2.39303e+06
-4.05056e+07
4.05119e+07
-3.79234e+06
3.79214e+06
6.03291e+07
-5.5063e+07
2.59735e+07
-1.57298e+07
-3.18812e+07
2.54564e+07
776211
-3.10561e+06
-5.51148e+06
-2.83324e+07
5.47774e+07
-2.31824e+06
1.22639e+07
5.00773e+07
7.34179e+07
-7.34296e+07
4.60975e+07
-3.58547e+06
-1.1517e+07
7.82903e+07
-7.82866e+07
7.12584e+07
-7.12547e+07
-3.61735e+07
-1.51952e+07
-2.6911e+07
-3.33574e+07
3.35842e+07
3.14435e+07
-3.01786e+07
-8.95992e+06
-2.97535e+07
-1.88186e+07
1.83872e+07
-9.84015e+06
-8.54369e+06
1.31499e+06
-1.31958e+06
1.26463e+07
-4.83199e+07
6.19228e+07
-1.44067e+07
-4.85585e+07
4.85537e+07
-9.01012e+07
5.39226e+07
-5.39185e+07
413996
-413047
3.43768e+07
7.60644e+07
-7.60606e+07
148591
-3.89668e+07
890945
2.27354e+06
-2.13615e+07
2.13318e+07
-6.5678e+07
6.56813e+07
-2.06606e+07
5.62952e+06
4.8331e+07
8.92415e+07
-8.92317e+07
7.72797e+07
-7.72759e+07
3.59833e+06
-4.90866e+07
4.90878e+07
3.61844e+07
2.93813e+07
-8.67426e+07
8.67464e+07
1.33711e+07
-3.09574e+07
-3.54653e+07
1.19896e+07
-37108.3
36983.1
-5.9145e+07
5.91486e+07
-4.9831e+07
4.98356e+07
3.09347e+06
-3.09378e+06
-2.53016e+07
1.07945e+06
-1.07981e+06
-5.35496e+07
-7.43527e+07
3.43037e+07
5.50797e+07
-5.50754e+07
6.45755e+06
-6.24471e+07
5.9021e+06
-5.79203e+06
-6.82805e+07
-4.29724e+07
4.29781e+07
-3.05199e+07
-1.82253e+07
-6.77123e+07
-9.68509e+07
9.68619e+07
6.17209e+07
7.19368e+07
-7.19294e+07
4.85281e+07
-4.85261e+07
-27751.2
27660.4
3.20921e+07
3.74412e+07
2.11936e+07
9.66629e+07
3.58931e+07
3.85041e+07
-3.20773e+07
-3.15592e+07
9.56896e+07
-9.56858e+07
4.32676e+06
8.58094e+07
-8.5806e+07
-3.85175e+07
-4.76246e+07
4.76252e+07
-8.3436e+07
3.71605e+07
-8.32743e+07
8.32784e+07
-7.54291e+07
3.73356e+07
5.42311e+07
2.6955e+07
3.02054e+07
-6.63851e+07
6.63886e+07
2.97993e+07
-2.97916e+07
-1.59238e+07
-2.754e+06
8.16776e+07
3.06156e+07
-7.86754e+06
-4.40521e+07
4.41815e+07
-1.43621e+07
-1.09737e+08
1.09741e+08
-8.03162e+07
8.03202e+07
7.51597e+06