0 	28.1319 	-0.0240363 	5.51052e-14
0.000254254 	28.1319 	-0.0240088 	2.80799e-12
0.000508509 	28.1319 	-0.0239812 	5.56087e-12
0.000762763 	28.1349 	-0.0241158 	-6.39362e-06
0.00101702 	28.1401 	-0.024373 	-1.76233e-05
0.00127127 	28.1453 	-0.0246303 	-2.88529e-05
0.00152553 	28.1505 	-0.0248875 	-1.86649e-05
0.00177978 	28.1557 	-0.0251447 	-7.4443e-06
0.00203403 	28.1626 	-0.02544 	5.77444e-12
0.00228829 	28.1731 	-0.0258103 	3.01362e-12
0.00254254 	28.1835 	-0.0261806 	2.528e-13
0.0027968 	28.1939 	-0.0259492 	2.49487e-12
0.00305105 	28.2044 	-0.0256571 	5.24131e-12
0.00330531 	28.2159 	-0.0255954 	-3.87074e-06
0.00355956 	28.2285 	-0.0257787 	-1.18595e-05
0.00381381 	28.2411 	-0.0259621 	-1.98482e-05
0.00406807 	28.2537 	-0.0261455 	-1.40741e-05
0.00432232 	28.2662 	-0.0263288 	-6.09991e-06
0.00457658 	28.2794 	-0.026595 	5.99224e-12
0.00483083 	28.2941 	-0.0271306 	3.24746e-12
0.00508509 	28.3089 	-0.0276662 	5.02679e-13
0.00533934 	28.3237 	-0.0275989 	2.82528e-12
0.00559359 	28.3386 	-0.0273966 	6.28411e-12
0.00584785 	28.3536 	-0.0274327 	-6.81177e-06
0.0061021 	28.3686 	-0.027817 	-2.35714e-05
0.00635636 	28.3837 	-0.0282013 	-4.03309e-05
0.00661061 	28.3987 	-0.0285856 	-3.13103e-05
0.00686486 	28.4138 	-0.0289699 	-1.46014e-05
0.00711912 	28.4289 	-0.0293957 	7.85985e-12
0.00737337 	28.4441 	-0.0301087 	4.4045e-12
0.00762763 	28.4593 	-0.0308216 	9.49162e-13
0.00788188 	28.4747 	-0.030913 	2.54768e-12
0.00813614 	28.4902 	-0.030769 	6.06036e-12
0.00839039 	28.5058 	-0.0308593 	-8.10739e-06
0.00864464 	28.5216 	-0.0314123 	-3.22327e-05
0.0088989 	28.5375 	-0.0319653 	-5.63581e-05
0.00915315 	28.5533 	-0.0325183 	-4.78195e-05
0.00940741 	28.5691 	-0.0330714 	-2.37962e-05
0.00966166 	28.5849 	-0.0336275 	8.30002e-12
0.00991592 	28.6011 	-0.0345059 	4.79229e-12
0.0101702 	28.6173 	-0.0353844 	1.28456e-12
0.0104244 	28.6337 	-0.0356216 	2.7726e-12
0.0106787 	28.6502 	-0.0354881 	7.14741e-12
0.0109329 	28.667 	-0.0355763 	-8.07856e-06
0.0111872 	28.6844 	-0.0362536 	-3.76292e-05
0.0114414 	28.7018 	-0.036931 	-6.71799e-05
0.0116957 	28.7193 	-0.0376084 	-6.21612e-05
0.0119499 	28.7367 	-0.0382857 	-3.27709e-05
0.0122042 	28.7541 	-0.0389631 	-3.38066e-06
0.0124585 	28.7723 	-0.0399547 	6.36552e-12
0.0127127 	28.7907 	-0.0409871 	1.99864e-12
0.012967 	28.8092 	-0.0413724 	2.69877e-12
0.0132212 	28.8279 	-0.0412114 	7.67533e-12
0.0134755 	28.8469 	-0.0412532 	-7.30701e-06
0.0137297 	28.8669 	-0.0420201 	-4.07567e-05
0.013984 	28.8869 	-0.042787 	-7.42064e-05
0.0142382 	28.9069 	-0.043554 	-7.46758e-05
0.0144925 	28.9269 	-0.0443209 	-4.14477e-05
0.0147467 	28.9469 	-0.0450878 	-8.21963e-06
0.015001 	28.9679 	-0.0461638 	7.69211e-12
0.0152553 	28.9892 	-0.0473414 	2.72657e-12
0.0155095 	29.0107 	-0.0478911 	2.18577e-12
0.0157638 	29.0324 	-0.0476761 	7.03354e-12
0.016018 	29.0543 	-0.0476405 	-6.215e-06
0.0162723 	29.0775 	-0.0484728 	-4.24984e-05
0.0165265 	29.1006 	-0.0493051 	-7.87817e-05
0.0167808 	29.1238 	-0.0501373 	-8.59544e-05
0.017035 	29.1469 	-0.0509696 	-4.99546e-05
0.0172893 	29.1701 	-0.0518019 	-1.39548e-05
0.0175435 	29.1942 	-0.0529309 	7.93171e-12
0.0177978 	29.2188 	-0.0542477 	3.09661e-12
0.0180521 	29.2436 	-0.0549877 	1.72414e-12
0.0183063 	29.2686 	-0.0547005 	6.51959e-12
0.0185606 	29.2939 	-0.0545675 	-5.0694e-06
0.0188148 	29.3205 	-0.0554494 	-4.34881e-05
0.0190691 	29.3471 	-0.0563312 	-8.19067e-05
0.0193233 	29.3737 	-0.0572131 	-9.65487e-05
0.0195776 	29.4004 	-0.058095 	-5.84758e-05
0.0198318 	29.427 	-0.0589769 	-2.0403e-05
0.0200861 	29.4543 	-0.0601236 	8.27934e-12
0.0203403 	29.4825 	-0.0615763 	3.49832e-12
0.0205946 	29.5108 	-0.0625395 	1.27827e-12
0.0208488 	29.5394 	-0.0621678 	6.0432e-12
0.0211031 	29.5682 	-0.0619261 	-4.03234e-06
0.0213574 	29.5985 	-0.0628481 	-4.41622e-05
0.0216116 	29.6288 	-0.0637701 	-8.42921e-05
0.0218659 	29.6591 	-0.0646921 	-0.000106939
0.0221201 	29.6894 	-0.065614 	-6.72174e-05
0.0223744 	29.7196 	-0.066536 	-2.7496e-05
0.0226286 	29.7504 	-0.0676629 	8.65637e-12
0.0228829 	29.7823 	-0.0692505 	3.90767e-12
0.0231371 	29.8143 	-0.0704747 	8.40082e-13
0.0233914 	29.8467 	-0.0700099 	5.58396e-12
0.0236456 	29.8792 	-0.0696545 	-3.20341e-06
0.0238999 	29.9133 	-0.0706121 	-4.48377e-05
0.0241542 	29.9474 	-0.0715696 	-8.64721e-05
0.0244084 	29.9815 	-0.0725272 	-0.000117587
0.0246627 	30.0156 	-0.0734848 	-7.64255e-05
0.0249169 	30.0497 	-0.0744423 	-3.52636e-05
0.0251712 	30.084 	-0.0755098 	9.04519e-12
0.0254254 	30.1198 	-0.0772348 	4.31932e-12
0.0256797 	30.1556 	-0.0787623 	4.06718e-13
0.0259339 	30.1919 	-0.0781923 	5.13569e-12
0.0261882 	30.2283 	-0.0777184 	-2.64956e-06
0.0264424 	30.2664 	-0.0787122 	-4.58063e-05
0.0266967 	30.3044 	-0.079706 	-8.89631e-05
0.026951 	30.3425 	-0.0806998 	-0.000129105
0.0272052 	30.3806 	-0.0816937 	-8.64885e-05
0.0274595 	30.4187 	-0.0826875 	-4.38716e-05
0.0277137 	30.4567 	-0.0836813 	-1.25467e-06
0.027968 	30.4965 	-0.08553 	4.73247e-12
0.0282222 	30.5364 	-0.0874046 	2.32978e-14
0.0284765 	30.5767 	-0.0867031 	4.69644e-12
0.0287307 	30.6171 	-0.086083 	-2.41202e-06
0.028985 	30.6593 	-0.0871151 	-4.71536e-05
0.0292392 	30.7015 	-0.0881472 	-9.18952e-05
0.0294935 	30.7438 	-0.0891793 	-0.000136637
0.0297477 	30.786 	-0.0902114 	-9.75515e-05
0.030002 	30.8282 	-0.0912435 	-5.3421e-05
0.0302563 	30.8704 	-0.0922756 	-9.29047e-06
0.0305105 	30.914 	-0.0941232 	5.14844e-12
0.0307648 	30.9581 	-0.0961882 	4.50128e-13
0.031019 	31.0026 	-0.0955441 	4.96975e-12
0.0312733 	31.0472 	-0.0947222 	-2.52166e-06
0.0315275 	31.0937 	-0.095791 	-4.87361e-05
0.0317818 	31.1402 	-0.0968599 	-9.49505e-05
0.032036 	31.1867 	-0.0979288 	-0.000141165
0.0322903 	31.2332 	-0.0989976 	-0.000109276
0.0325445 	31.2798 	-0.100066 	-6.37453e-05
0.0327988 	31.3263 	-0.101135 	-1.82147e-05
0.0330531 	31.3739 	-0.102957 	6.48948e-12
0.0333073 	31.4223 	-0.105281 	1.02025e-12
0.0335616 	31.4711 	-0.104746 	3.90731e-12
0.0338158 	31.5202 	-0.1037 	-3.01599e-06
0.0340701 	31.5711 	-0.104804 	-5.05611e-05
0.0343243 	31.6221 	-0.105907 	-9.81063e-05
0.0345786 	31.673 	-0.10701 	-0.000145651
0.0348328 	31.724 	-0.108113 	-0.000121562
0.0350871 	31.7749 	-0.109217 	-7.4774e-05
0.0353413 	31.8259 	-0.11032 	-2.79857e-05
0.0355956 	31.8776 	-0.112033 	6.10198e-12
0.0358498 	31.9306 	-0.114655 	1.32414e-12
0.0361041 	31.9839 	-0.114316 	3.8072e-12
0.0363584 	32.0375 	-0.113052 	-3.9322e-06
0.0366126 	32.0931 	-0.114188 	-5.27194e-05
0.0368669 	32.1487 	-0.115324 	-0.000101507
0.0371211 	32.2042 	-0.116461 	-0.000150294
0.0373754 	32.2598 	-0.117597 	-0.000134512
0.0376296 	32.3154 	-0.118733 	-8.65549e-05
0.0378839 	32.3709 	-0.11987 	-3.85983e-05
0.0381381 	32.4269 	-0.121358 	7.1621e-12
0.0383924 	32.4845 	-0.124297 	1.92512e-12
0.0386466 	32.5425 	-0.124258 	3.78364e-12
0.0389009 	32.6009 	-0.1228 	-5.30108e-06
0.0391552 	32.6613 	-0.123968 	-5.52458e-05
0.0394094 	32.7216 	-0.125136 	-0.000105191
0.0396637 	32.782 	-0.126304 	-0.000155135
0.0399179 	32.8423 	-0.127472 	-0.000148118
0.0401722 	32.9027 	-0.128641 	-9.90776e-05
0.0404264 	32.9631 	-0.129809 	-5.00376e-05
0.0406807 	33.0234 	-0.130977 	-9.97621e-07
0.0409349 	33.0858 	-0.1342 	2.72316e-12
0.0411892 	33.1486 	-0.134586 	3.76258e-12
0.0414434 	33.212 	-0.132994 	-7.14267e-06
0.0416977 	33.2774 	-0.134191 	-5.81187e-05
0.041952 	33.3427 	-0.135388 	-0.000109095
0.0422062 	33.408 	-0.136585 	-0.000160071
0.0424605 	33.4733 	-0.137782 	-0.000162228
0.0427147 	33.5387 	-0.138979 	-0.00011223
0.042969 	33.604 	-0.140177 	-6.22321e-05
0.0432232 	33.6693 	-0.141374 	-1.22339e-05
0.0434775 	33.7363 	-0.144364 	3.77999e-12
0.0437317 	33.8041 	-0.145278 	3.14631e-12
0.043986 	33.8727 	-0.143614 	-9.47728e-06
0.0442402 	33.9432 	-0.144838 	-6.13786e-05
0.0444945 	34.0137 	-0.146062 	-0.00011328
0.0447487 	34.0841 	-0.147286 	-0.000165181
0.045003 	34.1546 	-0.14851 	-0.000176859
0.0452573 	34.2251 	-0.149734 	-0.000126007
0.0455115 	34.2956 	-0.150958 	-7.5156e-05
0.0457658 	34.3661 	-0.152182 	-2.43046e-05
0.04602 	34.4377 	-0.15478 	4.41285e-12
0.0462743 	34.5107 	-0.156316 	2.26102e-12
0.0465285 	34.5847 	-0.154649 	-1.23345e-05
0.0467828 	34.6605 	-0.155899 	-6.51224e-05
0.047037 	34.7364 	-0.157149 	-0.00011791
0.0472913 	34.8122 	-0.158399 	-0.000170698
0.0475455 	34.888 	-0.159649 	-0.00019221
0.0477998 	34.9639 	-0.160899 	-0.000140544
0.0480541 	35.0397 	-0.16215 	-8.88772e-05
0.0483083 	35.1155 	-0.1634 	-3.72108e-05
0.0485626 	35.192 	-0.165455 	4.51616e-12
0.0488168 	35.2704 	-0.1677 	1.58898e-12
0.0490711 	35.35 	-0.1661 	-1.57218e-05
0.0493253 	35.4314 	-0.167374 	-6.93185e-05
0.0495796 	35.5128 	-0.168649 	-0.000122915
0.0498338 	35.5941 	-0.169923 	-0.000176512
0.0500881 	35.6755 	-0.171198 	-0.000208128
0.0503423 	35.7569 	-0.172472 	-0.000155723
0.0505966 	35.8383 	-0.173747 	-0.000103318
0.0508509 	35.9197 	-0.175021 	-5.09126e-05
0.0511051 	36.0011 	-0.176384 	4.7411e-12
0.0513594 	36.085 	-0.179419 	1.06466e-12
0.0516136 	36.1705 	-0.177958 	-1.96281e-05
0.0518679 	36.2576 	-0.179254 	-7.39025e-05
0.0521221 	36.3448 	-0.18055 	-0.000128177
0.0523764 	36.4319 	-0.181846 	-0.000182451
0.0526306 	36.519 	-0.183142 	-0.000224358
0.0528849 	36.6061 	-0.184438 	-0.000171342
0.0531391 	36.6933 	-0.185734 	-0.000118326
0.0533934 	36.7804 	-0.18703 	-6.53101e-05
0.0536476 	36.8675 	-0.188326 	-1.22939e-05
0.0539019 	36.9566 	-0.191454 	4.78492e-13
0.0541562 	37.0482 	-0.190205 	-2.40209e-05
0.0544104 	37.1412 	-0.191519 	-7.87881e-05
0.0546647 	37.2343 	-0.192832 	-0.000133555
0.0549189 	37.3274 	-0.194146 	-0.000188323
0.0551732 	37.4205 	-0.19546 	-0.000240585
0.0554274 	37.5135 	-0.196773 	-0.000187137
0.0556817 	37.6066 	-0.198087 	-0.00013369
0.0559359 	37.6997 	-0.1994 	-8.02419e-05
0.0561902 	37.7927 	-0.200714 	-2.67943e-05
0.0564444 	37.8871 	-0.203773 	1.73576e-14
0.0566987 	37.985 	-0.202812 	-2.88326e-05
0.056953 	38.0842 	-0.204138 	-8.38394e-05
0.0572072 	38.1834 	-0.205463 	-0.000138846
0.0574615 	38.2826 	-0.206789 	-0.000193853
0.0577157 	38.3818 	-0.208114 	-0.00024886
0.05797 	38.481 	-0.20944 	-0.000202722
0.0582242 	38.5803 	-0.210765 	-0.000149088
0.0584785 	38.6795 	-0.212091 	-9.54546e-05
0.0587327 	38.7787 	-0.213416 	-4.1821e-05
0.058987 	38.8785 	-0.215574 	4.42089e-13
0.0592412 	38.9829 	-0.215736 	-3.39885e-05
0.0594955 	39.0884 	-0.217068 	-8.89611e-05
0.0597497 	39.194 	-0.218399 	-0.000143934
0.060004 	39.2995 	-0.219731 	-0.000198906
0.0602583 	39.405 	-0.221062 	-0.000253879
0.0605125 	39.5106 	-0.222394 	-0.000217814
0.0607668 	39.6161 	-0.223725 	-0.000164259
0.061021 	39.7217 	-0.225057 	-0.000110704
0.0612753 	39.8272 	-0.226388 	-5.71482e-05
0.0615295 	39.9328 	-0.22772 	-3.59276e-06
0.0617838 	40.0437 	-0.228933 	-3.94574e-05
0.062038 	40.1557 	-0.230266 	-9.41954e-05
0.0622923 	40.2678 	-0.2316 	-0.000148933
0.0625465 	40.3798 	-0.232933 	-0.000203671
0.0628008 	40.4919 	-0.234266 	-0.000258409
0.0630551 	40.6039 	-0.235513 	-0.000231553
0.0633093 	40.7159 	-0.236684 	-0.000176504
0.0635636 	40.8278 	-0.237855 	-0.000121456
0.0638178 	40.9398 	-0.239026 	-6.64082e-05
0.0640721 	41.0517 	-0.240198 	-1.13601e-05
0.0643263 	41.1686 	-0.241425 	-3.55621e-05
0.0645806 	41.2872 	-0.242582 	-8.81114e-05
0.0648348 	41.4058 	-0.24374 	-0.000140661
0.0650891 	41.5245 	-0.244897 	-0.00019321
0.0653433 	41.6431 	-0.246054 	-0.000245759
0.0655976 	41.7617 	-0.247211 	-0.00022777
0.0658519 	41.8804 	-0.248369 	-0.000173151
0.0661061 	41.999 	-0.249526 	-0.000118531
0.0663604 	42.1176 	-0.250683 	-6.39109e-05
0.0666146 	42.2362 	-0.25184 	-9.29112e-06
0.0668689 	42.3593 	-0.253206 	-2.4168e-05
0.0671231 	42.4847 	-0.254362 	-7.68261e-05
0.0673774 	42.6102 	-0.255519 	-0.000129484
0.0676316 	42.7356 	-0.256676 	-0.000182142
0.0678859 	42.8611 	-0.257832 	-0.000234801
0.0681401 	42.9865 	-0.258989 	-0.000226201
0.0683944 	43.112 	-0.260146 	-0.00017142
0.0686486 	43.2374 	-0.261302 	-0.000116638
0.0689029 	43.3629 	-0.262459 	-6.18557e-05
0.0691572 	43.4883 	-0.263616 	-7.07382e-06
0.0694114 	43.6177 	-0.265171 	-1.24809e-05
0.0696657 	43.7501 	-0.26633 	-6.52803e-05
0.0699199 	43.8826 	-0.267488 	-0.00011808
0.0701742 	44.015 	-0.268647 	-0.000170879
0.0704284 	44.1474 	-0.269805 	-0.000223678
0.0706827 	44.2799 	-0.270964 	-0.000224486
0.0709369 	44.4123 	-0.272123 	-0.000169514
0.0711912 	44.5448 	-0.273281 	-0.000114543
0.0714454 	44.6772 	-0.27444 	-5.95714e-05
0.0716997 	44.8096 	-0.275598 	-4.59987e-06
0.071954 	44.9454 	-0.277393 	-4.76439e-07
0.0722082 	45.0849 	-0.278522 	-5.19381e-05
0.0724625 	45.2244 	-0.27965 	-0.0001034
0.0727167 	45.364 	-0.280779 	-0.000154861
0.072971 	45.5035 	-0.281908 	-0.000206323
0.0732252 	45.643 	-0.283036 	-0.000216279
0.0734795 	45.7825 	-0.284165 	-0.000162666
0.0737337 	45.9221 	-0.285294 	-0.000109053
0.073988 	46.0616 	-0.286422 	-5.54396e-05
0.0742422 	46.2011 	-0.287551 	-1.82633e-06
0.0744965 	46.344 	-0.289316 	5.66991e-05
0.0747508 	46.49 	-0.290662 	-3.83628e-05
0.075005 	46.6366 	-0.291744 	-8.76786e-05
0.0752593 	46.7832 	-0.292826 	-0.000136994
0.0755135 	46.9298 	-0.293908 	-0.00018631
0.0757678 	47.0764 	-0.29499 	-0.000204619
0.076022 	47.223 	-0.296072 	-0.000153216
0.0762763 	47.3696 	-0.297154 	-0.000101813
0.0765305 	47.5162 	-0.298236 	-5.04096e-05
0.0767848 	47.6629 	-0.299311 	5.42266e-06
0.077039 	47.8128 	-0.300689 	0.000124273
0.0772933 	47.9651 	-0.302615 	-2.42524e-05
0.0775475 	48.1187 	-0.303596 	-6.89397e-05
0.0778018 	48.2723 	-0.304577 	-0.000113627
0.0780561 	48.4259 	-0.305558 	-0.000158314
0.0783103 	48.5795 	-0.306539 	-0.000182835
0.0785646 	48.7331 	-0.30752 	-0.00013624
0.0788188 	48.8867 	-0.308501 	-8.96456e-05
0.0790731 	49.0403 	-0.309482 	-4.30511e-05
0.0793273 	49.1941 	-0.310357 	2.25627e-05
0.0795816 	49.3508 	-0.31082 	0.000199959
0.0798358 	49.5094 	-0.313782 	-1.21285e-05
0.0800901 	49.6698 	-0.314659 	-5.2002e-05
0.0803443 	49.8302 	-0.315536 	-9.18755e-05
0.0805986 	49.9906 	-0.316413 	-0.000131749
0.0808529 	50.151 	-0.31729 	-0.000160691
0.0811071 	50.3114 	-0.318166 	-0.000119109
0.0813614 	50.4718 	-0.319043 	-7.75274e-05
0.0816156 	50.6322 	-0.31992 	-3.59458e-05
0.0818699 	50.7929 	-0.320468 	4.21362e-05
0.0821241 	50.9562 	-0.319651 	0.000282172
0.0823784 	51.1207 	-0.32419 	-2.30199e-06
0.0826326 	51.2876 	-0.325 	-3.89152e-05
0.0828869 	51.4545 	-0.32581 	-7.55284e-05
0.0831411 	51.6214 	-0.326621 	-0.000112142
0.0833954 	51.7883 	-0.327431 	-0.000145193
0.0836496 	51.9553 	-0.328241 	-0.000107013
0.0839039 	52.1222 	-0.329052 	-6.88328e-05
0.0841582 	52.2891 	-0.329862 	-3.06528e-05
0.0844124 	52.4565 	-0.329967 	6.4618e-05
0.0846667 	52.626 	-0.327424 	0.000374795
0.0849209 	52.7967 	-0.332966 	5.73063e-05
0.0851752 	52.9693 	-0.334532 	-2.5524e-05
0.0854294 	53.1423 	-0.335223 	-5.66698e-05
0.0856837 	53.3153 	-0.335913 	-8.78156e-05
0.0859379 	53.4884 	-0.336603 	-0.000118961
0.0861922 	53.6614 	-0.337294 	-8.89639e-05
0.0864464 	53.8344 	-0.337984 	-5.64938e-05
0.0867007 	54.0074 	-0.338674 	-2.40238e-05
0.086955 	54.1811 	-0.338178 	8.90356e-05
0.0872092 	54.3566 	-0.334306 	0.000431315
0.0874635 	54.5331 	-0.339818 	0.000140993
0.0877177 	54.7109 	-0.342691 	-1.22786e-05
0.087972 	54.8895 	-0.343161 	-3.36376e-05
0.0882262 	55.0682 	-0.343631 	-5.49966e-05
0.0884805 	55.2469 	-0.344101 	-7.63556e-05
0.0887347 	55.4256 	-0.344571 	-5.95662e-05
0.088989 	55.6042 	-0.34504 	-3.73102e-05
0.0892432 	55.7829 	-0.34551 	-1.50541e-05
0.0894975 	55.9623 	-0.344224 	0.000112491
0.0897518 	56.1433 	-0.339265 	0.000460118
0.090006 	56.325 	-0.343888 	0.000225812
0.0902603 	56.5074 	-0.34818 	-2.97967e-06
0.0905145 	56.6911 	-0.348369 	-1.20115e-05
0.0907688 	56.8749 	-0.348558 	-2.10433e-05
0.091023 	57.0586 	-0.348746 	-3.00751e-05
0.0912773 	57.2423 	-0.348935 	-2.45768e-05
0.0915315 	57.426 	-0.349124 	-1.51728e-05
0.0917858 	57.6097 	-0.349313 	-5.7687e-06
0.09204 	57.7942 	-0.347152 	0.000133906
0.0922943 	57.98 	-0.341264 	0.000480303
0.0925485 	58.1663 	-0.344597 	0.000307228
0.0928028 	58.3528 	-0.350284 	1.20665e-07
0.0930571 	58.5407 	-0.350233 	1.52843e-06
0.0933113 	58.7286 	-0.350183 	2.93619e-06
0.0935656 	58.9166 	-0.350132 	4.34395e-06
0.0938198 	59.1045 	-0.350081 	3.73696e-06
0.0940741 	59.2925 	-0.35003 	2.27269e-06
0.0943283 	59.4804 	-0.349979 	8.08408e-07
0.0945826 	59.6691 	-0.34702 	0.000154492
0.0948368 	59.8588 	-0.340476 	0.000499389
0.0950911 	60.0487 	-0.342431 	0.000387305
0.0953453 	60.2388 	-0.348529 	5.24401e-05
0.0955996 	60.4297 	-0.349241 	9.8942e-06
0.0958539 	60.6207 	-0.348953 	2.16255e-05
0.0961081 	60.8118 	-0.348665 	3.33568e-05
0.0963624 	61.0029 	-0.348378 	3.03868e-05
0.0966166 	61.1939 	-0.34809 	1.82006e-05
0.0968709 	61.385 	-0.347802 	6.01436e-06
0.0971251 	61.5767 	-0.34404 	0.000173749
0.0973794 	61.7689 	-0.336891 	0.000516809
0.0976336 	61.9613 	-0.337378 	0.000465384
0.0978879 	62.1538 	-0.343322 	0.000131931
0.0981421 	62.3464 	-0.345311 	1.53222e-05
0.0983964 	62.5392 	-0.344711 	4.06754e-05
0.0986507 	62.7319 	-0.34411 	6.60286e-05
0.0989049 	62.9247 	-0.34351 	6.41356e-05
0.0991592 	63.1174 	-0.342909 	3.78417e-05
0.0994134 	63.3102 	-0.342309 	1.15478e-05
0.0996677 	63.5032 	-0.337647 	0.000188255
0.0999219 	63.6964 	-0.329805 	0.000523935
0.100176 	63.8896 	-0.328661 	0.000532561
0.10043 	64.0829 	-0.334383 	0.000205843
0.100685 	64.276 	-0.337642 	1.4816e-05
0.100939 	64.4688 	-0.336706 	5.48626e-05
0.101193 	64.6615 	-0.335769 	9.49092e-05
0.101447 	64.8542 	-0.334832 	9.90902e-05
0.101702 	65.0469 	-0.333896 	5.76376e-05
0.101956 	65.2396 	-0.332959 	1.61851e-05
0.10221 	65.4321 	-0.327411 	0.000195776
0.102464 	65.6244 	-0.318909 	0.000516956
0.102719 	65.8166 	-0.316096 	0.000581814
0.102973 	66.0089 	-0.321673 	0.000268712
0.103227 	66.201 	-0.326286 	7.47152e-06
0.103481 	66.3917 	-0.325063 	6.01712e-05
0.103736 	66.5824 	-0.323839 	0.000112871
0.10399 	66.7732 	-0.322616 	0.000127843
0.104244 	66.9639 	-0.321392 	7.3415e-05
0.104498 	67.1546 	-0.320169 	1.89873e-05
0.104753 	67.3444 	-0.313763 	0.000197947
0.105007 	67.5337 	-0.30458 	0.000501946
0.105261 	67.723 	-0.300017 	0.000617137
0.105516 	67.9122 	-0.305537 	0.000320242
0.10577 	68.1014 	-0.311056 	2.33473e-05
0.106024 	68.2882 	-0.310091 	6.05913e-05
0.106278 	68.4748 	-0.308573 	0.000126354
0.106533 	68.6614 	-0.307055 	0.000156896
0.106787 	68.848 	-0.305536 	8.91511e-05
0.107041 	69.0347 	-0.304018 	2.14057e-05
0.107295 	69.2196 	-0.296732 	0.000193565
0.10755 	69.4038 	-0.286783 	0.000476543
0.107804 	69.5879 	-0.280285 	0.00063409
0.108058 	69.7718 	-0.285746 	0.000357152
0.108312 	69.9557 	-0.291207 	8.02139e-05
0.108567 	70.137 	-0.29154 	5.42768e-05
0.108821 	70.3173 	-0.289782 	0.000130685
0.109075 	70.4976 	-0.288025 	0.00018
0.109329 	70.6779 	-0.286267 	0.000101514
0.109584 	70.8582 	-0.284509 	2.30275e-05
0.109838 	71.036 	-0.276496 	0.0001847
0.110092 	71.2128 	-0.265885 	0.000446091
0.110346 	71.3895 	-0.257432 	0.00063834
0.110601 	71.5659 	-0.262987 	0.00038194
0.110855 	71.7423 	-0.268541 	0.000125541
0.111109 	71.9163 	-0.270231 	4.49009e-05
0.111363 	72.0879 	-0.268214 	0.000132878
0.111618 	72.2595 	-0.266197 	0.000205634
0.111872 	72.4312 	-0.264179 	0.00011555
0.112126 	72.6028 	-0.262162 	2.54661e-05
0.11238 	72.7711 	-0.253353 	0.0001715
0.112635 	72.9381 	-0.241867 	0.000410589
0.112889 	73.1051 	-0.231111 	0.000629406
0.113143 	73.2716 	-0.236702 	0.000394292
0.113397 	73.4381 	-0.242294 	0.000159177
0.113652 	73.6026 	-0.245316 	3.3312e-05
0.113906 	73.7631 	-0.242956 	0.000136451
0.11416 	73.9236 	-0.240595 	0.00023959
0.114414 	74.0841 	-0.238234 	0.000135281
0.114669 	74.2446 	-0.235873 	3.0034e-05
0.114923 	74.401 	-0.226281 	0.000151859
0.115177 	74.5556 	-0.213803 	0.000364358
0.115431 	74.7102 	-0.201324 	0.000576857
0.115686 	74.8643 	-0.206188 	0.000387714
0.11594 	75.0182 	-0.211933 	0.000178179
0.116194 	75.1712 	-0.216429 	1.70141e-05
0.116448 	75.318 	-0.21383 	0.000130709
0.116703 	75.4648 	-0.211231 	0.000244405
0.116957 	75.6117 	-0.208632 	0.000150594
0.117211 	75.7585 	-0.206033 	3.50011e-05
0.117465 	75.9004 	-0.195863 	0.000132803
0.11772 	76.0402 	-0.182406 	0.000323282
0.117974 	76.18 	-0.168949 	0.000513761
0.118228 	76.319 	-0.172199 	0.000378298
0.118482 	76.4579 	-0.178161 	0.000189933
0.118737 	76.5968 	-0.184123 	1.56839e-06
0.118991 	76.7276 	-0.181452 	0.00011907
0.119245 	76.8583 	-0.178709 	0.00023914
0.119499 	76.989 	-0.175966 	0.000162482
0.119754 	77.1196 	-0.173222 	4.08813e-05
0.120008 	77.2449 	-0.162864 	0.000115239
0.120262 	77.3675 	-0.148648 	0.000288841
0.120517 	77.49 	-0.134432 	0.000462444
0.120771 	77.6118 	-0.136001 	0.000370195
0.121025 	77.7333 	-0.142316 	0.000197998
0.121279 	77.8548 	-0.148631 	2.58014e-05
0.121534 	77.9686 	-0.147174 	0.000105177
0.121788 	78.081 	-0.144347 	0.000228891
0.122042 	78.1934 	-0.14152 	0.000173021
0.122296 	78.3058 	-0.138693 	4.82359e-05
0.122551 	78.4126 	-0.128531 	9.57262e-05
0.122805 	78.5159 	-0.113746 	0.000251772
0.123059 	78.6192 	-0.0989615 	0.000407819
0.123313 	78.7217 	-0.0987607 	0.000353088
0.123568 	78.824 	-0.105516 	0.000197823
0.123822 	78.9262 	-0.112271 	4.25572e-05
0.124076 	79.0213 	-0.112112 	8.79583e-05
0.12433 	79.1138 	-0.109341 	0.000209129
0.124585 	79.2063 	-0.10657 	0.000177031
0.124839 	79.2988 	-0.1038 	5.53136e-05
0.125093 	79.3859 	-0.0943306 	7.63342e-05
0.125347 	79.4687 	-0.0792815 	0.000216254
0.125602 	79.5514 	-0.0642325 	0.000356174
0.125856 	79.6335 	-0.062299 	0.000332506
0.12611 	79.7152 	-0.0696629 	0.000192873
0.126364 	79.7969 	-0.0770269 	5.3241e-05
0.126619 	79.8724 	-0.0782406 	6.96293e-05
0.126873 	79.9441 	-0.0756642 	0.000182169
0.127127 	80.0158 	-0.0730878 	0.000173298
0.127381 	80.0875 	-0.0705113 	6.0661e-05
0.127636 	80.1547 	-0.0621596 	5.85396e-05
0.12789 	80.2164 	-0.0470676 	0.0001854
0.128144 	80.2782 	-0.0319755 	0.00031226
0.128398 	80.3394 	-0.0283024 	0.000313973
0.128653 	80.4001 	-0.0363624 	0.000187094
0.128907 	80.4609 	-0.0444225 	6.0215e-05
0.129161 	80.5165 	-0.0470457 	5.24296e-05
0.129415 	80.5676 	-0.0447581 	0.000152217
0.12967 	80.6187 	-0.0424705 	0.000162803
0.129924 	80.6697 	-0.040183 	6.31421e-05
0.130178 	80.7172 	-0.0332665 	4.25154e-05
0.130432 	80.7586 	-0.0183468 	0.000158541
0.130687 	80.7999 	-0.00342706 	0.000274566
0.130941 	80.8408 	0.00195949 	0.000297418
0.131195 	80.8813 	-0.0068815 	0.000181216
0.131449 	80.9217 	-0.0157225 	6.50139e-05
0.131704 	80.9582 	-0.0198195 	3.69803e-05
0.131958 	80.9896 	-0.0178914 	0.000120929
0.132212 	81.021 	-0.0159632 	0.00014531
0.132466 	81.0524 	-0.014035 	6.15906e-05
0.132721 	81.0814 	-0.00874372 	2.87687e-05
0.132975 	81.1037 	0.00590804 	0.000137608
0.133229 	81.126 	0.0205598 	0.000246447
0.133483 	81.1481 	0.0277185 	0.000287889
0.133738 	81.1697 	0.0181374 	0.000178766
0.133992 	81.1913 	0.0085564 	6.96423e-05
0.134246 	81.2099 	0.00302157 	2.5165e-05
0.134501 	81.2234 	0.004624 	9.47196e-05
0.134755 	81.2368 	0.00622644 	0.00012772
0.135009 	81.2502 	0.00782887 	5.84514e-05
0.135263 	81.2624 	0.011428 	1.60327e-05
0.135518 	81.2676 	0.0258163 	0.000118696
0.135772 	81.2729 	0.0402045 	0.00022136
0.136026 	81.278 	0.0492492 	0.000279344
0.13628 	81.2827 	0.0390362 	0.000176304
0.136535 	81.2873 	0.0288231 	7.32652e-05
0.136789 	81.2899 	0.0219517 	1.68745e-05
0.137043 	81.2874 	0.023303 	7.52722e-05
0.137297 	81.2849 	0.0246544 	0.000113709
0.137552 	81.2824 	0.0260057 	5.56295e-05
0.137806 	81.2795 	0.0278993 	4.03305e-06
0.13806 	81.2698 	0.0421049 	9.96494e-05
0.138314 	81.2601 	0.0563105 	0.000195266
0.138569 	81.2503 	0.0673946 	0.000266883
0.138823 	81.2401 	0.0566679 	0.000170819
0.139077 	81.2299 	0.0459413 	7.47553e-05
0.139331 	81.2183 	0.037852 	1.10818e-05
0.139586 	81.2019 	0.0390148 	6.10407e-05
0.13984 	81.1854 	0.0401777 	0.000103086
0.140094 	81.1689 	0.0413405 	5.34645e-05
0.140348 	81.1524 	0.0425034 	3.84349e-06
0.140603 	81.1302 	0.0556476 	8.29527e-05
0.140857 	81.1074 	0.0697978 	0.00017287
0.141111 	81.0846 	0.0831085 	0.000256797
0.141365 	81.0615 	0.0719821 	0.00016637
0.14162 	81.0383 	0.0608558 	7.59431e-05
0.141874 	81.0143 	0.0516794 	7.16609e-06
0.142128 	80.9856 	0.0527276 	5.19051e-05
0.142382 	80.9569 	0.0537758 	9.66441e-05
0.142637 	80.9282 	0.0548239 	5.33675e-05
0.142891 	80.8995 	0.0558721 	8.9874e-06
0.143145 	80.8663 	0.0674105 	6.79511e-05
0.143399 	80.8321 	0.0816127 	0.000153157
0.143654 	80.7978 	0.0958149 	0.000238363
0.143908 	80.7633 	0.0859116 	0.000162639
0.144162 	80.7287 	0.0745035 	7.68689e-05
0.144416 	80.6936 	0.064382 	4.35695e-06
0.144671 	80.6541 	0.0653717 	4.63383e-05
0.144925 	80.6145 	0.0663614 	8.83197e-05
0.145179 	80.5749 	0.0673511 	5.54329e-05
0.145433 	80.5354 	0.0683408 	1.38388e-05
0.145688 	80.4925 	0.0781994 	5.34721e-05
0.145942 	80.4479 	0.0924801 	0.000133605
0.146196 	80.4034 	0.106761 	0.000213738
0.14645 	80.3586 	0.0990469 	0.000157246
0.146705 	80.3138 	0.08743 	7.65096e-05
0.146959 	80.2687 	0.0764711 	2.09634e-06
0.147213 	80.2194 	0.0774209 	4.21359e-05
0.147467 	80.17 	0.0783707 	8.21755e-05
0.147722 	80.1206 	0.0793205 	5.8159e-05
0.147976 	80.0712 	0.0802703 	1.85345e-05
0.14823 	80.0194 	0.0883508 	3.9819e-05
0.148484 	79.9655 	0.102698 	0.000114632
0.148739 	79.9116 	0.117045 	0.000189445
0.148993 	79.8575 	0.111582 	0.00015046
0.149247 	79.8033 	0.0997733 	7.50198e-05
0.149502 	79.7492 	0.088035 	2.1079e-07
0.149756 	79.6908 	0.0889374 	3.79774e-05
0.15001 	79.6325 	0.0898397 	7.57441e-05
0.150264 	79.5742 	0.090742 	6.00081e-05
0.150519 	79.5158 	0.0916444 	2.26735e-05
0.150773 	79.4558 	0.097838 	2.72333e-05
0.151027 	79.3933 	0.112215 	9.65832e-05
0.151281 	79.3308 	0.126591 	0.000165933
0.151536 	79.2681 	0.123406 	0.000142557
0.15179 	79.2054 	0.111394 	7.25695e-05
0.152044 	79.1427 	0.0993816 	2.58173e-06
0.152298 	79.0763 	0.0997444 	3.34228e-05
0.152553 	79.0098 	0.100581 	6.81256e-05
0.152807 	78.9432 	0.101418 	6.0009e-05
0.153061 	78.8767 	0.102255 	2.57379e-05
0.153315 	78.8092 	0.10646 	1.5926e-05
0.15357 	78.7388 	0.120827 	7.98869e-05
0.153824 	78.6684 	0.135193 	0.000143848
0.154078 	78.5979 	0.134304 	0.000134066
0.154332 	78.5274 	0.122076 	6.94686e-05
0.154587 	78.4569 	0.109848 	4.87138e-06
0.154841 	78.3832 	0.109624 	2.86211e-05
0.155095 	78.3092 	0.11038 	5.95766e-05
0.155349 	78.2352 	0.111135 	5.79829e-05
0.155604 	78.1612 	0.111891 	2.74411e-05
0.155858 	78.0868 	0.114024 	5.97504e-06
0.156112 	78.0093 	0.12835 	6.4827e-05
0.156366 	77.9319 	0.142675 	0.000123679
0.156621 	77.8543 	0.144103 	0.00012552
0.156875 	77.7768 	0.131657 	6.60425e-05
0.157129 	77.6992 	0.119211 	6.56465e-06
0.157383 	77.6189 	0.118429 	2.3858e-05
0.157638 	77.5383 	0.119094 	5.06758e-05
0.157892 	77.4577 	0.11976 	5.41776e-05
0.158146 	77.377 	0.120425 	2.77407e-05
0.1584 	77.2964 	0.12109 	1.30379e-06
0.158655 	77.2128 	0.134682 	5.14724e-05
0.158909 	77.1291 	0.148944 	0.000105615
0.159163 	77.0453 	0.152708 	0.000117287
0.159417 	76.9616 	0.140053 	6.25354e-05
0.159672 	76.8778 	0.127398 	7.78341e-06
0.159926 	76.7918 	0.126089 	1.93187e-05
0.16018 	76.7054 	0.12666 	4.18387e-05
0.160434 	76.6189 	0.127232 	4.88722e-05
0.160689 	76.5325 	0.127803 	2.66891e-05
0.160943 	76.4461 	0.128374 	4.50605e-06
0.161197 	76.3575 	0.139789 	3.97288e-05
0.161451 	76.2684 	0.153968 	8.95846e-05
0.161706 	76.1793 	0.160086 	0.000109525
0.16196 	76.0903 	0.147239 	5.90797e-05
0.162214 	76.0012 	0.134392 	8.63459e-06
0.162468 	75.9102 	0.132587 	1.50954e-05
0.162723 	75.8189 	0.133064 	3.33081e-05
0.162977 	75.7276 	0.13354 	4.23013e-05
0.163231 	75.6363 	0.134017 	2.43733e-05
0.163485 	75.545 	0.134493 	6.44524e-06
0.16374 	75.4522 	0.143682 	2.94325e-05
0.163994 	75.3586 	0.15776 	7.53851e-05
0.164248 	75.2651 	0.166242 	0.000102238
0.164503 	75.1716 	0.153226 	5.57197e-05
0.164757 	75.0781 	0.14021 	9.20137e-06
0.165011 	74.9831 	0.137944 	1.12434e-05
0.165265 	74.8878 	0.138328 	2.5259e-05
0.16552 	74.7925 	0.138712 	3.47195e-05
0.165774 	74.6972 	0.139096 	2.09312e-05
0.166028 	74.6019 	0.13948 	7.1429e-06
0.166282 	74.5057 	0.146406 	2.04005e-05
0.166537 	74.4086 	0.160365 	6.27285e-05
0.166791 	74.3115 	0.17121 	9.52701e-05
0.167045 	74.2144 	0.158058 	5.2403e-05
0.167299 	74.1174 	0.144905 	9.53586e-06
0.167554 	74.0193 	0.142209 	7.77787e-06
0.167808 	73.9209 	0.142504 	1.77809e-05
0.168062 	73.8225 	0.142799 	2.63434e-05
0.168316 	73.7241 	0.143094 	1.65077e-05
0.168571 	73.6257 	0.143389 	6.67191e-06
0.168825 	73.5268 	0.148034 	1.24672e-05
0.169079 	73.427 	0.161849 	5.12244e-05
0.169333 	73.3271 	0.175036 	8.81694e-05
0.169588 	73.2275 	0.161788 	4.89046e-05
0.169842 	73.1278 	0.14854 	9.63988e-06
0.170096 	73.0274 	0.145447 	4.6918e-06
0.17035 	72.9267 	0.145658 	1.09103e-05
0.170605 	72.826 	0.14587 	1.71287e-05
0.170859 	72.7254 	0.146081 	1.12458e-05
0.171113 	72.6247 	0.146292 	5.13392e-06
0.171367 	72.5239 	0.148652 	5.60383e-06
0.171622 	72.4222 	0.162294 	4.06232e-05
0.171876 	72.3205 	0.175936 	7.56425e-05
0.17213 	72.219 	0.164485 	4.49761e-05
0.172384 	72.1175 	0.151192 	9.48793e-06
0.172639 	72.0155 	0.147734 	1.91867e-06
0.172893 	71.9134 	0.147865 	4.53745e-06
0.173147 	71.8113 	0.147995 	7.15622e-06
0.173401 	71.7091 	0.148126 	5.15285e-06
0.173656 	71.607 	0.148257 	2.5798e-06
0.17391 	71.5049 	0.148388 	6.75674e-09
0.174164 	71.4021 	0.161782 	3.09407e-05
0.174418 	71.2994 	0.17521 	6.19624e-05
0.174673 	71.1968 	0.166197 	4.0511e-05
0.174927 	71.0942 	0.152909 	9.06704e-06
0.175181 	70.9914 	0.149119 	-4.60922e-07
0.175435 	70.8886 	0.149176 	-1.10865e-06
0.17569 	70.7858 	0.149234 	-1.75638e-06
0.175944 	70.6829 	0.149291 	-1.37801e-06
0.176198 	70.5801 	0.149349 	-7.41757e-07
0.176452 	70.4773 	0.149406 	-1.05501e-07
0.176707 	70.3742 	0.160416 	2.23108e-05
0.176961 	70.271 	0.173603 	4.90578e-05
0.177215 	70.1681 	0.167036 	3.54903e-05
0.177469 	70.0652 	0.15383 	8.37495e-06
0.177724 	69.9623 	0.149744 	-2.51482e-06
0.177978 	69.8594 	0.149734 	-6.15352e-06
0.178232 	69.7565 	0.149724 	-9.79222e-06
0.178486 	69.6537 	0.149714 	-8.32438e-06