0 	31.9371 	-2.73811e-07 	2.89676e-17
0.000254254 	31.9429 	-2.74181e-07 	4.07223e-14
0.000508509 	31.9486 	-2.74181e-07 	4.07223e-14
0.000762763 	31.9544 	-2.74181e-07 	4.07223e-14
0.00101702 	31.9602 	-2.74181e-07 	4.07223e-14
0.00127127 	31.966 	-2.74181e-07 	4.07223e-14
0.00152553 	31.9718 	-2.74181e-07 	4.07223e-14
0.00177978 	31.9775 	-2.74181e-07 	4.07223e-14
0.00203403 	31.9833 	-2.74181e-07 	4.07223e-14
0.00228829 	31.9891 	-2.74181e-07 	4.07223e-14
0.00254254 	31.9949 	-2.74181e-07 	4.07223e-14
0.0027968 	32.0083 	-2.79621e-07 	4.07695e-14
0.00305105 	32.0225 	-2.79621e-07 	4.07695e-14
0.00330531 	32.0368 	-2.79621e-07 	4.07695e-14
0.00355956 	32.051 	-2.79621e-07 	4.07695e-14
0.00381381 	32.0652 	-2.79621e-07 	4.07695e-14
0.00406807 	32.0794 	-2.79621e-07 	4.07695e-14
0.00432232 	32.0936 	-2.79621e-07 	4.07695e-14
0.00457658 	32.1078 	-2.79621e-07 	4.07695e-14
0.00483083 	32.122 	-2.79621e-07 	4.07695e-14
0.00508509 	32.1363 	-2.79621e-07 	4.07695e-14
0.00533934 	32.153 	-3.02996e-07 	4.09111e-14
0.00559359 	32.1703 	-3.02996e-07 	4.09111e-14
0.00584785 	32.1876 	-3.02996e-07 	4.09111e-14
0.0061021 	32.2049 	-3.02996e-07 	4.09111e-14
0.00635636 	32.2222 	-3.02996e-07 	4.09111e-14
0.00661061 	32.2395 	-3.02996e-07 	4.09111e-14
0.00686486 	32.2568 	-3.02996e-07 	4.09111e-14
0.00711912 	32.2741 	-3.02996e-07 	4.09111e-14
0.00737337 	32.2914 	-3.02996e-07 	4.09111e-14
0.00762763 	32.3087 	-3.02996e-07 	4.09111e-14
0.00788188 	32.3268 	-3.43394e-07 	4.10612e-14
0.00813614 	32.3451 	-3.43394e-07 	4.10612e-14
0.00839039 	32.3634 	-3.43394e-07 	4.10612e-14
0.00864464 	32.3818 	-3.43394e-07 	4.10612e-14
0.0088989 	32.4001 	-3.43394e-07 	4.10612e-14
0.00915315 	32.4184 	-3.43394e-07 	4.10612e-14
0.00940741 	32.4368 	-3.43394e-07 	4.10612e-14
0.00966166 	32.4551 	-3.43394e-07 	4.10612e-14
0.00991592 	32.4734 	-3.43394e-07 	4.10612e-14
0.0101702 	32.4918 	-3.43394e-07 	4.10612e-14
0.0104244 	32.5113 	-3.96952e-07 	4.13054e-14
0.0106787 	32.5314 	-3.96952e-07 	4.13054e-14
0.0109329 	32.5516 	-3.96952e-07 	4.13054e-14
0.0111872 	32.5718 	-3.96952e-07 	4.13054e-14
0.0114414 	32.592 	-3.96952e-07 	4.13054e-14
0.0116957 	32.6121 	-3.96952e-07 	4.13054e-14
0.0119499 	32.6323 	-3.96952e-07 	4.13054e-14
0.0122042 	32.6525 	-3.96952e-07 	4.13054e-14
0.0124585 	32.6726 	-3.96952e-07 	4.13054e-14
0.0127127 	32.6928 	-3.96952e-07 	4.13054e-14
0.012967 	32.7146 	-4.60197e-07 	4.16295e-14
0.0132212 	32.7377 	-4.60197e-07 	4.16295e-14
0.0134755 	32.7608 	-4.60197e-07 	4.16295e-14
0.0137297 	32.7839 	-4.60197e-07 	4.16295e-14
0.013984 	32.807 	-4.60197e-07 	4.16295e-14
0.0142382 	32.8301 	-4.60197e-07 	4.16295e-14
0.0144925 	32.8532 	-4.60197e-07 	4.16295e-14
0.0147467 	32.8763 	-4.60197e-07 	4.16295e-14
0.015001 	32.8993 	-4.60197e-07 	4.16295e-14
0.0152553 	32.9224 	-4.60197e-07 	4.16295e-14
0.0155095 	32.9472 	-5.30503e-07 	4.19513e-14
0.0157638 	32.9739 	-5.30503e-07 	4.19513e-14
0.016018 	33.0006 	-5.30503e-07 	4.19513e-14
0.0162723 	33.0273 	-5.30503e-07 	4.19513e-14
0.0165265 	33.054 	-5.30503e-07 	4.19513e-14
0.0167808 	33.0807 	-5.30503e-07 	4.19513e-14
0.017035 	33.1075 	-5.30503e-07 	4.19513e-14
0.0172893 	33.1342 	-5.30503e-07 	4.19513e-14
0.0175435 	33.1609 	-5.30503e-07 	4.19513e-14
0.0177978 	33.1876 	-5.30503e-07 	4.19513e-14
0.0180521 	33.2158 	-6.06031e-07 	4.23341e-14
0.0183063 	33.2465 	-6.06031e-07 	4.23341e-14
0.0185606 	33.2772 	-6.06031e-07 	4.23341e-14
0.0188148 	33.3079 	-6.06031e-07 	4.23341e-14
0.0190691 	33.3386 	-6.06031e-07 	4.23341e-14
0.0193233 	33.3693 	-6.06031e-07 	4.23341e-14
0.0195776 	33.4 	-6.06031e-07 	4.23341e-14
0.0198318 	33.4307 	-6.06031e-07 	4.23341e-14
0.0200861 	33.4614 	-6.06031e-07 	4.23341e-14
0.0203403 	33.4921 	-6.06031e-07 	4.23341e-14
0.0205946 	33.524 	-6.85624e-07 	4.27815e-14
0.0208488 	33.5589 	-6.85624e-07 	4.27815e-14
0.0211031 	33.5938 	-6.85624e-07 	4.27815e-14
0.0213574 	33.6288 	-6.85624e-07 	4.27815e-14
0.0216116 	33.6637 	-6.85624e-07 	4.27815e-14
0.0218659 	33.6986 	-6.85624e-07 	4.27815e-14
0.0221201 	33.7336 	-6.85624e-07 	4.27815e-14
0.0223744 	33.7685 	-6.85624e-07 	4.27815e-14
0.0226286 	33.8034 	-6.85624e-07 	4.27815e-14
0.0228829 	33.8384 	-6.85624e-07 	4.27815e-14
0.0231371 	33.8741 	-7.68615e-07 	4.32952e-14
0.0233914 	33.9135 	-7.68615e-07 	4.32952e-14
0.0236456 	33.9528 	-7.68615e-07 	4.32952e-14
0.0238999 	33.9922 	-7.68615e-07 	4.32952e-14
0.0241542 	34.0315 	-7.68615e-07 	4.32952e-14
0.0244084 	34.0709 	-7.68615e-07 	4.32952e-14
0.0246627 	34.1102 	-7.68615e-07 	4.32951e-14
0.0249169 	34.1496 	-7.68615e-07 	4.32951e-14
0.0251712 	34.1889 	-7.68615e-07 	4.32951e-14
0.0254254 	34.2283 	-7.68615e-07 	4.32951e-14
0.0256797 	34.268 	-8.54458e-07 	4.38763e-14
0.0259339 	34.312 	-8.54458e-07 	4.38763e-14
0.0261882 	34.3559 	-8.54458e-07 	4.38763e-14
0.0264424 	34.3999 	-8.54458e-07 	4.38763e-14
0.0266967 	34.4438 	-8.54458e-07 	4.38763e-14
0.026951 	34.4878 	-8.54458e-07 	4.38763e-14
0.0272052 	34.5317 	-8.54458e-07 	4.38763e-14
0.0274595 	34.5757 	-8.54458e-07 	4.38763e-14
0.0277137 	34.6196 	-8.54458e-07 	4.38763e-14
0.027968 	34.6635 	-8.54458e-07 	4.38763e-14
0.0282222 	34.7075 	-9.92742e-07 	2.99119e-17
0.0284765 	34.7562 	-9.41811e-07 	4.45257e-14
0.0287307 	34.8049 	-9.41811e-07 	4.45257e-14
0.028985 	34.8537 	-9.41811e-07 	4.45257e-14
0.0292392 	34.9024 	-9.41811e-07 	4.45257e-14
0.0294935 	34.9511 	-9.41811e-07 	4.45257e-14
0.0297477 	34.9998 	-9.41811e-07 	4.45257e-14
0.030002 	35.0485 	-9.41811e-07 	4.45257e-14
0.0302563 	35.0973 	-9.41811e-07 	4.45257e-14
0.0305105 	35.146 	-9.41811e-07 	4.45257e-14
0.0307648 	35.1947 	-9.41811e-07 	4.45257e-14
0.031019 	35.2479 	-1.02863e-06 	4.52907e-14
0.0312733 	35.3016 	-1.02863e-06 	4.52907e-14
0.0315275 	35.3553 	-1.02863e-06 	4.52907e-14
0.0317818 	35.409 	-1.02863e-06 	4.52907e-14
0.032036 	35.4626 	-1.02863e-06 	4.52907e-14
0.0322903 	35.5163 	-1.02863e-06 	4.52907e-14
0.0325445 	35.57 	-1.02863e-06 	4.52907e-14
0.0327988 	35.6237 	-1.02863e-06 	4.52907e-14
0.0330531 	35.6774 	-1.02863e-06 	4.52907e-14
0.0333073 	35.731 	-1.02863e-06 	4.52907e-14
0.0335616 	35.7889 	-1.11693e-06 	4.60295e-14
0.0338158 	35.8477 	-1.11693e-06 	4.60295e-14
0.0340701 	35.9066 	-1.11693e-06 	4.60295e-14
0.0343243 	35.9654 	-1.11693e-06 	4.60295e-14
0.0345786 	36.0242 	-1.11693e-06 	4.60295e-14
0.0348328 	36.083 	-1.11693e-06 	4.60294e-14
0.0350871 	36.1419 	-1.11693e-06 	4.60294e-14
0.0353413 	36.2007 	-1.11693e-06 	4.60294e-14
0.0355956 	36.2595 	-1.11693e-06 	4.60294e-14
0.0358498 	36.3183 	-1.11693e-06 	4.60294e-14
0.0361041 	36.381 	-1.20779e-06 	4.69418e-14
0.0363584 	36.4452 	-1.20779e-06 	4.69418e-14
0.0366126 	36.5094 	-1.20779e-06 	4.69418e-14
0.0368669 	36.5735 	-1.20779e-06 	4.69418e-14
0.0371211 	36.6377 	-1.20779e-06 	4.69418e-14
0.0373754 	36.7019 	-1.20779e-06 	4.69418e-14
0.0376296 	36.766 	-1.20779e-06 	4.69417e-14
0.0378839 	36.8302 	-1.20779e-06 	4.69417e-14
0.0381381 	36.8944 	-1.20779e-06 	4.69417e-14
0.0383924 	36.9585 	-1.20779e-06 	4.69417e-14
0.0386466 	37.0262 	-1.30305e-06 	4.79273e-14
0.0389009 	37.0959 	-1.30305e-06 	4.79273e-14
0.0391552 	37.1656 	-1.30305e-06 	4.79273e-14
0.0394094 	37.2353 	-1.30305e-06 	4.79272e-14
0.0396637 	37.3051 	-1.30305e-06 	4.79272e-14
0.0399179 	37.3748 	-1.30305e-06 	4.79272e-14
0.0401722 	37.4445 	-1.30305e-06 	4.79272e-14
0.0404264 	37.5142 	-1.30305e-06 	4.79272e-14
0.0406807 	37.5839 	-1.30305e-06 	4.79272e-14
0.0409349 	37.6536 	-1.30305e-06 	4.79272e-14
0.0411892 	37.7265 	-1.4021e-06 	4.89837e-14
0.0414434 	37.8019 	-1.4021e-06 	4.89837e-14
0.0416977 	37.8774 	-1.4021e-06 	4.89837e-14
0.041952 	37.9529 	-1.4021e-06 	4.89837e-14
0.0422062 	38.0284 	-1.4021e-06 	4.89837e-14
0.0424605 	38.1038 	-1.4021e-06 	4.89837e-14
0.0427147 	38.1793 	-1.4021e-06 	4.89837e-14
0.042969 	38.2548 	-1.4021e-06 	4.89837e-14
0.0432232 	38.3302 	-1.4021e-06 	4.89836e-14
0.0434775 	38.4057 	-1.4021e-06 	4.89836e-14
0.0437317 	38.4839 	-1.50459e-06 	5.00846e-14
0.043986 	38.5654 	-1.50459e-06 	5.00846e-14
0.0442402 	38.6468 	-1.50459e-06 	5.00846e-14
0.0444945 	38.7283 	-1.50459e-06 	5.00846e-14
0.0447487 	38.8098 	-1.50459e-06 	5.00846e-14
0.045003 	38.8912 	-1.50459e-06 	5.00846e-14
0.0452573 	38.9727 	-1.50459e-06 	5.00846e-14
0.0455115 	39.0541 	-1.50459e-06 	5.00846e-14
0.0457658 	39.1356 	-1.50459e-06 	5.00846e-14
0.04602 	39.2171 	-1.50459e-06 	5.00846e-14
0.0462743 	39.3008 	-1.61042e-06 	5.12295e-14
0.0465285 	39.3885 	-1.61042e-06 	5.12295e-14
0.0467828 	39.4762 	-1.61042e-06 	5.12295e-14
0.047037 	39.5639 	-1.61042e-06 	5.12295e-14
0.0472913 	39.6516 	-1.61042e-06 	5.12295e-14
0.0475455 	39.7392 	-1.61042e-06 	5.12295e-14
0.0477998 	39.8269 	-1.61042e-06 	5.12295e-14
0.0480541 	39.9146 	-1.61042e-06 	5.12295e-14
0.0483083 	40.0023 	-1.61042e-06 	5.12295e-14
0.0485626 	40.09 	-1.61042e-06 	5.12295e-14
0.0488168 	40.1795 	-1.71943e-06 	5.24487e-14
0.0490711 	40.2736 	-1.71943e-06 	5.24487e-14
0.0493253 	40.3678 	-1.71943e-06 	5.24487e-14
0.0495796 	40.4619 	-1.71943e-06 	5.24487e-14
0.0498338 	40.5561 	-1.71943e-06 	5.24487e-14
0.0500881 	40.6503 	-1.71943e-06 	5.24487e-14
0.0503423 	40.7444 	-1.71943e-06 	5.24486e-14
0.0505966 	40.8386 	-1.71943e-06 	5.24486e-14
0.0508509 	40.9327 	-1.71943e-06 	5.24486e-14
0.0511051 	41.0269 	-1.71943e-06 	5.24486e-14
0.0513594 	41.1223 	-1.83131e-06 	5.38038e-14
0.0516136 	41.2232 	-1.83131e-06 	5.38038e-14
0.0518679 	41.3241 	-1.83131e-06 	5.38038e-14
0.0521221 	41.425 	-1.83131e-06 	5.38038e-14
0.0523764 	41.5258 	-1.83131e-06 	5.38038e-14
0.0526306 	41.6267 	-1.83131e-06 	5.38038e-14
0.0528849 	41.7276 	-1.83131e-06 	5.38038e-14
0.0531391 	41.8285 	-1.83131e-06 	5.38037e-14
0.0533934 	41.9294 	-1.83131e-06 	5.38037e-14
0.0536476 	42.0303 	-1.83131e-06 	5.38037e-14
0.0539019 	42.1318 	-1.94559e-06 	5.52002e-14
0.0541562 	42.2397 	-1.94559e-06 	5.52002e-14
0.0544104 	42.3475 	-1.94559e-06 	5.52002e-14
0.0546647 	42.4554 	-1.94559e-06 	5.52002e-14
0.0549189 	42.5633 	-1.94559e-06 	5.52002e-14
0.0551732 	42.6712 	-1.94559e-06 	5.52002e-14
0.0554274 	42.779 	-1.94559e-06 	5.52002e-14
0.0556817 	42.8869 	-1.94559e-06 	5.52002e-14
0.0559359 	42.9948 	-1.94559e-06 	5.52002e-14
0.0561902 	43.1026 	-1.94559e-06 	5.52002e-14
0.0564444 	43.2105 	-2.3158e-06 	2.3517e-17
0.0566987 	43.3256 	-2.06157e-06 	5.67521e-14
0.056953 	43.4407 	-2.06157e-06 	5.67521e-14
0.0572072 	43.5558 	-2.06157e-06 	5.67521e-14
0.0574615 	43.6709 	-2.06157e-06 	5.67521e-14
0.0577157 	43.786 	-2.06157e-06 	5.67521e-14
0.05797 	43.9012 	-2.06157e-06 	5.67521e-14
0.0582242 	44.0163 	-2.06157e-06 	5.67521e-14
0.0584785 	44.1314 	-2.06157e-06 	5.67521e-14
0.0587327 	44.2465 	-2.06157e-06 	5.67521e-14
0.058987 	44.3616 	-2.06157e-06 	5.67521e-14
0.0592412 	44.4835 	-2.17821e-06 	5.83943e-14
0.0594955 	44.6061 	-2.17821e-06 	5.83943e-14
0.0597497 	44.7287 	-2.17821e-06 	5.83943e-14
0.060004 	44.8513 	-2.17821e-06 	5.83943e-14
0.0602583 	44.9739 	-2.17821e-06 	5.83943e-14
0.0605125 	45.0965 	-2.17821e-06 	5.83943e-14
0.0607668 	45.2191 	-2.17821e-06 	5.83943e-14
0.061021 	45.3417 	-2.17821e-06 	5.83943e-14
0.0612753 	45.4643 	-2.17821e-06 	5.83943e-14
0.0615295 	45.5869 	-2.17821e-06 	5.83943e-14
0.0617838 	45.7158 	-2.29551e-06 	6.01862e-14
0.062038 	45.8461 	-2.29551e-06 	6.01862e-14
0.0622923 	45.9765 	-2.29551e-06 	6.01861e-14
0.0625465 	46.1068 	-2.29551e-06 	6.01861e-14
0.0628008 	46.2371 	-2.29551e-06 	6.01861e-14
0.0630551 	46.3675 	-2.29551e-06 	6.01861e-14
0.0633093 	46.4978 	-2.29551e-06 	6.01861e-14
0.0635636 	46.6281 	-2.29551e-06 	6.01861e-14
0.0638178 	46.7585 	-2.29551e-06 	6.01861e-14
0.0640721 	46.8888 	-2.29551e-06 	6.01861e-14
0.0643263 	47.0249 	-2.41284e-06 	6.19626e-14
0.0645806 	47.1632 	-2.41284e-06 	6.19625e-14
0.0648348 	47.3015 	-2.41284e-06 	6.19625e-14
0.0650891 	47.4398 	-2.41284e-06 	6.19625e-14
0.0653433 	47.5781 	-2.41284e-06 	6.19625e-14
0.0655976 	47.7164 	-2.41284e-06 	6.19625e-14
0.0658519 	47.8546 	-2.41284e-06 	6.19625e-14
0.0661061 	47.9929 	-2.41284e-06 	6.19625e-14
0.0663604 	48.1312 	-2.41284e-06 	6.19625e-14
0.0666146 	48.2695 	-2.41284e-06 	6.19625e-14
0.0668689 	48.413 	-2.52889e-06 	6.39025e-14
0.0671231 	48.5595 	-2.52889e-06 	6.39025e-14
0.0673774 	48.706 	-2.52889e-06 	6.39025e-14
0.0676316 	48.8525 	-2.52889e-06 	6.39025e-14
0.0678859 	48.999 	-2.52889e-06 	6.39025e-14
0.0681401 	49.1455 	-2.52889e-06 	6.39025e-14
0.0683944 	49.292 	-2.52889e-06 	6.39025e-14
0.0686486 	49.4385 	-2.52889e-06 	6.39024e-14
0.0689029 	49.5849 	-2.52889e-06 	6.39024e-14
0.0691572 	49.7314 	-2.52889e-06 	6.39024e-14
0.0694114 	49.8825 	-2.64288e-06 	6.59361e-14
0.0696657 	50.0375 	-2.64288e-06 	6.59361e-14
0.0699199 	50.1924 	-2.64288e-06 	6.59361e-14
0.0701742 	50.3474 	-2.64288e-06 	6.59361e-14
0.0704284 	50.5023 	-2.64288e-06 	6.59361e-14
0.0706827 	50.6572 	-2.64288e-06 	6.59361e-14
0.0709369 	50.8122 	-2.64288e-06 	6.59361e-14
0.0711912 	50.9671 	-2.64288e-06 	6.59361e-14
0.0714454 	51.1221 	-2.64288e-06 	6.59361e-14
0.0716997 	51.277 	-2.64288e-06 	6.59361e-14
0.071954 	51.4359 	-2.74224e-06 	6.80597e-14
0.0722082 	51.5994 	-2.74224e-06 	6.80597e-14
0.0724625 	51.763 	-2.74224e-06 	6.80597e-14
0.0727167 	51.9266 	-2.74224e-06 	6.80597e-14
0.072971 	52.0902 	-2.74224e-06 	6.80597e-14
0.0732252 	52.2537 	-2.74224e-06 	6.80597e-14
0.0734795 	52.4173 	-2.74224e-06 	6.80597e-14
0.0737337 	52.5809 	-2.74224e-06 	6.80597e-14
0.073988 	52.7445 	-2.74224e-06 	6.80597e-14
0.0742422 	52.908 	-2.74224e-06 	6.80597e-14
0.0744965 	53.0748 	-2.82201e-06 	7.02584e-14
0.0747508 	53.247 	-2.82201e-06 	7.02584e-14
0.075005 	53.4193 	-2.82201e-06 	7.02584e-14
0.0752593 	53.5916 	-2.82201e-06 	7.02584e-14
0.0755135 	53.7638 	-2.82201e-06 	7.02583e-14
0.0757678 	53.9361 	-2.82201e-06 	7.02583e-14
0.076022 	54.1084 	-2.82201e-06 	7.02583e-14
0.0762763 	54.2806 	-2.82201e-06 	7.02583e-14
0.0765305 	54.4529 	-2.82201e-06 	7.02583e-14
0.0767848 	54.6252 	-2.82201e-06 	7.02583e-14
0.077039 	54.7998 	-2.88449e-06 	7.24684e-14
0.0772933 	54.9808 	-2.88449e-06 	7.24684e-14
0.0775475 	55.1617 	-2.88449e-06 	7.24684e-14
0.0778018 	55.3426 	-2.88449e-06 	7.24684e-14
0.0780561 	55.5236 	-2.88449e-06 	7.24684e-14
0.0783103 	55.7045 	-2.88449e-06 	7.24684e-14
0.0785646 	55.8855 	-2.88449e-06 	7.24684e-14
0.0788188 	56.0664 	-2.88449e-06 	7.24684e-14
0.0790731 	56.2474 	-2.88449e-06 	7.24683e-14
0.0793273 	56.4283 	-2.88449e-06 	7.24683e-14
0.0795816 	56.6108 	-2.91218e-06 	7.47862e-14
0.0798358 	56.8003 	-2.91218e-06 	7.47862e-14
0.0800901 	56.9899 	-2.91218e-06 	7.47862e-14
0.0803443 	57.1794 	-2.91218e-06 	7.47862e-14
0.0805986 	57.3689 	-2.91218e-06 	7.47862e-14
0.0808529 	57.5585 	-2.91218e-06 	7.47862e-14
0.0811071 	57.748 	-2.91218e-06 	7.47861e-14
0.0813614 	57.9375 	-2.91218e-06 	7.47861e-14
0.0816156 	58.1271 	-2.91218e-06 	7.47861e-14
0.0818699 	58.3166 	-2.91218e-06 	7.47861e-14
0.0821241 	58.5069 	-2.91463e-06 	7.71402e-14
0.0823784 	58.7048 	-2.91463e-06 	7.71402e-14
0.0826326 	58.9027 	-2.91463e-06 	7.71402e-14
0.0828869 	59.1007 	-2.91463e-06 	7.71402e-14
0.0831411 	59.2986 	-2.91463e-06 	7.71402e-14
0.0833954 	59.4965 	-2.91463e-06 	7.71401e-14
0.0836496 	59.6944 	-2.91463e-06 	7.71401e-14
0.0839039 	59.8923 	-2.91463e-06 	7.71401e-14
0.0841582 	60.0903 	-2.91463e-06 	7.71401e-14
0.0844124 	60.2882 	-2.91463e-06 	7.71401e-14
0.0846667 	60.4861 	-3.84756e-06 	2.49436e-16
0.0849209 	60.6921 	-2.93895e-06 	7.95235e-14
0.0851752 	60.8981 	-2.93895e-06 	7.95235e-14
0.0854294 	61.104 	-2.93895e-06 	7.95235e-14
0.0856837 	61.31 	-2.93895e-06 	7.95234e-14
0.0859379 	61.516 	-2.93895e-06 	7.95234e-14
0.0861922 	61.7219 	-2.93895e-06 	7.95234e-14
0.0864464 	61.9279 	-2.93895e-06 	7.95234e-14
0.0867007 	62.1339 	-2.93895e-06 	7.95234e-14
0.086955 	62.3398 	-2.93895e-06 	7.95234e-14
0.0872092 	62.5458 	-2.93895e-06 	7.95234e-14
0.0874635 	62.7587 	-2.96159e-06 	8.19307e-14
0.0877177 	62.9723 	-2.96159e-06 	8.19307e-14
0.087972 	63.1859 	-2.96159e-06 	8.19307e-14
0.0882262 	63.3996 	-2.96159e-06 	8.19307e-14
0.0884805 	63.6132 	-2.96159e-06 	8.19306e-14
0.0887347 	63.8268 	-2.96159e-06 	8.19306e-14
0.088989 	64.0404 	-2.96159e-06 	8.19306e-14
0.0892432 	64.254 	-2.96159e-06 	8.19306e-14
0.0894975 	64.4676 	-2.96159e-06 	8.19306e-14
0.0897518 	64.6812 	-2.96159e-06 	8.19306e-14
0.090006 	64.9007 	-2.95295e-06 	8.43496e-14
0.0902603 	65.1214 	-2.95295e-06 	8.43496e-14
0.0905145 	65.3421 	-2.95295e-06 	8.43496e-14
0.0907688 	65.5629 	-2.95295e-06 	8.43496e-14
0.091023 	65.7836 	-2.95295e-06 	8.43496e-14
0.0912773 	66.0043 	-2.95295e-06 	8.43495e-14
0.0915315 	66.2251 	-2.95295e-06 	8.43495e-14
0.0917858 	66.4458 	-2.95295e-06 	8.43495e-14
0.09204 	66.6665 	-2.95295e-06 	8.43495e-14
0.0922943 	66.8873 	-2.95295e-06 	8.43495e-14
0.0925485 	67.1126 	-2.93658e-06 	8.67618e-14
0.0928028 	67.3396 	-2.93658e-06 	8.67618e-14
0.0930571 	67.5667 	-2.93658e-06 	8.67618e-14
0.0933113 	67.7938 	-2.93658e-06 	8.67618e-14
0.0935656 	68.0208 	-2.93658e-06 	8.67618e-14
0.0938198 	68.2479 	-2.93658e-06 	8.67618e-14
0.0940741 	68.4749 	-2.93658e-06 	8.67617e-14
0.0943283 	68.702 	-2.93658e-06 	8.67617e-14
0.0945826 	68.929 	-2.93658e-06 	8.67617e-14
0.0948368 	69.1561 	-2.93658e-06 	8.67617e-14
0.0950911 	69.3865 	-2.90366e-06 	8.90915e-14
0.0953453 	69.6188 	-2.90366e-06 	8.90914e-14
0.0955996 	69.851 	-2.90366e-06 	8.90914e-14
0.0958539 	70.0833 	-2.90366e-06 	8.90914e-14
0.0961081 	70.3156 	-2.90366e-06 	8.90914e-14
0.0963624 	70.5479 	-2.90366e-06 	8.90914e-14
0.0966166 	70.7802 	-2.90366e-06 	8.90914e-14
0.0968709 	71.0124 	-2.90366e-06 	8.90913e-14
0.0971251 	71.2447 	-2.90366e-06 	8.90913e-14
0.0973794 	71.477 	-2.90366e-06 	8.90913e-14
0.0976336 	71.7113 	-2.82929e-06 	9.14737e-14
0.0978879 	71.9474 	-2.82929e-06 	9.14737e-14
0.0981421 	72.1835 	-2.82929e-06 	9.14737e-14
0.0983964 	72.4196 	-2.82929e-06 	9.14737e-14
0.0986507 	72.6557 	-2.82929e-06 	9.14737e-14
0.0989049 	72.8917 	-2.82929e-06 	9.14737e-14
0.0991592 	73.1278 	-2.82929e-06 	9.14736e-14
0.0994134 	73.3639 	-2.82929e-06 	9.14736e-14
0.0996677 	73.6 	-2.82929e-06 	9.14736e-14
0.0999219 	73.8361 	-2.82929e-06 	9.14736e-14
0.100176 	74.0731 	-2.71022e-06 	9.37829e-14
0.10043 	74.3111 	-2.71022e-06 	9.37829e-14
0.100685 	74.5492 	-2.71022e-06 	9.37828e-14
0.100939 	74.7873 	-2.71022e-06 	9.37828e-14
0.101193 	75.0254 	-2.71022e-06 	9.37828e-14
0.101447 	75.2635 	-2.71022e-06 	9.37828e-14
0.101702 	75.5016 	-2.71022e-06 	9.37828e-14
0.101956 	75.7397 	-2.71022e-06 	9.37828e-14
0.10221 	75.9778 	-2.71022e-06 	9.37828e-14
0.102464 	76.2159 	-2.71022e-06 	9.37827e-14
0.102719 	76.4539 	-2.53205e-06 	9.59079e-14
0.102973 	76.6919 	-2.53205e-06 	9.59078e-14
0.103227 	76.9298 	-2.53205e-06 	9.59078e-14
0.103481 	77.1677 	-2.53205e-06 	9.59078e-14
0.103736 	77.4057 	-2.53205e-06 	9.59078e-14
0.10399 	77.6436 	-2.53205e-06 	9.59078e-14
0.104244 	77.8815 	-2.53205e-06 	9.59078e-14
0.104498 	78.1195 	-2.53205e-06 	9.59078e-14
0.104753 	78.3574 	-2.53205e-06 	9.59077e-14
0.105007 	78.5953 	-2.53205e-06 	9.59077e-14
0.105261 	78.8325 	-2.34882e-06 	9.79268e-14
0.105516 	79.0679 	-2.34882e-06 	9.79268e-14
0.10577 	79.3032 	-2.34882e-06 	9.79268e-14
0.106024 	79.5386 	-2.34882e-06 	9.79268e-14
0.106278 	79.7739 	-2.34882e-06 	9.79268e-14
0.106533 	80.0093 	-2.34882e-06 	9.79267e-14
0.106787 	80.2446 	-2.34882e-06 	9.79267e-14
0.107041 	80.48 	-2.34882e-06 	9.79267e-14
0.107295 	80.7153 	-2.34882e-06 	9.79267e-14
0.10755 	80.9507 	-2.34882e-06 	9.79267e-14
0.107804 	81.1851 	-2.05972e-06 	9.97836e-14
0.108058 	81.4153 	-2.05972e-06 	9.97836e-14
0.108312 	81.6455 	-2.05972e-06 	9.97836e-14
0.108567 	81.8757 	-2.05972e-06 	9.97836e-14
0.108821 	82.1059 	-2.05972e-06 	9.97836e-14
0.109075 	82.3361 	-2.05972e-06 	9.97836e-14
0.109329 	82.5663 	-2.05972e-06 	9.97836e-14
0.109584 	82.7965 	-2.05972e-06 	9.97835e-14
0.109838 	83.0267 	-2.05972e-06 	9.97835e-14
0.110092 	83.2569 	-2.05972e-06 	9.97835e-14
0.110346 	83.4864 	-1.75759e-06 	1.01341e-13
0.110601 	83.7086 	-1.75759e-06 	1.01341e-13
0.110855 	83.9308 	-1.75759e-06 	1.01341e-13
0.111109 	84.1531 	-1.75759e-06 	1.01341e-13
0.111363 	84.3753 	-1.75759e-06 	1.01341e-13
0.111618 	84.5975 	-1.75759e-06 	1.01341e-13
0.111872 	84.8198 	-1.75759e-06 	1.01341e-13
0.112126 	85.042 	-1.75759e-06 	1.01341e-13
0.11238 	85.2642 	-1.75759e-06 	1.01341e-13
0.112635 	85.4864 	-1.75759e-06 	1.01341e-13
0.112889 	85.7087 	-2.86772e-06 	4.42137e-16
0.113143 	85.9198 	-1.41244e-06 	1.02658e-13
0.113397 	86.131 	-1.41244e-06 	1.02658e-13
0.113652 	86.3421 	-1.41244e-06 	1.02658e-13
0.113906 	86.5533 	-1.41244e-06 	1.02658e-13
0.11416 	86.7644 	-1.41244e-06 	1.02658e-13
0.114414 	86.9756 	-1.41244e-06 	1.02658e-13
0.114669 	87.1867 	-1.41244e-06 	1.02658e-13
0.114923 	87.3978 	-1.41244e-06 	1.02658e-13
0.115177 	87.609 	-1.41244e-06 	1.02658e-13
0.115431 	87.8201 	-1.41244e-06 	1.02658e-13
0.115686 	88.0182 	-1.0125e-06 	1.0369e-13
0.11594 	88.2149 	-1.0125e-06 	1.0369e-13
0.116194 	88.4117 	-1.0125e-06 	1.0369e-13
0.116448 	88.6084 	-1.0125e-06 	1.0369e-13
0.116703 	88.8052 	-1.0125e-06 	1.0369e-13
0.116957 	89.0019 	-1.0125e-06 	1.0369e-13
0.117211 	89.1987 	-1.0125e-06 	1.0369e-13
0.117465 	89.3954 	-1.0125e-06 	1.0369e-13
0.11772 	89.5922 	-1.0125e-06 	1.0369e-13
0.117974 	89.7889 	-1.0125e-06 	1.0369e-13
0.118228 	89.9711 	-6.03565e-07 	1.04413e-13
0.118482 	90.1499 	-6.03565e-07 	1.04413e-13
0.118737 	90.3288 	-6.03565e-07 	1.04413e-13
0.118991 	90.5077 	-6.03565e-07 	1.04413e-13
0.119245 	90.6866 	-6.03565e-07 	1.04413e-13
0.119499 	90.8655 	-6.03565e-07 	1.04413e-13
0.119754 	91.0444 	-6.03565e-07 	1.04413e-13
0.120008 	91.2233 	-6.03565e-07 	1.04413e-13
0.120262 	91.4021 	-6.03565e-07 	1.04413e-13
0.120517 	91.581 	-6.03565e-07 	1.04413e-13
0.120771 	91.7445 	-1.92369e-07 	1.04808e-13
0.121025 	91.9021 	-1.92369e-07 	1.04808e-13
0.121279 	92.0598 	-1.92369e-07 	1.04808e-13
0.121534 	92.2174 	-1.92369e-07 	1.04808e-13
0.121788 	92.375 	-1.92369e-07 	1.04808e-13
0.122042 	92.5327 	-1.92369e-07 	1.04808e-13
0.122296 	92.6903 	-1.92369e-07 	1.04808e-13
0.122551 	92.848 	-1.92369e-07 	1.04808e-13
0.122805 	93.0056 	-1.92369e-07 	1.04808e-13
0.123059 	93.1633 	-1.92369e-07 	1.04808e-13
0.123313 	93.3055 	2.21137e-07 	1.04865e-13
0.123568 	93.4389 	2.21137e-07 	1.04865e-13
0.123822 	93.5724 	2.21137e-07 	1.04865e-13
0.124076 	93.7058 	2.21137e-07 	1.04865e-13
0.12433 	93.8392 	2.21137e-07 	1.04865e-13
0.124585 	93.9726 	2.21137e-07 	1.04865e-13
0.124839 	94.1061 	2.21137e-07 	1.04865e-13
0.125093 	94.2395 	2.21137e-07 	1.04865e-13
0.125347 	94.3729 	2.21137e-07 	1.04865e-13
0.125602 	94.5063 	2.21137e-07 	1.04865e-13
0.125856 	94.6253 	5.96454e-07 	1.0462e-13
0.12611 	94.7322 	5.96454e-07 	1.0462e-13
0.126364 	94.8391 	5.96454e-07 	1.0462e-13
0.126619 	94.946 	5.96454e-07 	1.0462e-13
0.126873 	95.0529 	5.96454e-07 	1.0462e-13
0.127127 	95.1598 	5.96454e-07 	1.0462e-13
0.127381 	95.2667 	5.96454e-07 	1.0462e-13
0.127636 	95.3736 	5.96454e-07 	1.0462e-13
0.12789 	95.4805 	5.96454e-07 	1.0462e-13
0.128144 	95.5874 	5.96454e-07 	1.0462e-13
0.128398 	95.6817 	9.25505e-07 	1.04175e-13
0.128653 	95.7608 	9.25505e-07 	1.04175e-13
0.128907 	95.84 	9.25505e-07 	1.04175e-13
0.129161 	95.9191 	9.25505e-07 	1.04175e-13
0.129415 	95.9982 	9.25505e-07 	1.04175e-13
0.12967 	96.0773 	9.25505e-07 	1.04175e-13
0.129924 	96.1564 	9.25505e-07 	1.04175e-13
0.130178 	96.2356 	9.25505e-07 	1.04175e-13
0.130432 	96.3147 	9.25505e-07 	1.04175e-13
0.130687 	96.3938 	9.25505e-07 	1.04175e-13
0.130941 	96.4628 	1.205e-06 	1.03601e-13
0.131195 	96.5141 	1.205e-06 	1.03601e-13
0.131449 	96.5653 	1.205e-06 	1.03601e-13
0.131704 	96.6166 	1.205e-06 	1.03601e-13
0.131958 	96.6678 	1.205e-06 	1.03601e-13
0.132212 	96.7191 	1.205e-06 	1.03601e-13
0.132466 	96.7703 	1.205e-06 	1.03601e-13
0.132721 	96.8216 	1.205e-06 	1.03601e-13
0.132975 	96.8728 	1.205e-06 	1.03601e-13
0.133229 	96.9241 	1.205e-06 	1.03601e-13
0.133483 	96.968 	1.4261e-06 	1.02919e-13
0.133738 	96.9923 	1.4261e-06 	1.02919e-13
0.133992 	97.0166 	1.4261e-06 	1.02919e-13
0.134246 	97.0409 	1.4261e-06 	1.02919e-13
0.134501 	97.0652 	1.4261e-06 	1.02919e-13
0.134755 	97.0896 	1.4261e-06 	1.02919e-13
0.135009 	97.1139 	1.4261e-06 	1.02919e-13
0.135263 	97.1382 	1.4261e-06 	1.02919e-13
0.135518 	97.1625 	1.4261e-06 	1.02919e-13
0.135772 	97.1869 	1.4261e-06 	1.02919e-13
0.136026 	97.2066 	1.62482e-06 	1.02161e-13
0.13628 	97.2057 	1.62482e-06 	1.02161e-13
0.136535 	97.2047 	1.62482e-06 	1.02161e-13
0.136789 	97.2038 	1.62482e-06 	1.02161e-13
0.137043 	97.2029 	1.62482e-06 	1.02161e-13
0.137297 	97.202 	1.62482e-06 	1.02161e-13
0.137552 	97.201 	1.62482e-06 	1.02161e-13
0.137806 	97.2001 	1.62482e-06 	1.02161e-13
0.13806 	97.1992 	1.62482e-06 	1.02161e-13
0.138314 	97.1983 	1.62482e-06 	1.02161e-13
0.138569 	97.1952 	1.78134e-06 	1.01207e-13
0.138823 	97.1711 	1.78134e-06 	1.01207e-13
0.139077 	97.147 	1.78134e-06 	1.01207e-13
0.139331 	97.1228 	1.78134e-06 	1.01207e-13
0.139586 	97.0987 	1.78134e-06 	1.01207e-13
0.13984 	97.0745 	1.78134e-06 	1.01207e-13
0.140094 	97.0504 	1.78134e-06 	1.01207e-13
0.140348 	97.0263 	1.78134e-06 	1.01207e-13
0.140603 	97.0021 	1.78134e-06 	1.01207e-13
0.140857 	96.978 	1.78134e-06 	1.01207e-13
0.141111 	96.9538 	9.68054e-07 	3.28958e-16
0.141365 	96.9086 	1.9068e-06 	1.0023e-13
0.14162 	96.8634 	1.9068e-06 	1.0023e-13
0.141874 	96.8182 	1.9068e-06 	1.0023e-13
0.142128 	96.773 	1.9068e-06 	1.0023e-13
0.142382 	96.7278 	1.9068e-06 	1.0023e-13
0.142637 	96.6826 	1.9068e-06 	1.0023e-13
0.142891 	96.6374 	1.9068e-06 	1.0023e-13
0.143145 	96.5922 	1.9068e-06 	1.0023e-13
0.143399 	96.547 	1.9068e-06 	1.0023e-13
0.143654 	96.5018 	1.9068e-06 	1.0023e-13
0.143908 	96.4394 	2.02412e-06 	9.91141e-14
0.144162 	96.3753 	2.02412e-06 	9.91141e-14
0.144416 	96.3112 	2.02412e-06 	9.91141e-14
0.144671 	96.247 	2.02412e-06 	9.91141e-14
0.144925 	96.1829 	2.02412e-06 	9.91141e-14
0.145179 	96.1188 	2.02412e-06 	9.91141e-14
0.145433 	96.0547 	2.02412e-06 	9.91141e-14
0.145688 	95.9906 	2.02412e-06 	9.91141e-14
0.145942 	95.9264 	2.02412e-06 	9.91141e-14
0.146196 	95.8623 	2.02412e-06 	9.91141e-14
0.14645 	95.7844 	2.13021e-06 	9.79159e-14
0.146705 	95.7034 	2.13021e-06 	9.79159e-14
0.146959 	95.6224 	2.13021e-06 	9.79159e-14
0.147213 	95.5414 	2.13021e-06 	9.79159e-14
0.147467 	95.4604 	2.13021e-06 	9.79159e-14
0.147722 	95.3794 	2.13021e-06 	9.79159e-14
0.147976 	95.2984 	2.13021e-06 	9.79159e-14
0.14823 	95.2174 	2.13021e-06 	9.79159e-14
0.148484 	95.1364 	2.13021e-06 	9.79159e-14
0.148739 	95.0554 	2.13021e-06 	9.79159e-14
0.148993 	94.9635 	2.23115e-06 	9.66955e-14
0.149247 	94.8675 	2.23115e-06 	9.66955e-14
0.149502 	94.7716 	2.23115e-06 	9.66955e-14
0.149756 	94.6756 	2.23115e-06 	9.66955e-14
0.15001 	94.5796 	2.23115e-06 	9.66955e-14
0.150264 	94.4836 	2.23115e-06 	9.66956e-14
0.150519 	94.3876 	2.23115e-06 	9.66956e-14
0.150773 	94.2916 	2.23115e-06 	9.66956e-14
0.151027 	94.1957 	2.23115e-06 	9.66956e-14
0.151281 	94.0997 	2.23115e-06 	9.66956e-14
0.151536 	93.9953 	2.32701e-06 	9.54084e-14
0.15179 	93.8862 	2.32701e-06 	9.54085e-14
0.152044 	93.777 	2.32701e-06 	9.54085e-14
0.152298 	93.6679 	2.32701e-06 	9.54085e-14
0.152553 	93.5587 	2.32701e-06 	9.54085e-14
0.152807 	93.4496 	2.32701e-06 	9.54085e-14
0.153061 	93.3404 	2.32701e-06 	9.54085e-14
0.153315 	93.2313 	2.32701e-06 	9.54085e-14
0.15357 	93.1221 	2.32701e-06 	9.54085e-14
0.153824 	93.013 	2.32701e-06 	9.54085e-14
0.154078 	92.8976 	2.41449e-06 	9.4065e-14
0.154332 	92.7771 	2.41449e-06 	9.4065e-14
0.154587 	92.6566 	2.41449e-06 	9.4065e-14
0.154841 	92.5361 	2.41449e-06 	9.4065e-14
0.155095 	92.4156 	2.41449e-06 	9.4065e-14
0.155349 	92.2951 	2.41449e-06 	9.4065e-14
0.155604 	92.1746 	2.41449e-06 	9.4065e-14
0.155858 	92.0541 	2.41449e-06 	9.4065e-14
0.156112 	91.9336 	2.41449e-06 	9.4065e-14
0.156366 	91.8131 	2.41449e-06 	9.4065e-14
0.156621 	91.6882 	2.49026e-06 	9.2672e-14
0.156875 	91.5582 	2.49026e-06 	9.2672e-14
0.157129 	91.4282 	2.49026e-06 	9.2672e-14
0.157383 	91.2982 	2.49026e-06 	9.2672e-14
0.157638 	91.1681 	2.49026e-06 	9.2672e-14
0.157892 	91.0381 	2.49026e-06 	9.2672e-14
0.158146 	90.9081 	2.49026e-06 	9.26721e-14
0.1584 	90.7781 	2.49026e-06 	9.26721e-14
0.158655 	90.648 	2.49026e-06 	9.26721e-14
0.158909 	90.518 	2.49026e-06 	9.26721e-14
0.159163 	90.3852 	2.55214e-06 	9.1283e-14
0.159417 	90.2476 	2.55214e-06 	9.1283e-14
0.159672 	90.1099 	2.55214e-06 	9.1283e-14
0.159926 	89.9722 	2.55214e-06 	9.1283e-14
0.16018 	89.8346 	2.55214e-06 	9.1283e-14
0.160434 	89.6969 	2.55214e-06 	9.1283e-14
0.160689 	89.5593 	2.55214e-06 	9.1283e-14
0.160943 	89.4216 	2.55214e-06 	9.12831e-14
0.161197 	89.284 	2.55214e-06 	9.12831e-14
0.161451 	89.1463 	2.55214e-06 	9.12831e-14
0.161706 	89.0071 	2.59942e-06 	8.98746e-14
0.16196 	88.8637 	2.59942e-06 	8.98746e-14
0.162214 	88.7203 	2.59942e-06 	8.98746e-14
0.162468 	88.5769 	2.59942e-06 	8.98746e-14
0.162723 	88.4335 	2.59942e-06 	8.98746e-14
0.162977 	88.2901 	2.59942e-06 	8.98747e-14
0.163231 	88.1467 	2.59942e-06 	8.98747e-14
0.163485 	88.0032 	2.59942e-06 	8.98747e-14
0.16374 	87.8598 	2.59942e-06 	8.98747e-14
0.163994 	87.7164 	2.59942e-06 	8.98747e-14
0.164248 	87.5723 	2.6325e-06 	8.83874e-14
0.164503 	87.425 	2.6325e-06 	8.83874e-14
0.164757 	87.2776 	2.6325e-06 	8.83874e-14
0.165011 	87.1303 	2.6325e-06 	8.83874e-14
0.165265 	86.9829 	2.6325e-06 	8.83874e-14
0.16552 	86.8356 	2.6325e-06 	8.83874e-14
0.165774 	86.6882 	2.6325e-06 	8.83874e-14
0.166028 	86.5409 	2.6325e-06 	8.83874e-14
0.166282 	86.3935 	2.6325e-06 	8.83874e-14
0.166537 	86.2462 	2.6325e-06 	8.83874e-14
0.166791 	86.0986 	2.65226e-06 	8.68765e-14
0.167045 	85.949 	2.65226e-06 	8.68765e-14
0.167299 	85.7994 	2.65226e-06 	8.68766e-14
0.167554 	85.6498 	2.65226e-06 	8.68766e-14
0.167808 	85.5002 	2.65226e-06 	8.68766e-14
0.168062 	85.3506 	2.65226e-06 	8.68766e-14
0.168316 	85.201 	2.65226e-06 	8.68766e-14
0.168571 	85.0514 	2.65226e-06 	8.68766e-14
0.168825 	84.9018 	2.65226e-06 	8.68766e-14
0.169079 	84.7522 	2.65226e-06 	8.68766e-14
0.169333 	84.6025 	2.01292e-06 	2.05001e-16