/*--------------------------------*- C++ -*----------------------------------*\
| =========                 |                                                 |
| \\      /  F ield         | OpenFOAM: The Open Source CFD Toolbox           |
|  \\    /   O peration     | Version:  v3.0+                                 |
|   \\  /    A nd           | Web:      www.OpenFOAM.com                      |
|    \\/     M anipulation  |                                                 |
\*---------------------------------------------------------------------------*/
FoamFile
{
    version     2.0;
    format      ascii;
    class       volVectorField;
    location    "4000";
    object      D;
}
// * * * * * * * * * * * * * * * * * * * * * * * * * * * * * * * * * * * * * //

dimensions      [0 1 0 0 0 0 0];

internalField   nonuniform List<vector> 
24076
(
(3.68668e-06 3.63807e-06 0)
(4.17716e-09 4.66324e-08 0)
(3.2737e-11 6.57532e-10 0)
(3.31949e-11 6.38549e-10 0)
(9.66357e-07 2.83855e-06 0)
(5.33513e-09 5.54047e-08 0)
(4.03561e-09 4.68813e-08 0)
(3.77335e-06 3.66454e-06 0)
(-3.23652e-12 4.88202e-11 0)
(8.54808e-06 2.65594e-05 0)
(-1.13623e-06 2.42691e-06 0)
(8.71651e-06 2.68235e-05 0)
(1.49448e-06 1.56115e-06 0)
(8.88843e-07 2.82425e-06 0)
(9.29955e-06 2.16686e-05 0)
(1.57971e-06 2.03983e-05 0)
(-1.61425e-05 0.000135076 0)
(1.826e-05 0.000135162 0)
(9.53721e-07 1.12132e-05 0)
(1.77848e-06 2.05115e-05 0)
(9.06527e-06 2.15056e-05 0)
(-1.10303e-06 4.7843e-06 0)
(5.22032e-09 7.48981e-08 0)
(-1.09348e-06 2.36791e-06 0)
(2.99963e-07 1.23077e-06 0)
(8.02287e-07 1.11643e-05 0)
(-1.21686e-07 1.95722e-07 0)
(5.21339e-09 5.46239e-08 0)
(1.12318e-07 2.42211e-05 0)
(2.35851e-07 1.21169e-06 0)
(-2.29909e-07 2.41921e-05 0)
(1.11879e-10 1.13272e-08 0)
(3.34224e-06 1.35396e-05 0)
(1.92379e-06 5.55809e-06 0)
(3.50947e-06 1.3591e-05 0)
(6.41358e-06 1.96735e-05 0)
(1.56396e-06 1.62652e-06 0)
(-1.60704e-05 0.000136084 0)
(1.82129e-05 0.00013618 0)
(3.0233e-06 1.80424e-06 0)
(-5.89069e-07 3.61524e-07 0)
(-7.19142e-07 4.96332e-05 0)
(1.38106e-06 2.01734e-06 0)
(1.83693e-06 5.56434e-06 0)
(6.17288e-06 1.95701e-05 0)
(-6.24093e-06 1.84502e-05 0)
(6.98728e-10 5.05804e-08 0)
(2.992e-06 2.65341e-05 0)
(-1.29432e-07 1.99824e-07 0)
(-4.51641e-06 1.96439e-05 0)
(1.08276e-10 1.69146e-09 0)
(-1.08111e-07 1.78233e-07 0)
(-8.86365e-12 6.30261e-11 0)
(5.12652e-09 6.01143e-08 0)
(-3.23777e-12 5.2265e-11 0)
(8.69605e-06 7.2264e-05 0)
(1.30747e-06 4.89674e-06 0)
(5.4757e-06 7.96826e-06 0)
(3.80774e-06 0.000360591 0)
(9.35524e-06 7.2361e-05 0)
(-6.28112e-06 1.86937e-05 0)
(-1.06058e-09 2.26868e-08 0)
(-4.28039e-06 7.9744e-06 0)
(-4.27849e-06 1.95241e-05 0)
(-7.33507e-07 2.63249e-06 0)
(5.36721e-06 7.96662e-06 0)
(1.66176e-06 4.47229e-06 0)
(-6.61936e-07 2.62365e-06 0)
(1.91608e-09 3.40835e-08 0)
(1.68419e-06 4.39694e-06 0)
(2.6478e-06 0.00035787 0)
(-3.76649e-09 9.8477e-08 0)
(-9.19418e-06 5.18322e-05 0)
(-4.92346e-10 5.31008e-09 0)
(-5.81839e-07 3.56886e-07 0)
(2.74151e-06 2.64724e-05 0)
(-1.18809e-06 4.84632e-06 0)
(-9.53174e-06 5.22424e-05 0)
(3.31608e-06 5.44665e-06 0)
(-4.18706e-06 7.85274e-06 0)
(1.06073e-09 5.09487e-08 0)
(4.1822e-06 4.62181e-05 0)
(-3.32375e-07 6.3636e-06 0)
(3.1038e-08 1.99079e-06 0)
(-3.50705e-07 3.01863e-07 0)
(-7.77779e-12 5.43661e-11 0)
(1.11171e-05 0.000224491 0)
(-9.89394e-06 7.66583e-05 0)
(4.04496e-07 0.000357315 0)
(9.29084e-06 0.000224648 0)
(3.82979e-06 4.6513e-05 0)
(2.50985e-06 0.00036261 0)
(-1.74059e-06 8.47243e-06 0)
(1.38534e-06 4.94009e-06 0)
(-1.87094e-09 2.04821e-06 0)
(-9.85097e-07 1.03402e-06 0)
(-1.88054e-06 0.000152211 0)
(6.85308e-06 0.000231745 0)
(2.69427e-11 1.09842e-08 0)
(1.52259e-06 3.35128e-06 0)
(-3.86759e-07 6.47819e-06 0)
(-8.39032e-07 1.68751e-06 0)
(-4.62297e-07 5.00944e-05 0)
(3.25317e-06 5.35634e-06 0)
(-8.37246e-07 3.42913e-05 0)
(-6.38802e-07 4.43967e-07 0)
(-1.48354e-10 2.21772e-09 0)
(-5.44e-10 9.36437e-08 0)
(-2.51697e-06 6.70691e-06 0)
(-2.66702e-06 3.69873e-05 0)
(-2.11945e-06 0.000153509 0)
(2.36765e-06 2.68758e-05 0)
(-2.5022e-12 1.46752e-10 0)
(-1.17804e-09 2.2216e-08 0)
(1.60336e-05 0.000291528 0)
(9.29209e-11 1.64951e-09 0)
(-9.82328e-07 2.52061e-06 0)
(-2.32364e-06 3.68504e-05 0)
(6.55076e-06 0.000233227 0)
(-3.06045e-06 3.6887e-05 0)
(5.60571e-07 3.00674e-05 0)
(-5.12067e-06 2.9773e-05 0)
(-6.18163e-07 4.53855e-07 0)
(2.94071e-06 1.75591e-06 0)
(6.20879e-06 2.28088e-05 0)
(-1.01012e-05 7.73308e-05 0)
(-2.54558e-06 6.81722e-06 0)
(7.15228e-06 3.79036e-05 0)
(-1.10819e-06 3.40189e-05 0)
(4.35545e-10 7.92581e-09 0)
(-5.10515e-06 2.94627e-05 0)
(-3.26637e-06 3.6617e-05 0)
(-3.60185e-06 7.02505e-05 0)
(4.84655e-09 7.5619e-08 0)
(-1.69491e-06 8.5844e-06 0)
(-1.46066e-07 1.95081e-07 0)
(1.1787e-06 8.09156e-06 0)
(1.31061e-06 1.96191e-06 0)
(2.83686e-06 0.000205919 0)
(1.4464e-06 8.78401e-06 0)
(1.57281e-06 8.81027e-06 0)
(-3.07359e-12 1.38338e-10 0)
(-1.00291e-08 2.40446e-08 0)
(-2.46184e-06 0.0001723 0)
(1.38959e-05 0.000178102 0)
(2.47425e-06 2.66122e-05 0)
(-3.82251e-06 7.08319e-05 0)
(9.10232e-06 0.000104615 0)
(1.11389e-06 9.65748e-06 0)
(1.63275e-10 3.72982e-09 0)
(-4.39738e-06 1.65499e-05 0)
(-3.13257e-13 2.42024e-12 0)
(1.40003e-06 4.91677e-07 0)
(1.41755e-06 2.60023e-06 0)
(3.85751e-06 7.71801e-06 0)
(2.32185e-06 4.74239e-05 0)
(3.11814e-06 2.24472e-06 0)
(-5.87842e-07 3.03228e-05 0)
(1.10527e-06 8.17704e-06 0)
(-2.27261e-11 8.06609e-10 0)
(1.57884e-08 -3.70845e-08 0)
(-3.23969e-12 3.91561e-11 0)
(1.08482e-05 2.82895e-05 0)
(-2.87287e-06 5.66919e-06 0)
(1.10457e-06 7.43097e-05 0)
(2.1845e-05 0.000206796 0)
(-1.99691e-05 0.0002068 0)
(-1.65178e-06 1.22324e-05 0)
(-1.12678e-06 3.65046e-06 0)
(-4.53892e-07 2.31675e-07 0)
(2.65981e-06 7.72826e-06 0)
(1.79815e-09 8.97532e-08 0)
(2.59053e-07 1.40808e-05 0)
(2.63373e-06 1.16015e-05 0)
(-2.85121e-06 1.2259e-05 0)
(4.739e-06 1.22613e-05 0)
(-9.9281e-06 7.24258e-05 0)
(1.17774e-05 7.24304e-05 0)
(1.03345e-05 3.06107e-05 0)
(-4.91225e-06 1.53104e-05 0)
(-4.05461e-06 7.84086e-06 0)
(-7.93414e-10 5.81296e-09 0)
(2.46029e-06 5.2993e-06 0)
(-1.53869e-07 -1.41961e-08 0)
(-1.6855e-07 -5.73927e-09 0)
(-9.05706e-08 3.58008e-06 0)
(-1.14353e-06 3.74127e-06 0)
(-5.24975e-07 4.50537e-07 0)
(-1.47852e-06 2.8764e-06 0)
(9.08635e-07 4.83896e-07 0)
(1.05266e-09 1.42535e-08 0)
(-3.00524e-06 1.67512e-05 0)
(-1.15227e-05 0.000200061 0)
(-6.05579e-06 4.65912e-05 0)
(5.48351e-06 4.38031e-05 0)
(6.63855e-06 1.29236e-05 0)
(5.08651e-09 5.72912e-08 0)
(1.06408e-05 7.16037e-05 0)
(-8.78331e-06 7.15925e-05 0)
(-4.75551e-06 1.29222e-05 0)
(2.45719e-06 5.20194e-06 0)
(-4.79614e-07 4.10617e-07 0)
(-2.03317e-05 0.000229515 0)
(2.22112e-05 0.000229515 0)
(3.36206e-06 0.000179046 0)
(1.25857e-06 2.92402e-06 0)
(-5.52275e-06 1.74427e-05 0)
(-1.08168e-05 9.96027e-05 0)
(2.66743e-06 1.8277e-06 0)
(4.97174e-08 1.41426e-05 0)
(-2.29349e-09 6.03919e-08 0)
(1.41751e-06 1.6019e-05 0)
(-4.15586e-08 1.35174e-07 0)
(-4.48697e-06 1.62923e-05 0)
(-3.44349e-12 3.88448e-11 0)
(4.29888e-07 1.16973e-05 0)
(-1.51501e-07 1.98077e-07 0)
(-4.35554e-06 1.04357e-05 0)
(-2.30447e-05 0.000348245 0)
(2.49257e-05 0.000348245 0)
(-4.71117e-07 0.000128495 0)
(9.6102e-06 2.15924e-05 0)
(4.30163e-06 3.64089e-06 0)
(-9.4544e-07 5.77258e-06 0)
(7.03706e-06 1.51959e-05 0)
(-5.37988e-11 3.38455e-10 0)
(-4.0541e-11 7.39908e-10 0)
(-6.389e-06 3.90971e-05 0)
(-6.85534e-11 4.67105e-10 0)
(8.05374e-06 0.000222459 0)
(-2.93584e-11 7.52819e-10 0)
(-3.0719e-06 1.69594e-05 0)
(-7.73515e-11 1.34685e-09 0)
(-8.89512e-10 6.62689e-09 0)
(1.412e-06 6.36005e-06 0)
(5.3645e-06 8.12449e-05 0)
(-7.32313e-07 6.49991e-07 0)
(7.2287e-07 1.73346e-07 0)
(-6.15059e-06 7.28942e-05 0)
(-1.18919e-05 5.21777e-05 0)
(1.38108e-05 5.21922e-05 0)
(-3.62199e-07 3.05708e-07 0)
(-8.00123e-06 9.28109e-05 0)
(-7.21302e-06 9.20976e-05 0)
(1.7393e-05 9.64613e-05 0)
(-1.55992e-05 9.64854e-05 0)
(-6.09306e-06 5.28697e-05 0)
(6.86391e-06 1.3007e-05 0)
(-4.98133e-06 1.30057e-05 0)
(-1.0006e-06 2.15939e-06 0)
(-1.55822e-05 0.000173732 0)
(5.03363e-06 0.000149929 0)
(5.30148e-08 -4.24763e-08 0)
(4.69472e-06 6.21845e-06 0)
(1.81524e-05 9.68789e-05 0)
(-1.62734e-05 9.68795e-05 0)
(1.92018e-09 2.92637e-08 0)
(-5.04036e-11 9.7094e-09 0)
(-6.09506e-08 1.3957e-07 0)
(7.08181e-06 0.000211496 0)
(1.33712e-06 2.54405e-06 0)
(4.97436e-06 4.9048e-06 0)
(5.11964e-06 1.45894e-05 0)
(-2.15555e-12 4.15453e-11 0)
(-1.61668e-06 7.46636e-06 0)
(3.8866e-07 1.2085e-06 0)
(-5.43319e-06 1.7243e-05 0)
(1.79291e-06 4.31415e-05 0)
(-5.77198e-06 4.68888e-05 0)
(2.97968e-11 4.39539e-10 0)
(-1.22886e-05 0.0001651 0)
(1.425e-05 0.000165133 0)
(4.58358e-06 6.15985e-06 0)
(1.94652e-06 2.74846e-05 0)
(-1.90554e-07 2.31556e-07 0)
(-6.66848e-06 6.52065e-05 0)
(-1.03169e-05 7.90466e-05 0)
(1.8905e-09 8.89341e-08 0)
(-5.17137e-06 1.89875e-05 0)
(1.10692e-05 2.85643e-05 0)
(1.24998e-10 2.71564e-09 0)
(-2.1329e-07 0.000183793 0)
(1.04137e-06 7.83044e-05 0)
(-1.14002e-07 1.68997e-07 0)
(8.60197e-07 7.22382e-06 0)
(-7.0659e-07 6.09199e-07 0)
(-1.10319e-09 1.08799e-08 0)
(5.54196e-06 1.46288e-05 0)
(-1.99583e-06 2.8861e-06 0)
(2.35886e-06 4.59913e-06 0)
(-3.68078e-06 0.00017202 0)
(3.84812e-06 4.4208e-06 0)
(2.56793e-06 1.17386e-05 0)
(1.39904e-06 3.42552e-06 0)
(2.26565e-05 0.000208434 0)
(-2.07775e-05 0.000208434 0)
(-3.30521e-06 1.7356e-05 0)
(1.34173e-11 6.78736e-10 0)
(-2.43729e-10 2.64e-09 0)
(5.21363e-06 3.17057e-05 0)
(-6.35876e-06 5.34283e-05 0)
(8.30688e-06 5.34665e-05 0)
(-9.03045e-06 0.000106257 0)
(1.09399e-05 0.000106338 0)
(-7.16114e-07 5.91417e-07 0)
(-3.77408e-12 1.00759e-10 0)
(-6.10295e-07 0.000131075 0)
(-6.20409e-06 3.87349e-05 0)
(-1.28285e-07 5.71396e-06 0)
(-3.52028e-06 0.00015543 0)
(-1.10595e-06 2.48971e-05 0)
(1.36121e-06 4.30238e-05 0)
(2.76475e-12 8.07752e-11 0)
(-4.16361e-06 2.36094e-05 0)
(-1.91707e-06 1.6283e-05 0)
(5.87685e-06 7.785e-06 0)
(4.40399e-06 2.35347e-05 0)
(-2.15798e-10 1.27576e-09 0)
(-1.43815e-06 1.73929e-06 0)
(4.83469e-07 1.15394e-05 0)
(8.68765e-06 5.79917e-05 0)
(-5.16162e-06 1.52184e-05 0)
(-3.87633e-06 2.35451e-05 0)
(-1.18266e-09 1.72629e-08 0)
(4.7657e-09 5.97294e-08 0)
(4.88969e-06 1.46956e-05 0)
(2.1107e-05 0.000157163 0)
(-1.92354e-05 0.000157156 0)
(2.73864e-06 1.91326e-06 0)
(-1.58539e-07 2.57062e-06 0)
(-3.06948e-07 7.33482e-06 0)
(1.2353e-05 7.19147e-05 0)
(-1.04763e-05 7.19133e-05 0)
(1.79925e-06 7.85664e-05 0)
(5.64541e-06 3.58603e-05 0)
(5.78806e-06 1.37169e-05 0)
(-1.03491e-06 2.49216e-06 0)
(5.80638e-09 6.45626e-08 0)
(-3.2281e-06 9.54519e-06 0)
(9.14251e-07 7.18809e-07 0)
(-3.48081e-06 6.2409e-06 0)
(-3.25338e-07 0.000139167 0)
(1.8017e-09 2.68969e-08 0)
(-6.06389e-06 7.97436e-05 0)
(9.37238e-07 3.01122e-05 0)
(-7.52976e-07 6.61068e-07 0)
(-6.34038e-08 1.45089e-07 0)
(8.62087e-08 4.0783e-06 0)
(2.2932e-06 4.81287e-05 0)
(7.92321e-06 2.62943e-05 0)
(-9.51965e-07 3.79301e-06 0)
(3.39596e-07 2.6715e-06 0)
(-6.19932e-06 3.73077e-05 0)
(1.52816e-06 1.20269e-05 0)
(4.40721e-06 5.15977e-06 0)
(5.17613e-06 4.34241e-05 0)
(4.23665e-06 1.3013e-05 0)
(1.30322e-06 1.00993e-05 0)
(-1.29472e-05 0.000199041 0)
(4.16076e-07 1.00743e-06 0)
(9.58622e-07 2.90427e-05 0)
(4.37273e-06 7.75015e-06 0)
(1.9314e-06 4.53304e-06 0)
(-1.11257e-09 2.71417e-08 0)
(-4.31207e-06 8.59734e-06 0)
(6.52918e-08 4.36554e-09 0)
(-7.97022e-07 2.50189e-05 0)
(7.52254e-06 2.62871e-05 0)
(3.09414e-06 5.39825e-06 0)
(1.31082e-06 1.58585e-05 0)
(4.50613e-06 5.19943e-06 0)
(7.48623e-07 1.26897e-06 0)
(9.1617e-06 2.27265e-05 0)
(-2.46928e-08 1.14234e-07 0)
(6.57665e-06 1.27297e-05 0)
(-4.69368e-06 1.2728e-05 0)
(-8.31074e-11 3.16276e-09 0)
(-1.38652e-05 0.000139339 0)
(1.57279e-05 0.000139174 0)
(-1.10177e-07 1.81377e-07 0)
(-5.81128e-07 5.03073e-07 0)
(-8.66744e-07 3.06111e-05 0)
(1.29751e-06 7.64305e-07 0)
(-4.22252e-07 1.57694e-06 0)
(-6.99284e-06 5.22062e-05 0)
(1.12306e-09 2.06178e-08 0)
(-1.39205e-06 1.16576e-05 0)
(2.03663e-09 8.94244e-08 0)
(8.28714e-12 4.81792e-10 0)
(3.619e-06 4.65486e-06 0)
(2.3148e-07 2.413e-06 0)
(-2.16884e-05 0.000228559 0)
(2.35679e-05 0.000228559 0)
(8.45344e-06 0.000212407 0)
(-1.15432e-05 9.89998e-05 0)
(-4.52748e-06 1.2595e-05 0)
(6.41075e-06 1.25969e-05 0)
(-1.97057e-06 4.22361e-06 0)
(-6.48606e-06 5.21614e-05 0)
(1.48533e-06 3.41698e-06 0)
(-5.07765e-06 2.37585e-05 0)
(9.42432e-06 7.91625e-05 0)
(-5.45996e-12 3.72412e-10 0)
(-6.42463e-07 2.19885e-06 0)
(8.24221e-06 1.85756e-05 0)
(-1.1714e-05 0.000166457 0)
(1.37256e-05 0.000166487 0)
(3.75155e-06 3.11659e-05 0)
(1.4029e-06 1.31158e-05 0)
(-2.40698e-06 0.000183758 0)
(-7.42621e-06 1.92133e-05 0)
(1.10549e-05 4.14133e-05 0)
(4.32703e-12 4.60842e-10 0)
(6.94213e-07 1.35685e-05 0)
(5.78593e-06 0.000151421 0)
(8.74926e-07 5.17802e-07 0)
(1.21675e-05 0.000176163 0)
(5.19055e-12 1.23442e-10 0)
(-2.00605e-06 2.93606e-06 0)
(-8.67065e-06 0.000105385 0)
(1.05789e-05 0.000105461 0)
(-1.61488e-06 7.57443e-06 0)
(2.17569e-06 2.2918e-06 0)
(-5.72211e-07 1.09586e-06 0)
(6.26644e-06 0.000227427 0)
(-9.9187e-07 3.73273e-06 0)
(1.33899e-06 2.92712e-06 0)
(2.72249e-06 4.62186e-06 0)
(-3.11214e-07 7.44161e-06 0)
(-5.96306e-08 1.38752e-07 0)
(4.01884e-06 6.45202e-06 0)
(-2.16959e-06 2.32686e-05 0)
(-5.22729e-08 3.64413e-06 0)
(1.18041e-06 5.66834e-06 0)
(1.16198e-05 0.000168289 0)
(-1.16276e-06 1.82598e-05 0)
(6.90008e-09 6.00502e-08 0)
(4.6571e-06 0.000143468 0)
(-6.07575e-07 5.07262e-07 0)
(1.8184e-06 3.05306e-06 0)
(3.84736e-10 1.43483e-08 0)
(-8.08788e-08 1.4232e-07 0)
(-1.3305e-06 2.20251e-06 0)
(2.33538e-06 4.52476e-06 0)
(7.88723e-07 7.49836e-05 0)
(4.83653e-06 4.99232e-06 0)
(4.36549e-09 5.07508e-08 0)
(1.05859e-05 4.16136e-05 0)
(-4.51187e-06 5.10307e-05 0)
(2.28965e-06 1.01491e-05 0)
(1.16124e-06 5.57992e-06 0)
(-6.02972e-06 7.36943e-05 0)
(1.31304e-05 0.00025049 0)
(9.75221e-06 4.72007e-05 0)
(2.04808e-06 2.64888e-06 0)
(-1.8696e-10 5.12552e-09 0)
(1.38434e-05 0.000291712 0)
(1.36398e-09 3.22489e-08 0)
(-6.04475e-10 3.96405e-09 0)
(2.19772e-07 1.85452e-06 0)
(-6.11703e-09 5.74015e-06 0)
(1.09868e-05 3.6302e-05 0)
(3.13876e-06 5.33309e-06 0)
(-1.60364e-10 1.89371e-09 0)
(-4.70252e-12 3.33968e-11 0)
(-1.4668e-05 0.000115912 0)
(1.67585e-05 0.000115975 0)
(7.55595e-06 3.80907e-05 0)
(-1.30957e-09 1.62218e-08 0)
(-1.08954e-06 1.20105e-06 0)
(-3.73939e-12 1.21604e-10 0)
(6.92477e-07 9.89835e-06 0)
(-1.47571e-06 6.96488e-06 0)
(-8.71106e-06 4.16328e-05 0)
(-1.27101e-05 0.000139134 0)
(1.45736e-05 0.000138969 0)
(3.34448e-06 3.59345e-06 0)
(5.68134e-06 3.36929e-05 0)
(-1.01218e-10 1.14381e-09 0)
(2.54883e-06 5.64248e-06 0)
(1.54779e-06 2.11688e-06 0)
(-5.56303e-06 5.27616e-05 0)
(-4.48819e-06 4.28783e-05 0)
(5.95484e-06 7.93412e-06 0)
(2.8689e-06 7.25364e-06 0)
(1.21386e-06 1.23526e-06 0)
(4.58834e-06 2.90017e-05 0)
(-2.90833e-06 5.60249e-06 0)
(8.68078e-06 9.72337e-05 0)
(8.40962e-06 5.87317e-05 0)
(2.01622e-05 0.000156101 0)
(-1.82905e-05 0.000156093 0)
(-1.69965e-08 1.14965e-07 0)
(9.32429e-06 1.92239e-05 0)
(-1.58039e-06 6.9478e-06 0)
(7.31885e-06 0.000114087 0)
(-6.79037e-10 5.48742e-09 0)
(-1.45105e-05 0.000153023 0)
(-2.61293e-10 2.30849e-09 0)
(1.03451e-05 9.03016e-05 0)
(-1.27491e-06 1.17414e-05 0)
(7.59444e-06 1.65766e-05 0)
(-9.02927e-12 3.64813e-10 0)
(5.78254e-07 0.000222697 0)
(-5.80764e-09 5.27201e-08 0)
(-4.95639e-07 1.34853e-05 0)
(-4.20541e-07 1.03852e-05 0)
(5.26057e-06 1.42267e-05 0)
(-3.13178e-06 5.4029e-06 0)
(-5.78828e-06 2.71299e-05 0)
(-1.05392e-05 4.76511e-05 0)
(-1.54955e-07 2.12823e-07 0)
(1.23457e-05 0.000169578 0)
(1.04198e-05 4.81716e-05 0)
(5.16247e-13 4.51201e-11 0)
(2.38503e-06 1.12913e-06 0)
(1.13793e-05 0.000197443 0)
(-8.67782e-09 5.71405e-08 0)
(-1.74985e-06 4.50211e-06 0)
(5.89118e-06 8.51952e-05 0)
(1.75504e-07 1.79568e-06 0)
(1.79638e-06 0.000117451 0)
(-1.42923e-06 2.80255e-06 0)
(-5.00197e-10 4.86194e-09 0)
(-5.31683e-07 5.72038e-07 0)
(4.4702e-10 1.01003e-08 0)
(1.52465e-06 1.32736e-05 0)
(-1.55076e-05 0.000253565 0)
(1.72756e-05 0.000253524 0)
(-2.97158e-06 2.31447e-05 0)
(-1.34537e-09 1.68045e-08 0)
(4.0954e-06 3.73332e-06 0)
(-1.06978e-09 8.65945e-09 0)
(7.48521e-06 2.81154e-05 0)
(2.27283e-05 0.000362594 0)
(-2.08649e-05 0.000362575 0)
(-9.58895e-12 1.4485e-10 0)
(-7.51055e-09 1.04182e-07 0)
(4.19763e-06 3.56697e-06 0)
(-3.1923e-06 3.06913e-05 0)
(-1.9835e-06 4.14046e-06 0)
(2.38221e-07 2.34875e-06 0)
(8.24933e-06 0.000227289 0)
(-1.27966e-06 3.88257e-05 0)
(5.60198e-11 7.02965e-10 0)
(9.97549e-07 4.60971e-05 0)
(1.85472e-05 0.000240028 0)
(-1.65426e-05 0.000240122 0)
(-1.01139e-11 6.31822e-10 0)
(1.04398e-10 2.64408e-09 0)
(5.68394e-06 3.86159e-05 0)
(-1.31237e-05 0.000253854 0)
(1.48985e-05 0.00025399 0)
(4.3114e-06 8.89174e-06 0)
(3.33454e-07 6.44772e-06 0)
(-9.69753e-11 1.08737e-09 0)
(8.71598e-06 0.000242392 0)
(4.95608e-06 1.35401e-05 0)
(4.407e-07 4.75238e-06 0)
(1.55121e-05 9.24527e-05 0)
(-1.36328e-05 9.24522e-05 0)
(-4.86731e-06 1.35035e-05 0)
(6.75714e-06 1.35012e-05 0)
(4.56071e-06 4.55282e-06 0)
(-1.21927e-12 7.20583e-12 0)
(8.78055e-11 1.85399e-08 0)
(8.33835e-07 1.61912e-05 0)
(3.11811e-06 3.13543e-05 0)
(-1.85776e-10 1.25417e-09 0)
(4.75416e-06 5.44604e-06 0)
(1.21159e-06 1.9786e-06 0)
(2.71999e-12 5.40022e-10 0)
(1.04784e-05 5.9295e-05 0)
(-1.75293e-05 0.000231979 0)
(1.94088e-05 0.000231979 0)
(-6.19264e-07 1.09399e-06 0)
(-2.25837e-06 2.82787e-05 0)
(4.80455e-06 1.3565e-05 0)
(1.28048e-05 0.0002524 0)
(9.28522e-07 1.20991e-05 0)
(-9.08072e-11 1.73184e-09 0)
(3.93384e-06 4.4262e-06 0)
(-2.1374e-11 1.29236e-09 0)
(-3.17839e-09 5.50329e-08 0)
(-5.07182e-06 5.07957e-05 0)
(-4.54565e-07 3.65715e-07 0)
(-6.70454e-07 1.35879e-05 0)
(-1.64503e-06 2.09991e-06 0)
(1.97245e-05 0.000241712 0)
(-1.77751e-05 0.000241765 0)
(4.40053e-06 0.00014227 0)
(9.62787e-06 0.00024447 0)
(-2.32764e-06 2.85841e-05 0)
(-2.95006e-07 2.78338e-07 0)
(2.4795e-06 5.6893e-06 0)
(-3.41723e-08 1.22699e-07 0)
(4.50977e-06 2.92778e-05 0)
(-1.60592e-10 2.0861e-09 0)
(-2.91668e-06 6.55349e-06 0)
(-6.18442e-06 2.73137e-05 0)
(-3.2253e-06 1.42279e-05 0)
(1.47171e-06 1.21726e-05 0)
(-1.18935e-06 1.85344e-05 0)
(1.7176e-06 2.63079e-06 0)
(-1.64337e-07 4.06214e-06 0)
(1.33995e-05 0.000176834 0)
(2.41407e-06 1.5639e-06 0)
(4.18369e-06 8.92978e-06 0)
(-4.27872e-06 1.05448e-05 0)
(5.50699e-06 3.40458e-05 0)
(5.69946e-07 2.78237e-06 0)
(2.79499e-06 1.08026e-05 0)
(-1.87418e-06 8.2539e-05 0)
(-4.70599e-07 3.73544e-07 0)
(9.83272e-06 4.7777e-05 0)
(9.87386e-06 2.18707e-05 0)
(-6.0215e-07 5.23286e-07 0)
(-9.08887e-06 0.000184971 0)
(1.10364e-05 0.000184931 0)
(4.06777e-09 5.98814e-08 0)
(-2.71436e-06 0.00021658 0)
(-9.97417e-07 5.87563e-06 0)
(3.5827e-11 1.202e-09 0)
(5.76275e-06 1.47248e-05 0)
(-1.24189e-05 7.83916e-05 0)
(2.24346e-05 0.000278851 0)
(-2.05855e-05 0.000278877 0)
(-5.73606e-06 3.23951e-05 0)
(-1.92991e-12 5.41094e-10 0)
(3.59895e-07 1.01268e-05 0)
(-5.3177e-06 2.03846e-05 0)
(1.40057e-06 5.05649e-06 0)
(-6.8172e-06 6.58302e-05 0)
(-2.74318e-06 2.33105e-05 0)
(1.01142e-09 3.0775e-08 0)
(-5.96579e-11 4.84445e-10 0)
(1.30506e-06 1.6968e-05 0)
(9.06848e-06 9.97062e-05 0)
(2.46211e-06 0.000118367 0)
(-5.05127e-07 1.05341e-05 0)
(-2.08941e-11 1.24758e-09 0)
(-2.17717e-11 1.47056e-10 0)
(-5.05913e-06 2.03669e-05 0)
(-4.29202e-07 2.18046e-07 0)
(-1.36799e-05 0.000152027 0)
(1.37482e-06 5.12917e-07 0)
(2.5614e-06 4.71581e-06 0)
(-1.71255e-06 1.63241e-05 0)
(-2.11927e-10 1.42157e-09 0)
(-5.38386e-07 4.30383e-07 0)
(1.10122e-05 4.7973e-05 0)
(1.19584e-05 4.65916e-05 0)
(1.02846e-05 3.0279e-05 0)
(1.09642e-05 0.000176469 0)
(-5.36392e-06 0.000232579 0)
(6.54795e-06 8.59538e-05 0)
(1.71712e-06 6.46321e-06 0)
(2.20185e-06 1.02842e-05 0)
(9.23077e-06 2.30701e-05 0)
(-9.18239e-06 4.14298e-05 0)
(-3.42224e-06 1.01396e-05 0)
(-6.8709e-06 2.71822e-05 0)
(-1.6108e-12 4.14895e-11 0)
(1.47495e-09 3.29874e-08 0)
(3.38504e-07 1.67551e-06 0)
(-3.72612e-06 7.58069e-06 0)
(-3.55032e-09 9.77796e-08 0)
(-3.2846e-06 3.10096e-05 0)
(1.84405e-06 6.32119e-06 0)
(1.38069e-06 4.58902e-05 0)
(-9.00632e-11 1.65448e-09 0)
(-1.98073e-06 1.95092e-05 0)
(1.63898e-06 6.52721e-06 0)
(-1.6339e-06 3.51377e-05 0)
(-9.68197e-07 9.97441e-07 0)
(2.39722e-05 0.000244904 0)
(-2.20925e-05 0.000244904 0)
(1.18281e-05 0.000199536 0)
(1.70673e-05 8.45095e-05 0)
(-1.51879e-05 8.45103e-05 0)
(-5.07152e-06 1.92052e-05 0)
(-1.38342e-06 1.68437e-06 0)
(9.78123e-10 2.22012e-08 0)
(-3.20924e-06 1.2846e-05 0)
(9.26432e-06 1.98795e-05 0)
(-1.9283e-07 2.31962e-07 0)
(-8.09179e-10 5.8484e-09 0)
(-2.0617e-05 0.000220899 0)
(2.24971e-05 0.000220898 0)
(2.97073e-06 7.30915e-06 0)
(-1.65326e-06 9.76264e-06 0)
(8.74054e-07 7.33541e-06 0)
(5.1022e-06 1.28572e-05 0)
(4.12276e-06 2.77632e-05 0)
(4.9902e-09 5.80065e-08 0)
(2.22187e-06 1.74906e-06 0)
(-3.13256e-06 5.49704e-06 0)
(7.69453e-07 7.41968e-06 0)
(-7.64469e-07 5.8516e-06 0)
(1.54063e-05 9.33193e-05 0)
(-1.35296e-05 9.33065e-05 0)
(-4.85099e-09 4.87903e-08 0)
(4.75619e-06 5.52838e-06 0)
(-7.05554e-12 7.31138e-11 0)
(4.30839e-06 5.36161e-06 0)
(-5.90014e-11 6.24505e-10 0)
(3.10159e-06 1.24118e-05 0)
(3.73449e-06 2.77748e-05 0)
(1.07844e-07 -8.03041e-08 0)
(-7.38414e-06 1.98709e-05 0)
(-8.23569e-11 1.40046e-09 0)
(1.09445e-06 5.76366e-07 0)
(-6.88572e-07 5.50206e-07 0)
(3.21487e-06 1.23058e-05 0)
(1.09781e-09 4.9694e-08 0)
(-8.45762e-06 0.000186078 0)
(1.03658e-05 0.000186072 0)
(-3.96046e-06 7.71126e-06 0)
(7.5363e-06 1.9965e-05 0)
(1.2377e-06 1.68688e-06 0)
(-3.42375e-06 6.16592e-05 0)
(4.90337e-06 5.9379e-06 0)
(-1.2151e-06 1.32083e-06 0)
(4.02651e-09 7.79815e-08 0)
(9.74394e-07 1.64357e-05 0)
(7.34154e-07 8.84206e-05 0)
(1.65929e-10 6.24987e-09 0)
(-5.03111e-08 1.48027e-07 0)
(-1.96994e-06 4.92181e-06 0)
(-1.67056e-05 0.000211145 0)
(1.85849e-05 0.000211145 0)
(-5.96707e-07 2.14102e-06 0)
(-3.46946e-12 3.36735e-11 0)
(7.44722e-06 0.000204569 0)
(-4.00421e-07 8.10562e-06 0)
(-3.09936e-06 2.03261e-05 0)
(-7.76203e-07 5.9518e-06 0)
(5.86269e-06 3.82808e-05 0)
(-5.16224e-07 4.41045e-07 0)
(-4.75804e-06 1.15767e-05 0)
(6.63906e-06 1.15817e-05 0)
(-1.66476e-06 4.42129e-06 0)
(-1.9707e-08 -9.05667e-09 0)
(1.8323e-09 4.10251e-08 0)
(-6.24632e-06 2.77534e-05 0)
(2.93973e-06 1.09213e-05 0)
(4.80838e-06 5.9124e-06 0)
(3.91828e-06 3.04601e-06 0)
(1.23544e-05 7.6061e-05 0)
(7.71151e-08 -5.57121e-08 0)
(-4.93864e-07 4.21588e-07 0)
(-1.56923e-06 1.34723e-05 0)
(-7.05954e-07 9.96985e-06 0)
(-4.99043e-06 5.01759e-05 0)
(-6.105e-06 3.27041e-05 0)
(3.62799e-07 4.75123e-06 0)
(-6.06204e-07 4.39745e-07 0)
(4.13181e-07 0.00022779 0)
(-9.74758e-08 2.51833e-06 0)
(5.21051e-06 8.65445e-06 0)
(2.8163e-07 3.56904e-06 0)
(-9.42176e-08 1.57828e-07 0)
(-1.56289e-12 1.04522e-10 0)
(-9.46256e-07 3.32844e-06 0)
(-1.3645e-11 1.42762e-09 0)
(-3.10169e-06 1.40575e-05 0)
(-1.73417e-06 6.6537e-06 0)
(6.13324e-06 5.24117e-05 0)
(-5.75752e-08 1.37911e-07 0)
(-5.19299e-08 1.06075e-07 0)
(-2.21116e-05 0.000251461 0)
(2.39916e-05 0.000251461 0)
(-1.9494e-06 2.82686e-06 0)
(-4.62879e-07 5.85077e-07 0)
(-8.97854e-12 3.57983e-11 0)
(4.5601e-10 2.39061e-08 0)
(1.75462e-05 9.85555e-05 0)
(-1.57444e-05 9.8564e-05 0)
(-6.46861e-06 0.000113724 0)
(1.20267e-10 6.26823e-09 0)
(3.29937e-06 1.11189e-05 0)
(-7.39072e-07 6.45812e-07 0)
(-4.41912e-06 8.69434e-06 0)
(4.00681e-06 1.36384e-05 0)
(-7.56933e-07 5.62056e-07 0)
(-2.31361e-06 1.91512e-05 0)
(1.71379e-07 -3.72306e-08 0)
(-2.2543e-07 1.52565e-07 0)
(-1.90836e-07 2.07719e-07 0)
(-1.41676e-06 1.82491e-06 0)
(4.16077e-07 1.15445e-06 0)
(2.58086e-06 4.8506e-06 0)
(3.41645e-06 1.23745e-05 0)
(-9.68498e-12 1.34124e-10 0)
(-8.12144e-07 1.63224e-06 0)
(-1.42714e-06 1.74063e-06 0)
(-1.72578e-06 3.87048e-06 0)
(1.91436e-06 6.39237e-06 0)
(2.79913e-09 7.89467e-08 0)
(-1.32029e-05 7.82264e-05 0)
(3.73716e-08 5.26078e-05 0)
(6.20103e-06 0.000222869 0)
(-2.64554e-07 1.13824e-07 0)
(9.20626e-07 2.14134e-05 0)
(1.87983e-09 3.02886e-08 0)
(3.7783e-10 7.87577e-09 0)
(9.63222e-07 6.8552e-07 0)
(1.79758e-06 2.63859e-06 0)
(5.44362e-06 1.42421e-05 0)
(4.36996e-06 0.000147058 0)
(6.69031e-06 0.000301199 0)
(4.59412e-06 0.000341172 0)
(1.55469e-06 7.80257e-06 0)
(2.76112e-06 5.34685e-06 0)
(1.44351e-09 2.48803e-08 0)
(-1.13593e-06 1.19863e-06 0)
(4.8291e-06 5.09074e-06 0)
(3.4602e-06 1.11796e-05 0)
(-5.75711e-12 3.98622e-11 0)
(-1.10322e-07 2.6179e-05 0)
(1.50066e-06 7.69789e-06 0)
(-1.44208e-07 2.06499e-07 0)
(3.7968e-06 5.39347e-05 0)
(4.60601e-06 7.38765e-05 0)
(4.68346e-07 1.34566e-05 0)
(9.03761e-06 2.31803e-05 0)
(2.48636e-06 4.6734e-06 0)
(-2.9526e-10 2.65438e-09 0)
(-3.31159e-06 2.05112e-05 0)
(-3.05194e-10 2.75767e-09 0)
(1.14786e-05 9.24131e-05 0)
(2.37317e-06 5.35554e-06 0)
(-2.30077e-06 3.48541e-05 0)
(3.8875e-06 8.2842e-05 0)
(1.12659e-10 3.8439e-09 0)
(-1.02066e-11 3.51491e-11 0)
(1.35683e-06 9.3661e-06 0)
(-1.09053e-09 9.44458e-08 0)
(2.26436e-06 4.37972e-06 0)
(-1.75168e-06 9.68878e-06 0)
(-2.52204e-06 1.03785e-05 0)
(-4.96417e-06 1.97707e-05 0)
(-1.59538e-05 0.000309185 0)
(1.79606e-05 0.0003092 0)
(3.35634e-06 4.88992e-06 0)
(5.77396e-09 5.25536e-08 0)
(-1.37825e-06 3.1002e-06 0)
(5.30697e-06 8.59842e-06 0)
(-8.03616e-09 1.04607e-07 0)
(3.85511e-06 1.36452e-05 0)
(-1.23066e-06 1.32718e-06 0)
(-6.27609e-07 4.2858e-07 0)
(-1.34442e-06 1.31547e-05 0)
(4.50283e-07 8.92107e-05 0)
(-2.19919e-10 5.06761e-09 0)
(-4.51143e-06 8.89805e-06 0)
(-7.58995e-06 7.75518e-05 0)
(-2.32603e-07 2.52109e-07 0)
(1.38826e-06 1.56155e-06 0)
(-3.96398e-06 1.28281e-05 0)
(1.74947e-07 -6.90836e-08 0)
(5.84896e-06 1.28294e-05 0)
(-4.4879e-12 2.89463e-11 0)
(-7.07783e-06 1.81914e-05 0)
(1.49778e-06 4.89158e-06 0)
(-8.50049e-06 0.000263523 0)
(1.10484e-05 4.098e-05 0)
(1.33169e-06 6.30168e-06 0)
(-1.95533e-07 2.1403e-07 0)
(-6.42788e-06 0.000311664 0)
(-1.73804e-12 1.66589e-11 0)
(4.26361e-09 3.79836e-08 0)
(-3.27286e-07 2.67621e-07 0)
(1.76797e-07 4.42773e-06 0)
(1.91732e-06 9.18376e-06 0)
(-3.74815e-06 8.17379e-05 0)
(6.58343e-06 1.06286e-05 0)
(3.86413e-12 1.21283e-10 0)
(-9.98277e-06 0.000109637 0)
(-1.05908e-09 2.87536e-08 0)
(-1.67648e-06 9.93204e-06 0)
(6.47976e-07 2.9038e-05 0)
(7.79909e-06 3.09375e-05 0)
(1.26533e-05 8.67878e-05 0)
(-1.07739e-05 8.67886e-05 0)
(1.1742e-05 0.000123049 0)
(-9.84112e-06 0.000123035 0)
(-6.67975e-12 6.6693e-11 0)
(-3.6e-06 0.000154095 0)
(5.02187e-11 6.8476e-10 0)
(7.21924e-06 0.000147886 0)
(-1.11607e-06 2.16726e-05 0)
(4.49582e-06 4.36373e-06 0)
(5.5018e-06 3.15619e-05 0)
(2.10893e-09 8.90593e-08 0)
(4.1589e-06 3.70263e-06 0)
(1.23793e-06 7.06148e-07 0)
(3.62195e-06 6.15683e-06 0)
(7.96549e-06 3.71047e-05 0)
(2.2556e-05 0.000244062 0)
(-2.06763e-05 0.000244062 0)
(1.50499e-06 4.81365e-06 0)
(1.48425e-11 3.66443e-10 0)
(3.0785e-11 5.99675e-10 0)
(1.3823e-07 -6.94347e-08 0)
(4.72046e-06 4.89831e-06 0)
(-1.34567e-05 8.37361e-05 0)
(1.53362e-05 8.37354e-05 0)
(-2.06731e-06 5.16123e-05 0)
(3.7981e-07 2.61205e-06 0)
(-7.26161e-07 6.94867e-07 0)
(1.761e-05 9.94117e-05 0)
(-1.57329e-05 9.94362e-05 0)
(1.24099e-05 9.11716e-05 0)
(5.73072e-07 9.97899e-06 0)
(2.27211e-06 8.23856e-06 0)
(1.2659e-05 0.000122782 0)
(-1.07578e-05 0.000122768 0)
(-2.3376e-06 9.45201e-05 0)
(4.49554e-13 4.43596e-11 0)
(1.36848e-06 1.6251e-06 0)
(1.5369e-06 1.71562e-06 0)
(-3.07309e-10 3.47238e-09 0)
(2.30134e-06 0.000231891 0)
(-2.68792e-06 6.59772e-06 0)
(5.07775e-06 7.0554e-05 0)
(-3.88519e-06 8.52116e-05 0)
(1.19644e-05 0.000137151 0)
(-1.00822e-05 0.000137212 0)
(-1.39162e-12 9.27696e-12 0)
(5.90269e-06 3.90168e-05 0)
(1.02394e-05 4.88106e-05 0)
(-1.26784e-06 2.15378e-06 0)
(-2.02701e-06 1.92139e-05 0)
(1.18314e-06 2.4422e-05 0)
(-5.70093e-11 5.66302e-10 0)
(7.9989e-06 1.85945e-05 0)
(-4.35504e-06 8.48124e-06 0)
(5.25738e-07 2.71886e-06 0)
(-2.52833e-10 2.76472e-09 0)
(-7.60873e-07 6.67785e-07 0)
(-1.19397e-06 3.21359e-06 0)
(-5.24401e-08 1.50676e-07 0)
(-3.99371e-06 0.000108782 0)
(1.66258e-06 1.64855e-06 0)
(-1.16475e-07 1.6709e-07 0)
(1.66565e-09 2.62393e-08 0)
(3.06138e-06 3.16881e-05 0)
(-3.34735e-06 9.5141e-06 0)
(-2.14197e-06 4.37994e-06 0)
(-3.78814e-11 7.18614e-10 0)
(2.06856e-06 2.58179e-06 0)
(-7.55327e-10 4.26183e-08 0)
(-2.03042e-06 4.31495e-06 0)
(2.80937e-06 5.42948e-06 0)
(5.62293e-06 0.000148408 0)
(-1.04979e-11 1.18799e-10 0)
(4.35988e-06 4.42783e-06 0)
(-2.12274e-05 0.000252988 0)
(2.31075e-05 0.000252987 0)
(3.22321e-10 1.0368e-08 0)
(-5.20766e-06 1.97672e-05 0)
(6.56343e-07 1.35531e-07 0)
(5.60448e-06 0.000298991 0)
(3.44613e-07 1.03355e-06 0)
(-5.32348e-09 5.19218e-08 0)
(-3.98062e-06 8.25358e-05 0)
(-1.38944e-09 2.04521e-08 0)
(-2.06999e-11 1.30093e-10 0)
(3.44672e-06 2.49376e-05 0)
(7.78023e-06 2.80848e-05 0)
(4.05307e-07 -1.87209e-08 0)
(3.50261e-06 2.15385e-05 0)
(-6.9126e-06 2.92409e-05 0)
(1.11711e-05 4.73866e-05 0)
(-6.97452e-07 8.58957e-07 0)
(-6.67221e-06 2.8326e-05 0)
(6.37619e-12 3.70391e-10 0)
(4.5605e-06 8.35676e-05 0)
(-9.3008e-07 2.13571e-05 0)
(-8.96161e-06 2.82712e-05 0)
(7.78465e-07 1.21487e-06 0)
(4.22427e-06 2.49113e-05 0)
(-8.3938e-08 4.06882e-06 0)
(1.5838e-10 3.85755e-09 0)
(-9.75837e-06 7.46672e-05 0)
(-2.58273e-06 6.60479e-06 0)
(2.51455e-06 4.88147e-06 0)
(6.60506e-07 2.8208e-06 0)
(7.98939e-06 2.30934e-05 0)
(1.13761e-05 4.6281e-05 0)
(-4.78403e-06 2.37172e-05 0)
(1.25322e-05 4.64628e-05 0)
(-1.96181e-08 1.08667e-07 0)
(-2.35532e-06 1.30014e-05 0)
(5.35969e-06 3.55855e-05 0)
(-1.14995e-10 6.9899e-10 0)
(-1.4473e-06 0.000139724 0)
(-5.62059e-08 6.4987e-08 0)
(1.22859e-05 9.19268e-05 0)
(7.74917e-06 3.12562e-05 0)
(9.00034e-07 2.17559e-05 0)
(1.74329e-11 3.82433e-10 0)
(-6.86852e-07 3.24227e-05 0)
(-4.66163e-06 4.60152e-05 0)
(9.54038e-06 5.78115e-05 0)
(-6.8804e-08 1.36479e-07 0)
(-4.54411e-06 9.88721e-06 0)
(-3.96254e-07 2.59006e-07 0)
(-6.90923e-06 7.69313e-05 0)
(-1.26642e-07 -2.99105e-08 0)
(-1.77035e-07 7.24014e-06 0)
(-4.58646e-06 5.2637e-05 0)
(-7.32117e-10 2.44792e-08 0)
(-1.13595e-06 8.28856e-05 0)
(-7.73725e-06 4.69733e-05 0)
(-1.37035e-06 1.69437e-06 0)
(-3.12987e-12 2.72916e-11 0)
(-3.08089e-06 7.28704e-06 0)
(-8.1052e-06 3.49593e-05 0)
(-6.76881e-07 8.79754e-07 0)
(1.71467e-09 3.38205e-08 0)
(-1.50846e-06 3.17256e-06 0)
(2.3188e-06 1.8022e-06 0)
(-1.84383e-05 0.000133588 0)
(2.03157e-05 0.000133589 0)
(3.90365e-06 2.00596e-05 0)
(2.47794e-06 1.63902e-05 0)
(1.26566e-06 9.67836e-06 0)
(1.42021e-06 1.03027e-05 0)
(3.35907e-06 2.73212e-06 0)