/*--------------------------------*- C++ -*----------------------------------*\
| =========                 |                                                 |
| \\      /  F ield         | OpenFOAM: The Open Source CFD Toolbox           |
|  \\    /   O peration     | Version:  v3.0+                                 |
|   \\  /    A nd           | Web:      www.OpenFOAM.com                      |
|    \\/     M anipulation  |                                                 |
\*---------------------------------------------------------------------------*/
FoamFile
{
    version     2.0;
    format      ascii;
    class       volScalarField;
    location    "4000";
    object      sigmaEq;
}
// * * * * * * * * * * * * * * * * * * * * * * * * * * * * * * * * * * * * * //

dimensions      [1 -1 -2 0 0 0 0];

internalField   nonuniform List<scalar> 
24076
(
6.09506e+07
823223
12411.2
12299.6
1.46896e+07
946483
846546
6.47124e+07
1609.6
5.51151e+07
3.72858e+07
5.35113e+07
3.13701e+07
1.22648e+07
6.58277e+07
5.75897e+06
3.51421e+07
3.57141e+07
4.93203e+06
8.36318e+06
6.48141e+07
3.36717e+07
1.19307e+06
3.77832e+07
1.13117e+07
3.90869e+06
6.57285e+06
946853
6.47086e+06
1.33382e+07
1.10473e+07
239606
2.43088e+07
2.16398e+07
2.81217e+07
4.73323e+07
3.00509e+07
3.59108e+07
3.62171e+07
6.59612e+07
2.24301e+07
7.49745e+06
2.4448e+07
1.88401e+07
4.42668e+07
6.38237e+07
1.17764e+06
1.63935e+07
6.99085e+06
4.72451e+07
32295.4
5.01055e+06
4456.97
1.03381e+06
1577.64
2.68356e+07
1.28998e+07
6.77105e+07
4.63091e+06
3.14374e+07
6.40482e+07
736365
7.62989e+07
4.40341e+07
2.57596e+07
6.42225e+07
2.08837e+07
2.18028e+07
660186
1.93559e+07
4.79669e+06
1.70713e+06
4.80037e+07
202061
2.11614e+07
1.21718e+07
3.53757e+07
4.62669e+07
4.2982e+07
7.74152e+07
1.12201e+06
1.54947e+07
1.91139e+07
9.2065e+06
1.46557e+07
4474.9
1.26208e+07
3.85591e+07
4.56271e+06
8.76843e+06
1.56247e+07
4.75702e+06
3.63724e+07
1.37632e+07
8.55233e+06
3.45083e+07
8.19103e+06
7.08636e+06
230597
2.18498e+07
1.79856e+07
2.75831e+07
9.18325e+06
4.41668e+07
1.25522e+07
2.4343e+07
67610.3
1.42851e+06
5.62794e+07
2.18253e+07
5.85197e+06
1.21857e+07
3221.15
783705
9.56187e+06
30751.7
3.2231e+07
1.84396e+07
7.09236e+06
2.43481e+07
6.09458e+06
4.01258e+07
2.42579e+07
6.39868e+07
4.1924e+07
3.68647e+07
5.6114e+07
3.40792e+07
1.27026e+07
151466
3.99806e+07
2.32232e+07
1.81865e+07
1.22806e+06
3.75147e+07
6.51942e+06
4.93347e+06
2.57652e+07
3.74955e+06
7.66781e+06
1.11035e+07
3273.73
5.83903e+06
6.0852e+06
1.87392e+07
1.09922e+07
1.63942e+07
2.31986e+07
4.15422e+06
72975.2
5.18099e+07
1035.29
3.66779e+07
2.21223e+07
4.25318e+07
8.1757e+06
6.30784e+07
1.17228e+07
6.37611e+06
19385.9
1.01263e+07
1479.08
6.83065e+07
7.2238e+07
4.93608e+06
2.69062e+07
2.68791e+07
2.85395e+07
3.49845e+07
1.89604e+07
2.73279e+07
1.30081e+06
6.97013e+06
1.92462e+07
4.23269e+07
4.22114e+07
4.04267e+07
3.99645e+07
6.09255e+07
5.74509e+07
7.39544e+07
490705
3.06595e+07
1.16086e+07
1.25088e+07
9.85025e+06
3.52122e+07
2.88655e+07
4.87942e+07
2.51144e+07
265425
3.77723e+07
1.62319e+07
3.43027e+07
2.20041e+07
6.221e+07
988497
3.65021e+07
3.67409e+07
6.20526e+07
3.0186e+07
2.61727e+07
2.19949e+07
2.2039e+07
4.82427e+06
1.78014e+07
5.85269e+07
3.36066e+07
5.59703e+07
1.12972e+07
1.64772e+06
5.95726e+06
2.78931e+06
5.06842e+07
1626.76
6.44052e+06
6.36776e+06
6.50562e+07
4.12212e+06
4.16382e+06
6.34937e+06
7.14117e+07
7.50531e+07
3.00911e+07
6.21657e+07
37115.9
20425.7
3.91653e+07
36116
9.45458e+06
18871.6
3.65695e+07
37465.7
609654
1.072e+07
1.56416e+07
2.39318e+07
2.25812e+07
2.49312e+07
5.88668e+07
5.8631e+07
1.54996e+07
2.56642e+07
2.53645e+07
4.7846e+07
4.76825e+07
3.30319e+07
6.57152e+07
6.54886e+07
3.42638e+07
2.64049e+07
9.97256e+06
9.68583e+06
6.35421e+07
4.70014e+07
4.7128e+07
546800
209092
2.68273e+06
8.14776e+06
2.26597e+07
7.72603e+07
4.3e+07
142.509
3.74542e+07
1.43013e+07
5.94529e+07
7.28494e+06
3.44623e+07
8506.78
2.10998e+07
2.13648e+07
6.14432e+07
6.72936e+06
9.28585e+06
3.0783e+07
3.77208e+07
1.32832e+06
5.17842e+07
6.66417e+07
53133.6
3.63516e+06
2.88385e+06
4.39885e+06
4.79418e+06
2.4768e+07
561672
4.7477e+07
8.20025e+07
3.09564e+07
8.6246e+06
5.83633e+07
2.02957e+07
1.79573e+07
2.46719e+07
2.46219e+07
4.03491e+07
13940.5
98103.7
2.62476e+07
3.15041e+07
3.18872e+07
2.49612e+07
2.49944e+07
2.30448e+07
2460.26
6.19079e+06
4.08155e+07
1.54523e+07
8.8702e+06
1.64815e+07
3.13841e+06
1394.52
4.00122e+07
2.86884e+07
7.40957e+07
2.57633e+07
490238
6.63472e+07
7.75963e+06
3.13065e+07
6.17357e+07
3.60657e+07
651740
1.03814e+06
3.94803e+07
3.37072e+07
3.37106e+07
5.52964e+07
1.10677e+07
1.77064e+07
3.9864e+07
3.99406e+07
6.7098e+06
2.78212e+07
5.24967e+07
3.32857e+07
1.05902e+06
5.38914e+07
2.39001e+07
7.85109e+07
4.57198e+06
502960
2.50663e+07
5.43095e+06
3.93796e+07
5.33662e+06
9.32551e+06
7.33151e+06
5.08727e+07
3.10826e+07
6.89529e+06
3.93998e+07
7.16362e+06
6.42741e+07
2.32901e+07
3.54255e+07
7.47213e+06
1.74982e+07
1.59351e+07
4.24833e+06
5.09026e+07
2.40086e+07
892149
7.50267e+07
1.90712e+07
1.37367e+07
4.54741e+07
4.12859e+07
5.921e+06
6.7186e+07
1.8886e+07
6.38248e+07
3.06696e+06
6.26957e+07
6.25203e+07
74350.4
3.08902e+07
3.09191e+07
5.41115e+06
2.00986e+07
1.15917e+07
3.06401e+07
1.73024e+07
3.75698e+07
397941
2.77096e+07
1.24598e+06
9829.95
5.41899e+07
7.84778e+06
2.27292e+07
2.27735e+07
9.48024e+06
3.50657e+07
6.19747e+07
6.21427e+07
5.91353e+07
3.1968e+07
2.18416e+07
4.69948e+07
2.81126e+07
8346.36
2.13715e+07
6.57513e+07
2.27471e+07
2.27834e+07
1.9649e+07
6.47616e+06
7.66222e+06
7.04831e+07
5.42809e+07
9583.23
6.14095e+06
8.45581e+06
2.47684e+07
1.81893e+07
2309.96
8.3218e+07
2.6943e+07
2.70449e+07
3.81808e+07
3.83579e+07
1.93407e+07
6.16517e+06
3.00693e+07
2.08945e+07
3.75171e+07
1.7353e+07
4.99901e+06
5.18593e+07
2.37938e+07
1.10526e+07
8.12759e+06
1.88864e+07
1.96005e+07
964537
7.35898e+06
2.1481e+07
2.80147e+07
284130
3.01018e+06
4.88865e+07
3.16016e+07
4.04941e+06
7.33816e+07
905562
5.1779e+07
2.53492e+07
1.66854e+07
9.39272e+06
2.55163e+07
1.07025e+07
4.30987e+07
3.58562e+07
124694
7.23631e+06
654700
776910
9.50467e+06
1.16582e+07
5.83028e+07
4.09692e+07
66671.2
2739.82
3.61739e+07
3.67362e+07
3.74941e+07
701453
4.16601e+07
2830.95
4.44218e+06
3.5718e+07
5.18973e+07
2.69856e+07
2.64745e+07
5.59315e+07
2.80209e+07
41393.4
3.0289e+07
2.90994e+07
2.9041e+07
2.99436e+07
7.38897e+07
2.99908e+07
2.51183e+07
2.37178e+07
7.29408e+07
2.24276e+07
3.28194e+07
3.62311e+07
3.62302e+07
2.5285e+06
7.07053e+07
3.93936e+07
1.56673e+07
301598
2.80122e+07
105308
2.68393e+07
2.61862e+07
6.37668e+07
8523.59
4.24874e+06
2.12017e+06
1.61242e+07
1.82887e+07
4.36033e+07
8.02169e+07
4.6976e+07
5.42555e+07
7.38794e+06
1.75832e+07
4.43867e+07
589.358
5.62393e+07
1.49004e+07
2.49956e+06
4.83027e+07
1.75723e+07
9.62776e+06
5.49643e+06
4.96471e+07
201219
1.81929e+07
195953
6.36059e+06
1.48443e+07
1.48814e+07
2.98245e+07
742127
7.05689e+07
685088
4.40526e+07
2.68875e+06
2.69678e+06
4232.08
1.64681e+06
7.5321e+07
2.83284e+07
5.78192e+07
6.41242e+06
9.57658e+06
1.31285e+07
13641.9
5.4314e+06
1.7806e+07
1.78066e+07
14037.2
51270
2.80532e+07
1.12243e+07
1.13838e+07
4.65496e+07
8.81671e+06
38310.2
9.2825e+06
4.32599e+07
3.18137e+06
4.24445e+07
4.23265e+07
6.24868e+07
6.26666e+07
7.20344e+07
739.444
398743
3.62801e+06
1.43412e+07
101294
6.85886e+07
2.12214e+07
11005
3.94519e+07
1.73551e+07
1.73939e+07
2.20718e+07
2.30789e+07
3.99505e+07
1.10781e+07
4.49322e+06
45718.9
6.18257e+07
28432.3
1.74853e+06
2.76233e+07
1.87346e+07
1.79899e+07
7.95765e+07
1.61312e+07
1.6035e+07
9.67719e+06
7.77133e+06
2.1868e+07
1.31252e+07
2.89604e+07
1.92168e+06
2.48339e+07
65892.1
6.38219e+07
4.98696e+07
4.19219e+07
7.9771e+06
1.8913e+07
2.72723e+07
1.42111e+07
2.01912e+07
5.30881e+07
4.35423e+07
6.51219e+07
2.92764e+07
7.50397e+06
2.29921e+07
1.05316e+07
1.9643e+07
4.29845e+07
6.9569e+07
3.39886e+07
1.37186e+07
1.37102e+07
1.07402e+06
6.72185e+06
2.90309e+07
24271.1
5.0018e+07
4.462e+07
1.52559e+07
1.52197e+07
4.19355e+07
11967.7
7.29189e+06
5.33758e+07
1.32616e+07
2.89872e+07
2.87168e+07
643379
25407.1
4.92974e+06
2.38404e+07
5.20944e+06
1.71216e+07
29051.8
12157.1
4.87263e+07
1.70527e+07
2.87928e+07
3.7347e+07
3.43714e+07
2.44939e+07
112334
2.31189e+07
4.9868e+07
5.42773e+07
6.06866e+07
1.46271e+07
8.14856e+06
1.69968e+07
1.54957e+07
1.77451e+07
6.39752e+07
5.43315e+07
5.64984e+07
5.57686e+07
171.239
650444
1.1335e+07
7.21744e+07
1.65172e+06
2.65343e+07
1.84113e+07
3.49487e+06
45588.8
2.57906e+07
1.41339e+07
1.46997e+07
3.54544e+07
1.94019e+07
1.93783e+07
1.36888e+07
4.90578e+07
4.90683e+07
5.35216e+07
5.88163e+07
439439
4.48899e+07
7.09984e+07
9.2843e+06
541724
2.42629e+07
2.42867e+07
3.15214e+07
3.35889e+07
3.01373e+06
4.48517e+07
2.36839e+07
999288
4.56319e+07
8.10309e+07
4.37983e+06
2.59928e+07
4.35175e+07
4.33809e+07
2.01644e+06
7.00543e+07
2862.52
6.10811e+07
23195.8
2.45244e+07
1.81108e+07
1.09545e+07
7.09685e+07
39045.1
2.77806e+07
2.44146e+07
2.49164e+07
1.10976e+06
1.49552e+07
1.47674e+07
7.51054e+07
5.65708e+07
2.60164e+07
1.7367e+07
6.97239e+07
6.65538e+07
1.30681e+06
4.40978e+06
5.77136e+06
121508
3.43124e+06
5.4638e+07
1.97733e+07
1.99336e+07
2.18406e+07
1664.44
9.5009e+06
1.81024e+07
3.44218e+07
2.57032e+07
2.63635e+07
2.87135e+07
6.7794e+07
6.80661e+07
4.78298e+07
6.56274e+06
839681
4.89388e+07
2.39183e+07
6.66328e+07
7.21719e+07
3.80067e+07
1.09411e+07
2.68877e+07
2.62977e+07
2.23627e+07
2.82704e+07
4.29763e+07
5.45409e+06
2.36791e+07
5.02873e+06
1.14936e+07
5.92816e+07
5.23778e+06
3.92094e+06
2272.69
3.12655e+07
31882.5
4.34973e+07
4.1183e+07
2.55627e+07
2.72681e+06
5.72885e+06
1.85898e+07
1.86368e+07
8.19291e+07
1.67244e+07
71.6065
498622
4.69185e+07
4.7026e+07
1.78021e+07
128810
2.78828e+07
3.96475e+07
7.39808e+07
3.37825e+07
2.80601e+07
2.94724e+07
2.08961e+07
1.36211e+07
1.02967e+07
5.74726e+07
1.3358e+07
3.4439e+07
2.90156e+07
4306.37
2.85222e+07
6.49743e+07
5.17045e+07
1.74798e+07
1.37042e+06
4.89781e+07
5.25019e+06
6.8547e+06
1.5357e+07
5.4299e+06
567798
151371
2.48964e+07
3.07548e+07
4.77182e+07
8.34197e+06
4.5241e+06
4.31274e+06
1.00177e+07
3.59512e+07
470398
6.28296e+07
7.50752e+07
3.11973e+07
3374.26
9.15203e+06
1.12089e+07
6.96532e+06
1.2808e+07
1.20352e+07
6.52899e+06
6.22744e+07
3.31107e+07
115382
3.54382e+07
124727
3.22336e+07
2.9182e+07
1.95721e+07
1.03895e+07
77263.5
82.6293
8.18981e+06
1.52865e+06
2.97143e+07
3.43863e+07
4.31747e+07
4.90686e+07
8.04644e+06
8.13523e+06
4.69246e+07
886194
4.58746e+07
6.20398e+07
1.69549e+06
3.00821e+07
6.2601e+07
2.29944e+07
2.5299e+07
3.8357e+06
129280
7.53762e+07
2.79073e+07
1.08137e+07
2.71354e+07
5.49995e+07
1.16449e+07
5.5072e+07
3431.8
7.19086e+07
1.63163e+07
8.34127e+06
5.36856e+07
9.48014e+06
8.48081e+06
5.00489e+06
1141.93
680375
1.50604e+07
7.11928e+06
1.52595e+07
1.70959e+07
7.01924e+07
2269.8
2.70271e+07
884398
3.34966e+07
5.60069e+06
4.31221e+07
3.6781e+07
3.67986e+07
2.41347e+07
2.41968e+07
2843.67
9.90902e+06
12582.7
1.2481e+07
1.59643e+07
7.24219e+07
2.80379e+07
1.27107e+06
7.268e+07
3.17197e+07
4.64482e+07
4.08181e+07
2.00591e+07
2.00748e+07
1.56491e+07
7163.99
11475
1.09327e+07
7.39929e+07
4.38968e+07
4.38627e+07
1.2879e+07
6.25491e+06
2.38453e+07
4.70105e+07
4.73118e+07
3.40627e+07
6.11649e+06
2.12465e+07
2.86077e+07
2.86441e+07
1.20376e+07
562.843
2.86902e+07
3.16605e+07
125299
4.98508e+06
6.10473e+07
1.69109e+07
1.67428e+07
2.40843e+07
2.38685e+07
753.779
2.64448e+07
4.56675e+07
4.47985e+07
2.50716e+07
5.82613e+06
23692.8
6.06984e+07
7.37562e+07
8.30533e+06
101382
2.66696e+07
3.78588e+07
3.98608e+06
1.49051e+07
3.30005e+07
4.8133e+06
503944
1.45306e+07
5.74336e+07
6.22455e+07
19501.7
3.46343e+07
1.18372e+06
5.79538e+07
3.4646e+07
8.81058e+06
4211.85
6.8421e+07
1.92972e+07
1.93583e+07
206384
5.31905e+07
2.33207e+07
5.05994e+06
1.26832e+07
1.98378e+06
1.54493e+07
839544
14768.9
1.89861e+07
4.77817e+07
1.88752e+07
1.94161e+07
5.30278e+07
4.84318e+07
2.29826e+07
5.10359e+07
7436.4
1.10692e+07
1.70574e+07
6.8505e+07
1.89691e+07
2.31643e+07
1.08524e+07
73633.1
3.74355e+07
5.65275e+07
3.25931e+07
7.80571e+06
5.39418e+07
5.11955e+07
4.2591e+07
5.84672e+07
2.81002e+06
3.57116e+07
2.73213e+07
81680.4
7.64476e+06
1.18823e+07
3.46639e+07
4.45508e+07
2.94973e+06
7141.41
1.11865e+07
2.8421e+07
3.77199e+07
2.65974e+06
7.05348e+07
1.64822e+07
2.71444e+07
1.02634e+07
1.60502e+07
2.64887e+07
691153
9.59374e+06
4.13058e+07
5.92136e+07
1698.37
6.37426e+07
5.23583e+07
2.33932e+07
666114
4.82595e+07
4.64342e+07
3.9902e+07
3.98053e+07
2.60289e+07
1.49813e+07
7.47188e+06
6.25313e+06
6.4449e+07
4.23581e+07
2.34605e+07
2.34751e+07
849646
2.32078e+07
7.78002e+06
102185
5.10743e+07
57081.6
4.96381e+06
16499.7
2.48612e+07
4.12772e+06
5.11065e+07
5.02583e+06
3.26389e+07
3.43645e+07
1.49866e+07
619240
23856.6
6.27242e+07
6.27955e+06
4.48075e+06
1.51552e+07
1.16965e+07
5.16159e+07
4.91216e+07
5.50593e+07
617172
6.20934e+06
1.29953e+07
1.52448e+07
5.80086e+06
1.70341e+07
1.2407e+07
1.70563e+07
4.01338e+06
8068.1
4.73339e+07
2.11759e+07
2.15544e+07
2.1136e+07
4.66895e+06
3.37886e+07
9.5799e+06
4.13168e+07
7.11379e+07
1.10355e+07
5076.63
7.15344e+06
3.78103e+06
5.14108e+07
5.88691e+07
2.29742e+07
4.30555e+07
3.54116e+07
3.23557e+07
65007.6
2.22052e+07
1.18291e+07
549418
269427
4.94888e+06
5.44227e+07
104882
9.51041e+06
5.38534e+07
3.92869e+07
7.42014e+06
2447.71
2.11622e+07
2.57168e+07
3.74249e+07
2.88934e+07
25312.4
3.5265e+07
1.52109e+07
2.12112e+07
9.64642e+06
3.81915e+07
4.78247e+07
3.76313e+07
5.15119e+07
2.06005e+07
65771.2
8.67278e+06
1799.59
1.43081e+07
1.77143e+07
4.65177e+06
5.28862e+07
6.96649e+07
3.20246e+07
6.67722e+07
955461
1.08668e+07
681058
4.17703e+07
5.39164e+07
2.7288e+07
1.34456e+07
1.36222e+07
4.35055e+07
8349.17
1.46277e+07
305904
2.01628e+07
1.81586e+07
7.61418e+06
3.7665e+06
1.0771e+07
6.39293e+06
2.61471e+07
2.41529e+07
4.47599e+07
4.47495e+07
2.3142e+07
2.30237e+07
1.14313e+07
2.029e+07
22235.5
4.05169e+07
2.35994e+07
276272
74602.2
4.68195e+07
2.28985e+07
5819.14
1.43393e+07
1.46147e+07
2.76391e+07
7.12422e+07
1.71847e+07
2.32143e+07
3.91065e+07
2.85689e+07
4.12829e+07
3.54352e+07
15778.8
67328.7
2.51767e+07
1.07241e+07
5.8812e+07
6.18807e+07
74202.2
2.58802e+07
2.86992e+07
2.86909e+07
2.58223e+07
3.24702e+07
3.80409e+06
51820.9
1.0765e+07
4.47881e+07
621893
870047
2.98385e+07
6.43651e+06
4.10915e+07
4.11021e+07
43148
452392
4.72392e+06
5.09538e+07
1.4551e+07
3.09992e+07
5.97639e+07
4.05732e+07
1.22293e+06
4.02791e+07
8.6384e+06
881302
101509
206267
2524.68
6.30576e+06
1.00052e+07
695316
1.68181e+06
3.70315e+07
1.14813e+07
1.20184e+07
2.24597e+07
5.87505e+06
3.65089e+07
5.84861e+06
6.20349e+07
6.22321e+07
4.30564e+07
5.86258e+06
2.44404e+07
3.09064e+07
5.66069e+07
3.4281e+06
3.2908e+06
4.34328e+06
5.42398e+07
2.13292e+07
4.08788e+07
1.18357e+07
1.14388e+07
3.27849e+07
5.08472e+07
3.11118e+07
4.94809e+07
1.66674e+07
1.65939e+07
3.50856e+07
6.30621e+06
2.63419e+07
9.4658e+06
2.31965e+07
763.89
7.33672e+06
5.60362e+07
14631.8
2.23223e+07
4.81531e+06
4.09135e+07
9.90305e+06
1.05064e+07
3.75856e+07
12467.2
3.99393e+07
5.61405e+07
3.81539e+07
1.04917e+07
56374
2.24944e+07
4.93899e+06
7.38761e+07
5.06763e+06
5.39835e+07
2.36152e+07
1.01137e+07
182357
1.89367e+06
1.89526e+06
4.28248e+07
9.71761e+06
1.67208e+07
4.27521e+07
4.4543e+07
4.54791e+07
4.26014e+07
3.93957e+07
19748.4
5.3802e+07
4.92317e+06
1.25251e+07
4.74703e+06
5.53835e+06
5.28517e+06
3255.34
7.267e+06
2.07767e+06
2.43779e+06
2.68899e+07
6.18632e+07
30821
1581.29
3.19826e+06
564144
4.09475e+07
3.02804e+07
5.46407e+06
6.541e+07
4.68797e+06
4.26142e+07
9.53322e+06
3.79344e+07
1.33465e+07
2.07603e+07
1.81342e+07
2.42497e+07
6.03111e+07
2.7754e+07
6.76914e+07
2.10991e+07
5.92867e+07
5.23231e+07
478029
5.19246e+07
1.23569e+07
2.13293e+07
1.05957e+07
2.27065e+07
5.26641e+06
4.05721e+07
3.15394e+07
107696
4.93653e+07
3.5528e+07
5.98902e+07
1147.21
2.88272e+07
1.29924e+07
7.13959e+07
1.31421e+07
7.09133e+07
6.001e+07
7.58721e+06
1.69514e+07
4.58496e+07
320929
1.86012e+07
2.88175e+06
695187
5.08109e+07
1.31858e+07
4.54209e+06
4.28903e+07
3.49626e+07
3.46252e+07
1.38041e+07
1.0442e+07
3.61197e+07
5.47171e+07
7.04194e+07
6.48406e+07
3.78545e+07
7.00994e+07
251905
4.61443e+07
6.12379e+07
1.06065e+07
3.73644e+06
6.55236e+07
1.20394e+07
3.33509e+07
7.66744e+07
7.79795e+06
1.29183e+07
7.54625e+07
1.63184e+07
1.75089e+07
7.64078e+06
4.82639e+07
9.25827e+06
1.71489e+07
4.59726e+07
420610
1.10442e+07
1.41826e+07
1.42641e+07
1.57182e+07
3.53957e+07
3.96828e+07
4.78214e+06
1.22003e+07
5.65092e+07
4.03718e+07
629601
688447
4.04893e+06
1.3382e+06
6.51477e+07
5.25593e+07
4.95798e+07
9.0014e+06
5.33692e+07
2.29169e+07
2.69073e+07
515811
4.21538e+07
3.15152e+07
1.95e+07
6.41667e+07
1.45042e+07
6.43471e+07
1.84311e+07
5.04271e+06
5.94211e+07
2.73352e+07
1.75588e+07
2.61122e+07
2.44101e+07
3.68173e+07
1.71333e+07
22991.1
2.95254e+07
4.44438e+07
4.15484e+07
529.192
4.30272e+06
3818.25
2.16483e+07
2.59069e+07
207049
2.62685e+06
327384
1.69416e+06
5.01669e+07
5.02964e+07
4.42838e+07
5885.86
1.63538e+06
6.43934e+06
1.00896e+07
3.83221e+07
191268
9.45926e+06
549509
2.95828e+07
5.67065e+06
766.649
1.54261e+06
1.0933e+07
7.14841e+07
4.57811e+07
4.58883e+07
2.38418e+07
3.87533e+07
3.60056e+07
3.47002e+07
6.98693e+07
6.83236e+07
1.77701e+07
8.67753e+06
1.83733e+07
5.91852e+07
3.29999e+07
2.41596e+07
1.3796e+06
7.32748e+07
1.2616e+07
3.03514e+07
2.53544e+07
1.05911e+07
5.95729e+06
9.92286e+06
3.48895e+07
4.57369e+07
5.83991e+07
2.0739e+07
3.7529e+06
7.58633e+07
6.7624e+06
1.77123e+07
8.57555e+06
4003.35
2.59701e+06
329.664
7.8325e+06
9.58763e+06
1.83395e+07
3.63912e+07
2.80622e+06
178023
5.89096e+07
1.63211e+07
2.59728e+06
978332
7.16217e+07
7.44516e+07
3.07826e+07
1.78895e+07
25321.8
9.27577e+06
1.94579e+06
7.23381e+07
3.76993e+07
3.2324e+07
4.38157e+07
999637
3.44805e+07
3.44846e+07
3.94088e+07
1.63991e+07
195412
1.99953e+07
605716
4.0799e+07
7.00788e+07
481465
5.06285e+07
4.09026e+07
5.24756e+07
3.24609e+07
4.10915e+07
3.45748e+07
1.99332e+07
3.52502e+07
4.42954e+07
4.43015e+07
2581.01
1.37734e+06
1.36132e+06
2.54066e+07
6.23574e+07
3.3212e+06
2.39188e+07
67387.3
4.66322e+07
1.09721e+06
438584
679.852
30138.6
1.59671e+06
4.27734e+07
5.33917e+07
2.37876e+07
3.36988e+07
4.97396e+07
1.88261e+07
7.83456e+06
4.37838e+07
3.81546e+07
5870.47
7.68317e+06
7.56521e+06
1.08347e+07
4.1059e+07
26985.6
3.27073e+06
5.95774e+07
15926.7
1.85201e+07
5.00414e+07
801878
9.16054e+06
2.66356e+07
1.71821e+06
1.22319e+07
69756.7
1.38109e+06
644014
3.36542e+07
1.4777e+07
615912
2.06934e+07
4.68444e+07
1.70781e+07
4.89612e+07
4.43098e+06
4.315e+07
1.725e+07
4.53513e+06
2.79524e+07
1.38983e+07
4.63601e+07
4.32687e+07
163659
6.61532e+06
1.06957e+07
1.07302e+07
3.9521e+07
4.3347e+07
1.39018e+07
6.21626e+07
3.0183e+07
461005
1.34747e+07
1.35737e+07
2.96437e+07
8.18612e+06
9.41744e+06
1486.6
9.29125e+06
3.94608e+07
3.93673e+07
2.47828e+07
7.0945e+07
4932.85
5.02996e+07
1.77586e+06
5.71941e+07
7.32072e+07
3556.75
82426.5
1.04249e+07
5.30329e+07
6.95361e+06
1.73887e+07
77162.3
4.12334e+07
7.76606e+07
3.47342e+07
11384
3.09478e+07
5.54002e+06
3.38795e+06
4.39096e+07
7.1087e+06
14868.3
1.229e+07
2.50431e+07
6.52946e+06
7.60648e+06
3.81739e+07
6.09882e+07
3.0527e+07
2.60393e+07
4.96992e+07
4.52547e+07
1.86478e+07
3.06187e+07
7.61993e+06
2687.85
3.46838e+07
121151
3.28392e+07
3.29686e+07
2.82321e+07
4.84059e+06
6.20388e+07
3.63975e+07
3.64877e+07
3.69643e+07
5.97672e+06
51372.5
8.05292e+06
1.11334e+07
95150.2
2.43729e+07
4.00011e+06
66227.9
4.53861e+07
7.58882e+06
5.20109e+06
4.70549e+07
5.40091e+07
525267
7476.45
2.69434e+07
5.14399e+06
182934
1.05698e+07
14008.5
6.62667e+07
1.85317e+07
1991.81
8.00496e+06
8.0734e+06
2.48507e+07
6.02289e+07
3.26598e+07
4695.71
45375
6.35657e+07
7.486e+07
4.14387e+07
1.62246e+06
2.97396e+07
7.22977e+07
4.38988e+07
7.77718e+07
8.3135e+06
4.34195e+07
1.78264e+07
35023.8
2.46417e+07
5.04552e+07
4.73439e+07
4.88648e+07
640676
8.75113e+06
4.48544e+07
976193
1.89013e+07
5.64605e+06
3.97564e+06
5.10056e+07
4.112e+07
4.97172e+06
2.46882e+07
5.62965e+07
3.12942e+07
5.3431e+07
1.98735e+07
3.39537e+06
1.99048e+07
7788.32
3.8155e+07
355.653
2.47952e+07
4.84064e+07
3.6987e+07
9.98883e+06
6.55278e+07
1.84622e+07
2.21268e+07
1.67885e+07
4.17936e+07
7.31804e+07
1.50882e+07
7.91307e+07
3.70498e+07
3.66782e+07
2668.44
133072
7.51198e+07
42128
4.79475e+07
3612.22
3.81755e+06
4.28766e+07
33891.7
3.53835e+07
5.23919e+06
4.44794e+07
7.53299e+07
7.21548e+06
4.77561e+06
5501.62
5.57681e+06
9.7597e+06
3.35135e+07
3.34545e+07
11096.4
805883
31068.9
5.23132e+07
5.22914e+07
93031.6
6.03258e+06
4.60598e+07
6.10215e+07
2.39525e+07
593831
2.40863e+07
2.94009e+07
77181
4.64562e+07
6.41172e+07
3.91657e+06
2.80741e+07
490171
2.71397e+07
4.78484e+07
2.34346e+07
6.34195e+07
8.19214e+06
1.43205e+07
6.26531e+07
6.14121e+07
5.84957e+07
1.26577e+07
3.32978e+07
5.05189e+07
900810
1.46406e+07
4.69535e+07
1.30377e+07
3.58888e+07
2.77685e+06
1.96566e+07
1.43506e+06
1.08049e+06
7.76088e+07
2.43437e+07
17290.5
7.89008e+07
42149.5
6.40464e+06
6.70131e+06
6.94625e+07
4.29541e+07
1.69409e+07
1.78891e+07
975.818
3.42244e+07
1.51266e+07
5.06329e+07
1.521e+07
3.71486e+07
19661.6
1.98578e+07
6.11445e+07
6.97838e+07
7.2276e+07
418394
3.36842e+07
2.6936e+07
3.31367e+06
7.25937e+06
1780.59
1.79898e+07
3.55704e+07
9.82089e+06
2.46852e+07
2.17313e+07
2.81212e+07
3.28662e+07
64165.1
3757.28
2.46786e+07
2.32625e+07
7.54301e+06
198306
129570
4.53838e+06
5.99076e+07
4.31601e+07
7.94649e+07
5.91031e+07
5.92815e+07
2.45186e+07
687888
1.75435e+07
55297.8
4.73782e+07
2.53969e+07
3.33876e+07
3.48838e+07
3.76591e+07
2.76767e+07
2.43986e+06
7.17525e+07
3.85023e+06
3.82971e+07
4.87765e+07
4.2995e+07
4.94265e+06
2.40938e+07
2.40701e+07
1.07621e+07
4.50562e+07
40697.5
1.6993e+06
1.07642e+06
5.92811e+07
1.94356e+07
5.21208e+07
6.07438e+07
1.47945e+07
1.46275e+07
7.30176e+07
4.55686e+07
1.57377e+07
2.58847e+07
2.5344e+07
4.94537e+07
2.69591e+07
3.35679e+07
1.46797e+07
6.9241e+07
682.284
5.02382e+07
6.36616e+07
2.38755e+07
89511
187052
31228.4
8.40191e+06
7.20041e+07
3.00847e+07
6.37169e+07
2.09791e+07
4.77313e+07
7.97525e+06
8.10004e+06
5.0136e+06
7.76847e+06
4027.61
2.10492e+07
1.15401e+07
149200
2.94175e+06
2702.6
1.81331e+07
1.136e+07
3.89114e+07
5362.38
5.21592e+07
5.21408e+07
5.78937e+06
5.25163e+07
2.52653e+07
5.0043e+07
5.06571e+07
3.57751e+07
3.55155e+07
282805
145246
5111.21
4.6804e+06
209053
1.40162e+07
4.01667e+07
6.54836e+07
2.61901e+06
1.53422e+07
456730
5.79293e+07
1.43586e+07
7.38673e+07
3.7919e+07
6.96674e+07
2.07266e+07
1.03595e+07
6.33496e+07
700783
3.97268e+07
8.14487e+06
6.35315e+07
1.73342e+07
7.1136e+06
3.89629e+06
5.26815e+07
2.44113e+07
4225.82
6.56836e+07
2.33038e+07
2.5507e+07
5.2798e+07
1.81047e+07
4.65171e+07
206353
8.28971e+06
1.98817e+07
1.97281e+06
3.6594e+07
9.29218e+06
4612.59
6.23082e+07
3.69053e+07
385009
748018
4.43341e+07
3.33559e+07
1.2236e+07
9.70414e+06
4.92481e+06
7.82708e+07
8.57509e+06
2.63473e+07
3.98284e+07
3.19961e+07
1.92266e+07
3154.87
6.05446e+07
3.82918e+06
1.27355e+07
3.60565e+07
4.42067e+07
7.71926e+06
7.6284e+07
474983
2.66907e+07
3.24837e+07
519831
2.35138e+07
7213.24
2.13398e+07
6.21191e+07
828373
1.73556e+07
6.9856e+06
1.5153e+07
1.51981e+07
4.96077e+06
13987.1
4.61228e+06
3.14344e+06
4.94959e+07
9.29847e+06
9.6768e+06
4.7822e+07
909814
4.52863e+07
6.35906e+06
2.58037e+06
101153
6.68722e+07
4.01365e+07
6.36332e+07
1.74453e+07
3.47683e+06
1.26226e+07
1.0378e+07
1.57829e+07
2.13016e+07
1.56592e+07
652506
2.49295e+07
2.49349e+07
1.37087e+07
1.3293e+07
7.40195e+07
3.16549e+07
1.36381e+07
8.6245e+06
5.18851e+07
2.82579e+07
2.82882e+07
2.27147e+07
4.9928e+07
1.16304e+07
1.52293e+07
795819
98691
4.09489e+06
1.08106e+06
2.46731e+07
4.09485e+07
3.70633e+06
2.01741e+07
7.10626e+07
4.07637e+06
4.00035e+07
808323
1.46766e+07
2.5397e+07
4.71522e+07
4.32608e+07
4.27862e+07
456828
3.04874e+07
1.54605e+07
2.47208e+07
6.27602e+06
7.91286e+06
8.81114e+06
5.87514e+07
122391
6.92881e+07
503435
1.16831e+07
1.97175e+07
4.99081e+07
1.23192e+07
1.03624e+07
5.77799e+07
1.82126e+07
3.88311e+06
4.2516e+07
2.25467e+07
2.2486e+07
1.8808e+06
5.81262e+06
190702
4.1934e+07
1.51433e+06
2.43447e+07
2.43371e+07
4.77571e+06
1.97071e+07
5.60821e+07
4.36489e+07
2928.94
6.98459e+07
1.92248e+07
1.96466e+07
7.36233e+06
2.14979e+07
5.38799e+07
2.30423e+07
2.29996e+07
3.02891e+07
76865.3
9.98336e+06
5.05367e+06
441471
3.16075e+06
5.21577e+07
794048
3.53123e+07
1.32323e+07
3.64611e+06
5.52903e+07
2.48943e+07
77710.7
8.96816e+06
4.88901e+07
4.20416e+06
4.16104e+07
1.51987e+07
989992
3.53506e+07
8.90114e+06
2.65214e+07
1.52599e+07
1.84113e+07
5.94265e+06
6.74684e+07
7.03921e+07
79796.1
1.76752e+07
2.00369e+07
4876.12
3.64345e+07
2.06311e+07
3.87233e+07
2.76717e+07
2.6868e+07
47986.4
1.73952e+07
1.2115e+07
2.13921e+07
4.21598e+07
2.60958e+07
3.23617e+07
427015
4.78543e+07
7.5957e+07
3.97402e+07
1.4597e+07
6986.97
6.48151e+06
1.47858e+07
7.64592e+07
1.90971e+07
1.90771e+07
5.07801e+07
1.34949e+07
636316
1.49494e+06
5.46662e+07
4.60213e+07
1.96123e+07
7.85724e+07
1.05258e+07
107422
1.20328e+06
4.32903e+07
1.11681e+06
1.72497e+07
1.77235e+07
4.00906e+07
33089.4
101996
2.51094e+07
1.3243e+07
4.4451e+07
4.08421e+06
3.31745e+07
1866.46
1.49981e+07
2.12621e+07
3.2018e+07
8.13633e+07
5.5625e+07
6.94382e+07
1.46264e+07
2.20926e+07
3.14241e+07
6.90674e+07
2.27293e+07
1.33531e+07
3.51507e+07
1.90261e+07
2.21788e+07
4.03639e+07
4.03129e+07
7.47211e+07
4.52487e+07
4.79656e+06
823515
4.3005e+06
4.33565e+07
8.37607e+06
738489
8.83834e+06
282936
3.51002e+07
456783
1.03581e+07
7.74775e+07
1.77583e+07
525416
2.21643e+07
4.01164e+07
112430
6.08488e+07
1529.89
5.59836e+06
2.35525e+07
1.65116e+07
92896.3
1.70821e+07
108883
3.80726e+06
7.05142e+06
5.67662e+06
7.01207e+06
2.82182e+07
3.1712e+07
1.32129e+07
8.71202e+06
2.28586e+07
90904.3
5013.81
1.38741e+07
6.54739e+07
5.27561e+07
73285.1
1.23138e+07
5.91519e+07
44936.9
2.37748e+07
4.51356e+07
3.19511e+07
1.56391e+07
4.58825e+06
5.95826e+06
1.5638e+07
5.85281e+07
983034
561558
2.21988e+07
83247.6
3.83591e+06
32754.3
2.39125e+07
1.72529e+07
6.35823e+07
6.17552e+06
376.682
9356.93
2.69564e+07
2.06814e+07
2.54093e+07
2.95452e+07
4.12222e+07
42272.4
1.79899e+06
3640.59
4.90767e+07
4.33501e+07
8.78868e+06
1.3327e+07
2.4614e+07
7.76754e+07
784547
3.52782e+06
2.47759e+07
6.48559e+07
2.09596e+07
5.3319e+06
5.85154e+07
286.041
5.31563e+07
3.6281e+07
7.26701e+06
2.00045e+07
3.26454e+07
3.07378e+07
1.47871e+07
3.28826e+07
6.99806e+06
134831
4.63074e+07
189180
4.80257e+07
2.24372e+07
2.73257e+06
4.04495e+07
5.8306e+07
1.37566e+07
7.01797e+06
4.71252e+07
101243
4.11748e+06
14737.4
21238.9
386559
5.17512e+07
1.42687e+07
1.35484e+07
3.72272e+07
4.2328e+07
2.14008e+07
4.1984e+06
4.18678e+07
2.12492e+07
3.35532e+07
1685.72
15858.6
2.39515e+06
5.81504e+07
7.14412e+06
5.85277e+06
1.44546e+07
6.24255e+07
4.08615e+07
7024.59
5.76764e+07
2.34791e+07
3.91453e+06
2.87223e+07
5.99062e+07
5.51135e+06
135045
3.30329e+07
2.77153e+07
1.56234e+07
1.14849e+07
7.46021e+07
6.83873e+07
4.06332e+07
3.39262e+07
3.67782e+07
4.31275e+06
7.50532e+07
1.54721e+07
3.30091e+06
1.02815e+07
1.49087e+07
2.36996e+07
2.19742e+07
1.39539e+07
7.44712e+07
3.57334e+07
3.55985e+07
5.47944e+07
1.8952e+06
1.28284e+06
4.26726e+07
2.2826e+07
2.89323e+07
103056
38892.6
2.45697e+07
1.84525e+07
3.93606e+07
965832
110928
522848
1.77983e+07
1.5589e+07
6.4902e+07
2.17211e+07
3.03683e+07
14549.1
4.45236e+07
4.78437e+06
52967.6
6.48408e+07
1.74369e+06
7.79637e+07
2.92543e+07
1.40526e+07
6.37838e+07
1.16448e+06
4.33211e+07
4.33956e+07
4.3776e+06
5.36895e+07
3.23349e+07
5.59614e+07
4.51205e+07
3.88442e+07
3.88504e+07
4.52076e+07
4.49893e+07
8.11996e+07
2.07156e+07
2.0869e+07
6.86951e+07
4.94471e+07
4.95122e+07
6.85379e+07
579986
189590
4.83351e+07
6.31733e+06
4.13431e+07
4.13125e+07
7.34303e+07
4.67307e+06
2.22251e+07
3.14072e+07
1.91339e+07
9.11278e+06
1.53234e+07
14190.6
7.5789e+06
2.3534e+07
1.53791e+07
3.29926e+06
2.13345e+07
5.10077e+07
7.045e+07
2.74315e+07
3.23939e+07
1.63641e+07
7.05846e+07
7.02623e+07
1.9633e+06
3.99155e+07
2.76612e+07
1.6047e+07
3.47576e+07
3.24066e+07
1.06445e+07
3.42348e+06
18799.8
7.21528e+07
3.66151e+07
5.86253e+07
5.1285e+07
3.3961e+07
3.38746e+07
12029.1
3022.51
3.37674e+07
2.74256e+07
3.61952e+07
4.9043e+07
41973
7.22218e+07
2.38279e+07
5.30929e+06
2.25605e+07
1.25611e+07
1.77207e+07
6.56897e+07
3.51378e+07
4.32422e+07
5.14598e+07
3.71115e+07
4.13295e+06
1.36673e+07
4.83213e+07
4.64248e+06
1.37798e+07
1.53794e+07
6.70367e+07
34434.7
509924
4.91923e+07
6.08332e+06
2.44604e+07
3.8475e+07
50149.2
7.38074e+06
7.50395e+07
5.2868e+07
1.61424e+07
1.12383e+07
2.23547e+07
2.8699e+06
3.10381e+06
2.90704e+07
6.64727e+07
6.08753e+06
7.66045e+07
7.64343e+07
183899
19713
15110.1
2.46343e+07
6.80516e+07
1.74468e+06
1.17235e+07
1.14222e+07
2.37492e+07
1.43676e+07
1.00313e+07
838452
2.64014e+07
556038
2.16247e+07
2.16525e+07
2.56165e+07
4.17977e+07
6.35312e+06
4.69026e+07
3.73638e+06
4.13025e+06
3.89819e+07
2.24499e+07
2.60904e+07
4.67913e+07
1.11387e+07
2.54389e+07
2.15437e+07
1.98755e+07
114838
6.94059e+07
198982
915475
5.32411e+07
7.56471e+07
296211
3.10969e+07
3.25248e+07
2.33761e+07
8.25559e+06
16991
826705
45997.2
2.76151e+07
1.4587e+06
1.48789e+07
1.85149e+07
7.60161e+06
4.00017e+07
107151
4.6452e+07
3.26485e+07
5.45958e+07
5.45485e+07
6.16828e+06
4.80956e+07
6.34684e+07
4.5977e+07
1.48953e+07
1.84693e+07
20434.7
4.73657e+07
3.94378e+07
1.52812e+07
2.6251e+07
5.12217e+07
4.78179e+07
7.05851e+07
2.38752e+07
6.40938e+07
3898.33
1.65408e+07
3.07662e+07
8419.56
282800
3.08008e+07
685202
20131.5
8.72632e+06
1.38737e+07
8.54146e+06
5.02511e+07
2.06343e+07
9.61596e+06
709175
3.54266e+07
4.78415e+07
3.17942e+07
4.44483e+07
5.67373e+07
5.59403e+06
1.32467e+07
1.21717e+07
2.30584e+07
1.3188e+07
1.21351e+07
1.89486e+07
2.42109e+07
2.42973e+07
4.44915e+07
1.19901e+07
6.7025e+07
7.89586e+07
1.07242e+07
3.62541e+07
3.088e+07
2131.21
4.44152e+06
7.01578e+06
5.14873e+06
9.45913e+06
2.39183e+06
349280
2.32308e+07
1.42601e+06
8.21939e+06
8.75197e+07
495486
1.64389e+07
4.23522e+07
992031
834696
2959.17
533549
6.21746e+07
5.92117e+06
37705.2
8.21728e+06
6.63774e+06
1.26909e+06
5.17568e+07
4.34071e+07
2.66042e+07
2.65918e+07
4.65483e+07