/*--------------------------------*- C++ -*----------------------------------*\
| =========                 |                                                 |
| \\      /  F ield         | OpenFOAM: The Open Source CFD Toolbox           |
|  \\    /   O peration     | Version:  v3.0+                                 |
|   \\  /    A nd           | Web:      www.OpenFOAM.com                      |
|    \\/     M anipulation  |                                                 |
\*---------------------------------------------------------------------------*/
FoamFile
{
    version     2.0;
    format      ascii;
    class       volSymmTensorField;
    location    "4000";
    object      sigma;
}
// * * * * * * * * * * * * * * * * * * * * * * * * * * * * * * * * * * * * * //

dimensions      [1 -1 -2 0 0 0 0];

internalField   nonuniform List<symmTensor> 
24076
(
(-6.69414e+07 2.06089e+06 -4.29188e-12 617471 1.1907e-13 -1.64563e+07)
(-6427.66 -76609.9 3.64982e-15 895388 -6.42897e-15 220569)
(-167.782 -1681.15 -5.1666e-17 13235 1.32801e-16 3242.24)
(299.374 -1265.28 -1.51298e-17 13670.7 1.04385e-16 3466.27)
(-9.93801e+06 3.72805e+06 2.31911e-12 5.23593e+06 -8.45671e-13 -1.16668e+06)
(-3160.24 -58776.1 1.18523e-15 1.04066e+06 3.83102e-14 257425)
(6316.84 -88776.8 -8.12022e-17 928325 -1.21748e-14 231904)
(-7.13915e+07 1.23267e+06 -5.4452e-12 378490 1.36925e-12 -1.76198e+07)
(224.349 -826.155 -1.07558e-18 997.63 4.3497e-17 303.198)
(-6.10116e+07 -1.12931e+06 4.61005e-12 70170.6 -1.07668e-11 -1.51208e+07)
(4.75841e+07 -7.14413e+06 -9.4606e-13 1.06735e+07 1.78723e-12 1.44549e+07)
(-5.93146e+07 -1.05123e+06 -1.83649e-12 -21255.8 5.42694e-12 -1.47224e+07)
(-2.94219e+07 8.13432e+06 -1.82905e-12 1.9397e+06 -1.69861e-12 -6.8189e+06)
(-6.32702e+06 4.17303e+06 -2.48273e-12 5.10912e+06 -6.26484e-13 -302186)
(-7.32629e+07 -947713 9.01614e-13 -354215 -7.93352e-12 -1.82659e+07)
(-5.65777e+06 -1.71093e+06 -5.19074e-12 -217982 -1.30061e-11 -1.45789e+06)
(3.89067e+07 -814533 7.03198e-12 -30660 -2.90547e-11 9.64594e+06)
(-3.95162e+07 -1.08258e+06 -8.7747e-12 32536 2.3185e-11 -9.79669e+06)
(-456969 -2.81906e+06 -9.53071e-12 345317 5.35069e-12 -27703.1)
(-7.35067e+06 -3.02675e+06 -1.71942e-11 -149734 1.55382e-11 -1.861e+06)
(-7.21374e+07 117210 4.67081e-13 -325687 -2.41208e-12 -1.79796e+07)
(4.13855e+07 -3.6366e+06 1.14724e-12 5.73444e+06 -2.96196e-12 1.16914e+07)
(-6304.92 -55596.5 1.53314e-15 1.31318e+06 -1.47797e-16 324263)
(4.83139e+07 -6.48081e+06 1.68499e-12 1.03038e+07 -3.81357e-13 1.45442e+07)
(1.61331e+06 6.4364e+06 2.82171e-13 3.30246e+06 -2.99133e-13 1.2197e+06)
(2.68849e+06 -1.85789e+06 -7.96328e-12 276007 4.85375e-12 735551)
(2.01617e+06 -3.29075e+06 -2.82254e-14 5.1663e+06 1.64866e-14 1.78212e+06)
(4631.56 -71758.3 -1.79927e-15 1.04465e+06 9.46859e-15 260349)
(5.139e+06 -2.47936e+06 -9.5575e-12 -267782 -8.3929e-13 1.20865e+06)
(4.03702e+06 7.6178e+06 -5.55334e-12 3.42309e+06 -1.68532e-12 1.851e+06)
(1.13894e+07 -2.00532e+06 3.87729e-12 -281205 6.85726e-12 2.75616e+06)
(11907.7 -63480.9 -1.07105e-15 246006 -3.30308e-15 63993.5)
(-2.65955e+07 -1.94945e+06 1.53043e-11 113371 1.95088e-12 -6.57076e+06)
(-2.16036e+07 -379631 2.28653e-12 2.76386e+06 -6.48995e-12 -4.67453e+06)
(-3.08767e+07 -2.75277e+06 1.29018e-11 -175472 -1.52806e-12 -7.70468e+06)
(-5.23017e+07 -2.08973e+06 7.53295e-12 29227.5 2.70628e-12 -1.29699e+07)
(-2.87894e+07 7.55004e+06 -3.61853e-12 1.42153e+06 -1.21809e-12 -6.79053e+06)
(3.99576e+07 318862 7.66175e-12 173057 -1.66874e-11 9.95722e+06)
(-4.032e+07 197201 -1.61933e-12 -196650 3.50635e-11 -1.0053e+07)
(-7.33412e+07 34814.1 -2.10579e-12 -244451 -2.49749e-13 -1.82581e+07)
(2.21287e+07 -7.94096e+06 5.75892e-13 3.02186e+06 -6.09297e-13 6.24036e+06)
(7.60618e+06 -2.01509e+06 -1.31331e-11 297063 -2.70174e-12 1.96095e+06)
(-2.19739e+07 6.06668e+06 -7.71165e-12 2.90511e+06 -2.91588e-12 -4.73135e+06)
(-1.86281e+07 -661185 -3.64573e-12 2.57866e+06 -1.99676e-12 -3.98219e+06)
(-4.89913e+07 -968856 3.97477e-12 64608.6 3.35887e-12 -1.21397e+07)
(7.07083e+07 -1.25908e+06 -6.59468e-12 -18203.2 8.32592e-13 1.75397e+07)
(49717.2 -366982 2.89658e-15 1.14082e+06 7.84117e-15 295397)
(-1.76261e+07 -2.33093e+06 4.45362e-14 -11342.6 3.78479e-12 -4.37621e+06)
(2.70875e+06 -3.63263e+06 7.53132e-14 5.33623e+06 -4.29642e-14 1.99612e+06)
(5.21216e+07 -2.19058e+06 1.1768e-11 -109584 3.61124e-12 1.29052e+07)
(533.837 -2147.92 -3.53537e-16 36018.8 -9.40634e-16 9069.46)
(519144 -1.57192e+06 7.85718e-14 5.09359e+06 -1.23539e-13 1.39263e+06)
(996.583 -2533.71 1.34641e-17 1518.38 -1.7131e-16 624.014)
(3766.15 -96501.5 4.96783e-15 1.13434e+06 1.16985e-14 282387)
(163.838 -803.181 -2.5887e-18 958.587 -4.55306e-17 278.496)
(-2.98094e+07 -1.52225e+06 0 -236435 0 -7.45499e+06)
(-1.10998e+07 534914 8.26569e-13 3.59598e+06 1.03709e-12 -1.86184e+06)
(-7.50286e+07 -239957 5.90471e-12 52692.6 5.00485e-12 -1.8603e+07)
(-159668 -2.67269e+06 1.59775e-11 -26317 6.93583e-12 -46146.7)
(-3.47859e+07 -2.21512e+06 4.74668e-12 -225449 1.20612e-11 -8.68703e+06)
(7.08668e+07 118247 2.00496e-11 -173749 -2.74962e-11 1.75404e+07)
(60486.1 -355671 1.42766e-15 497138 1.67278e-14 138358)
(8.45099e+07 -228431 -2.92712e-13 -101689 1.04887e-11 2.09434e+07)
(4.88165e+07 -914412 -2.88577e-13 29572.8 -6.76352e-12 1.21197e+07)
(3.56087e+07 -2.69222e+06 -3.51217e-12 9.45618e+06 -2.85861e-12 1.11815e+07)
(-7.09975e+07 -785271 8.33508e-12 229344 9.68841e-12 -1.7559e+07)
(-1.98483e+07 1.30789e+06 -4.94855e-12 3.65674e+06 -2.67761e-12 -4.01745e+06)
(3.13714e+07 -2.04745e+06 -2.34552e-13 9.5712e+06 1.41249e-12 1.01587e+07)
(5346.92 -128042 2.74555e-15 693955 -1.39597e-15 173511)
(-1.84816e+07 842716 2.48022e-12 3.36729e+06 -4.91742e-13 -3.75016e+06)
(-276988 -2.7659e+06 -3.3868e-11 -13270.5 -9.36192e-14 -72019.1)
(52383.9 -196951 -1.41993e-14 1.89862e+06 2.46704e-14 484083)
(5.30818e+07 -1.07524e+06 -2.33403e-12 -121455 -1.14957e-12 1.31405e+07)
(36925.1 -105940 -1.00216e-16 122865 -1.54625e-14 39647)
(2.04978e+07 -7.88756e+06 9.73065e-13 3.15109e+06 -9.56596e-13 5.86777e+06)
(-1.27262e+07 -1.74317e+06 -2.17324e-11 409659 8.78544e-12 -3.05598e+06)
(4.31609e+07 -5.07391e+06 2.79548e-12 6.30094e+06 -2.05001e-12 1.22725e+07)
(5.12364e+07 -1.55058e+06 -3.46339e-11 28601.8 2.01077e-11 1.27199e+07)
(-4.67141e+07 636107 0 1.09384e+06 0 -1.13193e+07)
(8.56755e+07 -550090 -2.63157e-12 -180796 7.08791e-12 2.1213e+07)
(17086.1 -340538 -1.90321e-15 1.07265e+06 -2.78553e-14 270385)
(-1.68737e+07 -1.79227e+06 -6.49798e-12 -49865.5 -1.1041e-12 -4.19907e+06)
(2.29325e+07 -3.05051e+06 -4.39636e-12 3.12145e+06 2.22411e-12 6.46452e+06)
(1.2748e+07 3.2391e+06 0 6.42822e+06 0 4.75801e+06)
(8.00756e+06 -8.12603e+06 9.92372e-14 8.2001e+06 -8.38193e-15 4.02145e+06)
(1224.19 -2535.59 9.12098e-18 1722.55 -8.86227e-17 731.146)
(-1.33776e+07 -1.93837e+06 7.04753e-12 131935 -8.97941e-13 -3.28653e+06)
(4.24378e+07 -1.8287e+06 -1.21953e-11 -201702 1.55308e-11 1.04796e+07)
(161351 -2.63319e+06 -1.91659e-11 19425.3 1.30341e-11 44854.4)
(-8.59125e+06 -2.30791e+06 3.82204e-11 73058.9 -9.34515e-12 -2.11354e+06)
(-1.60597e+07 -3.12726e+06 7.76469e-12 224513 -6.51342e-12 -3.92904e+06)
(-219233 -2.74275e+06 -1.50909e-11 62969.9 2.34786e-11 -38772)
(4.08447e+07 -2.42766e+06 3.65028e-12 936176 -3.53231e-12 1.03667e+07)
(-1.2055e+07 -540812 6.4067e-12 3.6091e+06 4.23961e-12 -2.0956e+06)
(1.19142e+07 3.31404e+06 2.28858e-12 7.12629e+06 2.16291e-12 4.72433e+06)
(3.87463e+07 -1.18395e+07 -9.41788e-13 1.00058e+07 1.31096e-12 1.20964e+07)
(6.36771e+06 -3.22065e+06 3.32937e-12 -331936 -1.80944e-11 1.4976e+06)
(-5.74991e+06 -2.75351e+06 0 72578.4 0 -1.40866e+06)
(5578.12 -68543.4 1.29748e-16 223875 2.43737e-15 56931.9)
(-1.9641e+07 3.68259e+06 2.05469e-12 4.0608e+06 2.78164e-12 -3.86576e+06)
(2.16867e+07 -2.68548e+06 9.23664e-12 2.94833e+06 3.27881e-12 6.11245e+06)
(3.66736e+07 -4.04656e+06 -2.07463e-12 8.86095e+06 4.21625e-13 1.12981e+07)
(8.88406e+06 -2.66246e+06 1.12881e-11 93730.9 -1.88556e-11 2.22757e+06)
(-4.77401e+07 504041 1.92399e-12 1.43896e+06 2.47461e-12 -1.14883e+07)
(1.29155e+07 -2.75873e+06 4.06858e-12 54532 1.08753e-11 3.21814e+06)
(2.10794e+07 -1.19422e+07 4.09848e-13 9.1483e+06 -6.67645e-13 7.5001e+06)
(9532.68 -32146.9 1.44696e-17 50260.3 -3.40507e-15 14835.8)
(-4418.64 -69376.1 1.7593e-15 1.57452e+06 -8.50712e-15 389575)
(6.32703e+07 -3.86969e+06 -6.49704e-12 1.56376e+06 -1.44901e-12 1.60866e+07)
(2.35986e+07 -2.94023e+06 -1.47205e-11 80228.5 1.68792e-12 5.8752e+06)
(5.59452e+06 -1.7418e+06 1.06297e-11 41291.2 -2.58256e-12 1.39836e+06)
(-1.25265e+07 -2.15841e+06 1.19488e-11 392396 -1.45373e-11 -3.01073e+06)
(141.823 -1103.83 -2.21599e-17 2993.02 1.96828e-17 777.819)
(94971.5 -379236 6.28896e-16 551374 8.6642e-15 160372)
(-1.01391e+07 -1.45735e+06 -9.56163e-12 102463 2.91083e-11 -2.49029e+06)
(-290.072 -3245.41 -3.62326e-16 33276.5 -1.43428e-15 8184.61)
(4.25212e+07 -5.34597e+06 1.63577e-12 1.03618e+07 -8.6499e-13 1.31213e+07)
(1.99416e+07 -1.56271e+06 -6.08311e-12 -333140 -8.36209e-13 4.86525e+06)
(-6.79408e+06 -2.08484e+06 -3.4532e-12 -30774.2 -4.1341e-11 -1.69338e+06)
(2.64864e+07 -2.3712e+06 6.62557e-12 -145474 6.3016e-12 6.53571e+06)
(4.08638e+06 -2.70061e+06 2.24679e-12 -287553 6.0323e-12 942567)
(4.44699e+07 -832279 4.52211e-12 10550.5 2.00179e-12 1.10365e+07)
(1.81832e+07 -1.2935e+07 -3.91298e-13 1.19946e+07 5.47834e-13 7.48774e+06)
(-7.02086e+07 1.58792e+06 -2.0439e-12 794215 -1.11582e-12 -1.72231e+07)
(-4.61464e+07 -2.12466e+06 0 186631 0 -1.14036e+07)
(4.05575e+07 -895621 3.72807e-12 -331598 5.87139e-14 9.98086e+06)
(6.30987e+07 -2.29069e+06 1.72602e-12 1.23349e+06 2.07631e-12 1.59621e+07)
(-3.7628e+07 -1.1169e+06 -3.76602e-12 114456 3.60722e-12 -9.30787e+06)
(1.37375e+07 -1.71414e+06 4.1137e-13 51563 1.52428e-13 3.42134e+06)
(790.938 -15959.8 6.76372e-17 165785 -1.33447e-15 41330.9)
(4.40633e+07 -2.10582e+06 -5.64566e-12 -95428.3 -8.57699e-13 1.09093e+07)
(2.57256e+07 -1.68343e+06 7.94589e-12 214069 2.23355e-11 6.43615e+06)
(1.95241e+07 -2.37778e+06 5.35534e-12 -137841 -3.75471e-11 4.81012e+06)
(11028.1 -85797.3 3.48048e-15 1.3609e+06 -2.38129e-14 340404)
(4.20467e+07 -2.35879e+06 -3.96353e-12 831495 4.66735e-12 1.06389e+07)
(822587 -1.94841e+06 -1.2803e-13 6.86315e+06 1.42993e-13 1.90699e+06)
(-3.33191e+06 -1.78115e+06 1.0015e-11 1.06438e+06 -1.19768e-12 -562621)
(-2.22649e+07 7.11855e+06 -4.88609e-12 3.26742e+06 -3.79904e-12 -4.71366e+06)
(-2.87076e+06 -1.60611e+06 -2.92345e-11 -99320.8 1.1221e-12 -736938)
(-7.0614e+06 -1.64515e+06 -6.28778e-13 965045 -2.58392e-12 -1.51263e+06)
(-1.07742e+07 -2.02948e+06 2.14136e-12 1.05448e+06 -3.89869e-12 -2.41166e+06)
(301.632 -1227.27 1.01877e-17 3010.34 8.96835e-17 821.768)
(3.69049e+06 -3.12132e+06 3.69037e-14 1.6779e+06 -1.09755e-13 1.33201e+06)
(4.65042e+06 -2.5511e+06 -2.30306e-11 13557.8 -1.06704e-11 1.15723e+06)
(-2.07723e+07 -1.45725e+06 -3.01868e-11 -218814 4.50018e-12 -5.20831e+06)
(-1.10327e+07 -2.56652e+06 -1.98383e-12 134638 -3.87569e-13 -2.70403e+06)
(1.80986e+07 -1.73309e+06 1.03142e-12 271719 -7.0901e-12 4.55805e+06)
(-2.53828e+07 -2.25299e+06 -2.94548e-11 -32774.6 -2.63589e-12 -6.30611e+06)
(-866460 -2.22738e+06 -7.43822e-12 912580 -4.62609e-12 11443.4)
(1658.92 -9749.78 5.354e-16 80110.6 1.57097e-15 20288.7)
(5.75531e+07 -1.447e+06 -4.81248e-12 208459 -1.59002e-12 1.43318e+07)
(252.907 -592.887 5.00567e-18 160.074 -3.91891e-17 102.469)
(-3.85307e+07 6.62255e+06 -7.3191e-13 113952 -1.8142e-13 -9.53198e+06)
(-1.98007e+07 4.48963e+06 3.21974e-12 3.64765e+06 2.24753e-12 -4.00791e+06)
(-4.67899e+07 -1.12618e+06 2.26708e-12 376074 -2.02872e-12 -1.15162e+07)
(-6.69689e+06 -2.922e+06 2.80438e-11 494504 -2.30336e-11 -1.53894e+06)
(-7.00681e+07 1.30342e+06 2.95514e-13 -206594 4.53798e-13 -1.74366e+07)
(1.24766e+07 -2.0327e+06 -6.61355e-12 93580.6 3.00729e-13 3.11891e+06)
(-3.8251e+06 -2.54831e+06 7.53013e-12 1.4428e+06 -8.80582e-12 -591097)
(1591.47 -7233.6 8.56886e-17 17723.1 7.17867e-16 4792.34)
(1.86774e+06 5.21265e+06 -8.49931e-14 -3.40811e+06 1.55676e-13 -382197)
(204.134 -796.548 0 753.175 0 237.528)
(-7.57942e+07 -33427.9 7.47323e-12 -69795.3 -1.12165e-13 -1.88234e+07)
(8.13085e+07 -4.3358e+06 7.98004e-13 1.96096e+06 -1.45646e-12 2.06608e+07)
(823527 -2.79559e+06 5.15561e-12 -271693 -1.09846e-11 136921)
(-2.97079e+07 -789384 -2.97248e-11 101832 -2.44538e-11 -7.34587e+06)
(2.96687e+07 -810809 -7.4311e-12 -110125 2.6151e-11 7.33409e+06)
(3.15902e+07 -1.72573e+06 -1.18833e-13 143336 5.96289e-13 7.87373e+06)
(4.47023e+07 -5.14428e+06 -4.2445e-12 8.88115e+06 2.32752e-12 1.32951e+07)
(1.81375e+07 -4.99241e+06 -1.52631e-13 -672880 9.24855e-14 4.33333e+06)
(-2.91522e+07 -1.01611e+06 -6.70145e-12 1.27626e+06 -2.07939e-12 -6.91658e+06)
(3176.13 -25318.1 -2.0144e-14 1.44414e+06 3.99925e-14 359108)
(6.76469e+06 -2.01332e+06 -3.16241e-12 86964.1 -2.54765e-12 1.70004e+06)
(-2.0716e+07 -1.95593e+06 2.78319e-12 342842 -5.77295e-12 -5.05499e+06)
(4.68469e+07 -1.26285e+06 -3.3528e-12 -24433.2 -4.9363e-12 1.16176e+07)
(-4.66274e+07 -1.27734e+06 5.90337e-12 130801 -8.94027e-12 -1.15367e+07)
(4.46251e+07 -1.78446e+06 5.42326e-12 -79471.8 -1.10027e-11 1.10527e+07)
(-4.41858e+07 -1.80817e+06 6.67832e-12 -13214.3 -4.55232e-12 -1.09667e+07)
(-6.75127e+07 127648 -1.08944e-12 45575.7 2.31119e-11 -1.674e+07)
(6.35516e+07 -1.66385e+06 -9.04603e-12 -79738 6.63991e-12 1.57486e+07)
(8.19129e+07 -535915 7.35799e-12 -92397.5 -6.37898e-13 2.03013e+07)
(110673 -280038 -6.87063e-16 150623 8.43213e-15 64832.7)
(-3.20882e+07 1.06527e+06 4.70738e-12 2.16152e+06 -9.23447e-13 -7.42542e+06)
(9.55524e+06 1.44478e+06 -1.78269e-13 -3.41146e+06 1.35317e-13 1.5244e+06)
(1.0034e+07 1.542e+06 3.16732e-13 -3.966e+06 -2.02039e-13 1.50559e+06)
(1.65509e+07 -449427 -1.49219e-12 7.66515e+06 1.56333e-12 6.00849e+06)
(4.51489e+07 -4.05055e+06 4.80229e-13 8.48503e+06 -2.62159e-12 1.33077e+07)
(7.17731e+06 -1.32912e+07 0 2.49781e+07 0 7.97842e+06)
(5.91744e+07 -9.85269e+06 -3.68418e-13 1.04259e+07 2.23495e-12 1.72692e+07)
(-2.09908e+07 9.6956e+06 -5.34021e-13 -339658 5.18211e-13 -5.29251e+06)
(-2657.45 -12592.9 -1.13397e-15 291050 1.11746e-15 71556.1)
(4.16161e+07 -2.30907e+06 -1.13754e-12 -34047.9 -1.22222e-12 1.03174e+07)
(1.75909e+07 -2.41251e+06 -1.33488e-11 237766 -9.5696e-12 4.42365e+06)
(3.79153e+07 -1.11126e+06 -1.90359e-11 -68923.4 -7.6153e-12 9.39044e+06)
(-2.40353e+07 -2.20804e+06 3.23211e-12 -11137.2 1.96986e-11 -5.9664e+06)
(-6.88409e+07 -295289 -4.69264e-12 156987 -1.72209e-12 -1.70419e+07)
(-152.504 -77286.7 -2.18507e-15 1.08578e+06 1.67038e-14 269366)
(-4.02801e+07 -1.90471e+06 2.53965e-12 30993.9 -1.81284e-11 -9.98662e+06)
(4.05155e+07 -1.84217e+06 -1.55924e-11 -79683 1.01341e-11 1.0033e+07)
(6.86776e+07 -229252 4.70283e-12 -144731 -1.72395e-12 1.70044e+07)
(-3.16262e+07 214545 -2.34117e-12 2.15656e+06 -2.13303e-12 -7.31202e+06)
(5.58606e+06 -1.13763e+07 2.01186e-13 2.35782e+07 -3.04295e-13 7.23626e+06)
(2.40431e+07 -1.16807e+06 7.3994e-12 -284327 6.68516e-12 5.89505e+06)
(-2.40867e+07 -1.17661e+06 0 289109 0 -5.90465e+06)
(-2.23198e+06 -2.54815e+06 -1.46903e-11 -86157.2 -7.74223e-13 -575177)
(-1.47008e+07 3.96039e+06 -2.96286e-12 4.01048e+06 -4.87416e-13 -2.65248e+06)
(6.48527e+07 -827738 -7.54637e-12 -23611.9 6.72645e-12 1.60854e+07)
(3.71003e+07 -2.01775e+06 5.43824e-12 48370.5 -1.89575e-11 9.21734e+06)
(-6.1663e+07 3.24771e+06 -3.7449e-12 95117.9 -1.60752e-12 -1.52762e+07)
(1.14559e+07 -2.70173e+06 -1.03949e-12 65452.8 6.44352e-12 2.85869e+06)
(146212 -630513 0 1.48917e+06 0 405772)
(-4.11106e+06 -2.6943e+06 -4.28782e-12 -6500.31 3.31805e-12 -1.02165e+06)
(120145 -504075 -1.88093e-15 3.03796e+06 -5.70989e-14 783590)
(5.59268e+07 -1.25005e+06 -3.10062e-12 -258537 6.33046e-12 1.38124e+07)
(265.729 -885.672 0 807.397 0 266.264)
(5.9295e+06 -2.17631e+06 2.55099e-12 165923 -8.42499e-12 1.5124e+06)
(621057 -1.96013e+06 6.35181e-14 6.48799e+06 -2.14034e-13 1.7639e+06)
(7.20721e+07 -355440 2.85969e-12 -66509.7 2.51165e-12 1.7866e+07)
(4.63827e+06 -161053 -1.72448e-11 93111 2.66524e-14 1.17395e+06)
(-4.68014e+06 -163513 1.73943e-11 -88159.6 -4.37047e-14 -1.18311e+06)
(5.61804e+06 -2.28658e+06 1.37415e-11 137468 2.31375e-12 1.42806e+06)
(-7.93931e+07 18815.1 1.02032e-11 -254748 2.42563e-12 -1.97623e+07)
(-8.36508e+07 -11247.2 -1.53754e-13 -516059 -4.72674e-13 -2.08835e+07)
(3.61831e+07 -3.59339e+06 1.84361e-12 4.29143e+06 1.73292e-12 1.00425e+07)
(-6.87132e+07 -474765 -3.60839e-12 245608 2.84989e-13 -1.69882e+07)
(9872.36 -21247 -8.00152e-17 9106.44 6.32025e-16 4709.03)
(2114.07 -9306.4 -3.54583e-17 15647.7 -4.4477e-16 4407.05)
(4.35519e+07 -1.20846e+06 -8.55937e-12 224409 1.57733e-11 1.08618e+07)
(9283.73 -20519.3 -5.28999e-17 12924.4 7.44096e-16 5510.28)
(-9.89894e+06 -1.92477e+06 2.90631e-11 -106146 7.33533e-12 -2.48246e+06)
(1444.91 -7912.66 -1.25713e-17 15582.9 -3.9545e-16 4224.94)
(4.04481e+07 -1.27066e+06 9.4888e-12 -29732 -8.48413e-12 1.00286e+07)
(4275.17 -16597.2 5.73496e-17 30149 2.36243e-16 8541.33)
(125151 -349286 1.00388e-15 155369 -1.18095e-14 69602.6)
(-9.26253e+06 -1.86319e+06 -3.94485e-12 2.37018e+06 8.21598e-13 -1.71013e+06)
(-1.72121e+07 -1.64609e+06 1.48884e-11 -189935 -8.86907e-12 -4.31781e+06)
(2.79172e+07 -5.48688e+06 3.61517e-13 4.3564e+06 1.2484e-13 8.00773e+06)
(-1.96281e+07 8.53307e+06 -1.55064e-12 -834374 -4.40269e-13 -5.07716e+06)
(2.7307e+07 -2.88143e+06 -8.02185e-12 265636 -6.62633e-12 6.84132e+06)
(6.53313e+07 -1.33257e+06 -5.86942e-12 133380 1.71858e-11 1.62431e+07)
(-6.48874e+07 -1.47279e+06 9.02472e-12 69387.2 -1.83787e-11 -1.60827e+07)
(9.2956e+06 -8.55903e+06 3.13622e-13 8.39832e+06 5.66408e-14 4.39022e+06)
(2.79884e+07 -2.56967e+06 1.55347e-11 -42320.2 1.44999e-11 6.93399e+06)
(2.83637e+07 -1.24856e+06 1.83209e-11 407472 -2.83686e-11 7.13872e+06)
(-5.31727e+07 685651 9.64807e-13 -165332 1.53403e-11 -1.32343e+07)
(5.28751e+07 644723 2.5116e-12 25272 -1.42768e-11 1.31257e+07)
(3.64769e+07 -2.00087e+06 0 64797.4 0 9.06674e+06)
(-7.24453e+07 -1.43721e+06 2.51619e-12 431572 3.35088e-12 -1.78681e+07)
(7.22165e+07 -1.3512e+06 -5.72501e-12 -412024 9.0398e-13 1.78161e+07)
(4.46568e+07 -6.14151e+06 7.81169e-13 1.06627e+07 5.18414e-13 1.37259e+07)
(2.9219e+07 -420633 -1.572e-11 -55119 -2.91007e-12 7.23615e+06)
(-1.01566e+07 -2.29211e+06 2.00343e-11 -15824.9 4.28571e-11 -2.52397e+06)
(-1.34409e+06 5.44544e+06 7.24116e-13 -3.46915e+06 -9.54559e-14 -1.19426e+06)
(-7.02042e+07 -602659 1.37154e-12 283053 2.92886e-12 -1.73489e+07)
(-5.22909e+07 -189467 0 -212289 0 -1.30271e+07)
(5.24552e+07 -175094 -2.31946e-12 240452 -1.93767e-12 1.30749e+07)
(-2447.53 -75128.1 1.22255e-15 586784 1.49364e-14 144986)
(6053.94 -67456.8 1.74444e-15 197343 2.70062e-15 50467)
(-42495 -256792 -5.45015e-14 2.89738e+06 -8.55707e-14 708354)
(-8.45864e+06 -1.73433e+06 -1.27874e-11 -72543.2 3.31591e-12 -2.11676e+06)
(-1.92262e+07 5.73584e+06 -6.28512e-12 3.86162e+06 -2.35244e-12 -3.81227e+06)
(-8.6154e+07 20671 3.36335e-12 -582527 3.17052e-13 -2.15211e+07)
(-4.77276e+07 -897407 0 -97484.8 0 -1.18664e+07)
(-8.24255 -4.71603 1.05665e-18 150.729 4.7653e-18 35.3539)
(4.22137e+07 -3.28727e+06 8.58752e-14 1.39288e+06 4.97884e-12 1.08197e+07)
(-1.93636e+06 7.81451e+06 2.18196e-12 3.3797e+06 -5.25156e-13 358121)
(6.5839e+07 -1.32486e+06 5.02962e-12 -36383.5 7.294e-12 1.6327e+07)
(-6.385e+06 -2.54012e+06 1.5921e-11 62498.6 1.84425e-11 -1.56874e+06)
(3.77732e+07 -2.2403e+06 7.12433e-12 -229796 -8.24017e-12 9.31527e+06)
(223.903 -468.648 2.34228e-18 9577.12 1.56414e-16 2431.83)
(2.27756e+07 -1.57159e+06 -2.52614e-11 -499837 -8.96253e-12 5.52708e+06)
(-2.31172e+07 -1.5543e+06 4.57784e-12 451599 4.36383e-11 -5.62379e+06)
(-6.79282e+07 581440 1.52623e-12 222932 5.30979e-12 -1.6799e+07)
(-5.92146e+06 -2.31953e+06 -3.72655e-12 75843.9 5.9255e-12 -1.45042e+06)
(3.75827e+06 -4.89072e+06 1.40331e-13 6.87679e+06 -6.26938e-14 2.63877e+06)
(3.35878e+07 -2.60372e+06 7.51989e-12 -206958 -1.86267e-11 8.28246e+06)
(4.14758e+07 -1.9308e+06 7.40673e-12 -216255 2.32931e-11 1.02373e+07)
(3524.68 -61232.3 -2.38486e-14 1.47105e+06 5.39676e-14 365872)
(5.74935e+07 -1.09257e+06 -8.96411e-12 137156 1.03794e-11 1.42993e+07)
(-7.43935e+07 -61345.4 0 -598143 0 -1.8607e+07)
(985.754 -6799.51 0 58276.4 0 14704.1)
(-66425.8 -2.09226e+06 -2.21816e-11 258948 4.0389e-11 47768.8)
(397361 -1.65119e+06 -1.21234e-11 -15895.3 8.81789e-12 94649.3)
(89095.7 -715449 1.92012e-13 4.75468e+06 -1.81273e-13 1.20184e+06)
(357286 -2.59167e+06 -5.06569e-12 2.1582e+06 2.38033e-12 624142)
(2.88495e+07 -5.49218e+06 1.01702e-13 4.26213e+06 4.03446e-13 8.21567e+06)
(116942 -306130 -3.80282e-16 294322 1.51539e-14 102043)
(-5.25661e+07 -812114 3.30931e-12 60637.7 -1.72589e-12 -1.30277e+07)
(8.65718e+07 -2.35858e+07 5.70983e-13 9.35588e+06 -4.64584e-13 2.38016e+07)
(-3.22213e+07 1.31859e+06 0 2.35187e+06 0 -7.41121e+06)
(9.09991e+06 -1.83965e+06 4.15979e-12 254649 2.15829e-11 2.32106e+06)
(-6.42685e+07 1.20565e+06 -6.75426e-12 474267 -5.0188e-12 -1.58287e+07)
(-2.20246e+07 -2.02962e+06 2.9039e-12 163676 -6.07239e-12 -5.42413e+06)
(-1.57681e+07 2.5327e+06 2.60922e-12 4.04793e+06 4.23872e-12 -2.90802e+06)
(-2.80587e+07 -136485 -1.80399e-11 -839369 -5.50439e-13 -7.17019e+06)
(2.80062e+07 -137204 -7.96872e-12 842999 -3.672e-12 7.15807e+06)
(4.45234e+07 -1.83784e+06 4.19185e-12 -88362.9 -7.14546e-12 1.10252e+07)
(596.425 -3174.18 5.38448e-17 14703.6 4.20526e-18 3796.25)
(18294.8 -50399.2 2.06343e-17 64097.3 2.19917e-15 20443.1)
(-2.87445e+07 -2.58193e+06 8.11471e-12 -80477.1 -4.06404e-12 -7.15207e+06)
(3.4814e+07 -2.00242e+06 7.12465e-12 113753 1.09218e-12 8.66628e+06)
(-3.51151e+07 -2.42565e+06 -2.6606e-12 -80728.5 -1.91736e-11 -8.73279e+06)
(2.77576e+07 -1.33956e+06 -7.04951e-12 239055 -3.36528e-11 6.94653e+06)
(-2.77534e+07 -1.24761e+06 1.86652e-11 -171406 1.92965e-11 -6.92871e+06)
(2.65804e+07 -5.66927e+06 -8.50155e-13 4.2381e+06 3.26745e-13 7.64669e+06)
(217.512 -1011.17 -6.64266e-19 2095.8 -4.65887e-17 573.98)
(5.31661e+06 -2.19674e+06 -1.41016e-11 -115746 3.16691e-11 1.29044e+06)
(4.51663e+07 -1.76798e+06 -2.73225e-12 46681.1 1.92238e-11 1.12183e+07)
(1.95678e+07 -2.19734e+06 1.20867e-11 3.6473e+06 -4.46601e-12 5.76015e+06)
(9.33159e+06 -1.75382e+06 2.43811e-11 108507 -2.00674e-12 2.34228e+06)
(1.77519e+07 -1.80941e+06 5.01873e-12 -222943 1.77464e-11 4.3493e+06)
(-1.10592e+06 -1.70803e+06 2.27514e-11 65284.6 -1.67975e-12 -258204)
(-18.5088 -282.599 9.63823e-18 1432.15 1.04181e-17 350.754)
(4.41754e+07 -1.97897e+06 -1.93188e-11 -30060 -5.98866e-13 1.09534e+07)
(3.16123e+07 -1.97638e+06 -9.28183e-12 36852.2 -5.55751e-12 7.85281e+06)
(-8.22549e+07 -853580 3.2387e-12 -138804 1.71411e-12 -2.04436e+07)
(-2.80952e+07 -2.5562e+06 -4.89965e-12 53292.4 -5.26849e-13 -6.95778e+06)
(155407 -279345 2.82413e-15 104434 -1.71636e-14 64471.8)
(6.2984e+07 -2.80703e+07 1.50219e-12 1.62203e+07 -2.3099e-12 1.96522e+07)
(6.78081e+06 -2.75655e+06 5.94107e-12 -1548.74 5.88834e-12 1.68207e+06)
(-3.45931e+07 -1.99448e+06 6.80075e-12 -111146 -4.32109e-12 -8.61082e+06)
(6.83751e+07 -301362 -3.36531e-12 -85624.9 -1.22792e-12 1.6944e+07)
(3.99316e+07 -1.23364e+06 -7.65916e-12 16261.8 -4.30786e-12 9.91188e+06)
(96203.1 -329967 -2.55722e-16 424669 -2.49863e-14 129239)
(-4736.71 -100151 3.16813e-15 1.13086e+06 5.58971e-15 279413)
(-4.34615e+07 -2.44617e+06 3.35349e-12 70682.1 7.65411e-12 -1.07662e+07)
(-3.80499e+07 -204089 -3.35741e-11 -807293 -4.97937e-12 -9.64126e+06)
(3.80463e+07 -201787 -1.85025e-11 798530 1.33274e-11 9.6382e+06)
(-6.04368e+07 4.56251e+06 -8.88244e-14 289003 -1.17823e-13 -1.49239e+07)
(1.81528e+07 742943 2.30759e-12 7.98863e+06 -3.91666e-12 6.48621e+06)
(2.03118e+07 -3.25568e+06 -4.14566e-12 2.05522e+06 -2.43544e-12 5.54972e+06)
(-4.42181e+07 -547068 -1.09228e-11 -36945 5.73121e-12 -1.09806e+07)
(4.4284e+07 -585479 0 16408.5 0 1.09918e+07)
(-4.31501e+06 -3.0947e+06 -1.86208e-11 188239 1.063e-11 -1.02394e+06)
(-3.01912e+07 -2.6727e+06 -5.67764e-12 267041 -6.4084e-12 -7.4248e+06)
(-5.81208e+07 -1.2273e+06 -3.11772e-12 44486 -5.22966e-12 -1.44099e+07)
(4.34915e+07 -4.54877e+06 7.24578e-13 9.4742e+06 1.57416e-12 1.31419e+07)
(-2684.78 -65319.2 -1.17052e-14 1.1652e+06 -2.35617e-14 288445)
(5.97909e+07 -1.61106e+06 6.29822e-12 140492 -8.38553e-12 1.48702e+07)
(-2.02904e+07 8.82339e+06 -1.30001e-12 98890.6 -2.26371e-13 -5.00992e+06)
(8.7332e+07 -938797 1.63081e-12 357033 2.07097e-13 2.17574e+07)
(3.48005e+06 -1.87201e+06 1.10003e-11 -110591 7.59909e-12 836030)
(-215.152 -59233.4 -3.40732e-15 545753 -3.44807e-15 135359)
(2.76472e+07 -1.67233e+06 2.61927e-11 48514.3 -5.407e-12 6.87187e+06)
(-707976 -3.11144e+06 -1.00833e-11 43952.6 -6.94248e-12 -164758)
(1.96756e+07 -2.15706e+07 -2.13274e-12 2.54976e+07 2.0195e-12 1.12084e+07)
(2.47854e+06 -2.88066e+06 -4.28404e-14 3.71674e+06 5.75978e-14 1.53717e+06)
(1.49916e+07 -1.15454e+06 2.76216e-13 6.54188e+06 2.87726e-12 5.34289e+06)
(-7.42539e+06 -1.41747e+06 -1.67159e-11 275721 1.32918e-12 -1.77398e+06)
(-5.62979e+07 -1.17957e+06 -2.73633e-12 73541.5 7.23075e-12 -1.39504e+07)
(4.04133e+07 -4.12365e+06 7.42455e-13 8.51248e+06 1.51104e-12 1.21395e+07)
(4.22645e+06 3.42271e+06 3.18807e-13 6.74617e+06 -5.06961e-13 2.72253e+06)
(4.35296e+07 -1.39175e+06 -1.42599e-11 -86878.6 9.43382e-12 1.0779e+07)
(-5.99607e+06 -2.68299e+06 2.22487e-12 57557 -5.72504e-12 -1.47346e+06)
(-7.09568e+07 846395 -4.4665e-12 342216 -2.06276e-12 -1.75209e+07)
(-2.55701e+07 -1.71286e+06 1.37121e-11 50451.8 -2.85057e-11 -6.33193e+06)
(-3.90846e+07 -1.26495e+06 -6.21358e-12 140212 -4.60641e-12 -9.6629e+06)
(-6.18437e+06 -2.58312e+06 3.15545e-12 527303 5.47619e-12 -1.40363e+06)
(1.94729e+07 -926992 -1.0713e-11 182069 -2.24344e-11 4.87679e+06)
(-2.52198e+06 8.90084e+06 -2.85483e-12 2.13171e+06 1.66843e-14 -96833.9)
(-1.84958e+06 -2.3041e+06 -1.22138e-11 -286616 1.27028e-11 -530033)
(-5.60258e+07 -1.40468e+06 -3.25683e-12 412175 -2.24168e-12 -1.37989e+07)
(-2.39658e+07 1.73126e+06 2.77544e-12 2.84516e+06 -1.2641e-12 -5.24045e+06)
(105024 -411784 1.82324e-15 680194 3.52187e-14 194828)
(8.32523e+07 -328703 0 81018.7 0 2.06767e+07)
(-2.40338e+07 911351 1.05583e-14 -3.6141e+06 -3.05427e-13 -6.86e+06)
(1.37882e+07 -3.19213e+06 -6.43896e-12 -182377 -2.55673e-12 3.37588e+06)
(-5.06297e+07 -1.31599e+06 -4.396e-12 -324250 1.25451e-11 -1.26427e+07)
(-4.44178e+07 151221 -2.87602e-14 1.59856e+06 1.05237e-12 -1.06243e+07)
(-5.05308e+06 -2.19563e+06 1.00647e-11 -25192.2 1.10124e-11 -1.26002e+06)
(-7.42931e+07 -104463 -5.20643e-12 236229 -4.84372e-13 -1.8375e+07)
(-1.15505e+07 8.13309e+06 2.50576e-12 2.74745e+06 1.18776e-12 -2.18421e+06)
(-7.05685e+07 -1.20843e+06 -5.04761e-12 189082 -6.57369e-12 -1.74626e+07)
(759229 -1.38364e+06 7.38625e-14 2.72339e+06 -8.13023e-14 864108)
(-6.93516e+07 -1.55847e+06 4.91921e-12 116309 3.94962e-12 -1.71787e+07)
(6.91832e+07 -1.46897e+06 -4.48118e-12 -93786.3 -3.96176e-12 1.71425e+07)
(4664.2 -28318.3 -1.98476e-16 65839.8 1.01827e-16 17493.5)
(3.41934e+07 -1.84435e+06 -2.17124e-11 150916 -1.80242e-11 8.52152e+06)
(-3.42754e+07 -1.90423e+06 -1.67769e-11 -224498 -2.51696e-11 -8.56014e+06)
(586663 -1.76346e+06 1.68447e-13 5.4376e+06 -1.2239e-13 1.49474e+06)
(2.35365e+07 -2.54145e+06 -9.75553e-14 2.16103e+06 -4.50177e-13 6.37608e+06)
(1.16366e+07 -2.85472e+06 -1.48446e-12 14431.3 -7.61838e-12 2.89086e+06)
(-2.92969e+07 8.6266e+06 2.77225e-13 428217 -5.20527e-13 -7.16292e+06)
(2.45875e+07 1.05957e+06 6.06775e-13 6.96825e+06 -1.91443e-12 7.82963e+06)
(4.16756e+07 -2.15126e+06 -9.09755e-13 267091 -1.50556e-11 1.04068e+07)
(4277.65 -58404.1 -2.27755e-15 430330 -4.73014e-15 107835)
(3.07671e+07 -1.49752e+06 -2.2026e-12 212122 1.20057e-11 7.68658e+06)
(10491.6 -30637 -1.77136e-15 1.38908e+06 1.32372e-15 347263)
(325.01 -2186.64 6.30856e-17 10330.4 2.16796e-16 2643.82)
(-5.9037e+07 1.55336e+06 5.76774e-12 1.14827e+06 2.71005e-12 -1.43634e+07)
(7.31549e+06 4.03723e+06 2.94879e-12 6.6293e+06 -1.04515e-12 3.45999e+06)
(2.53849e+07 -104255 2.17871e-11 219004 -2.05122e-12 6.35285e+06)
(-2.54358e+07 -103983 -4.18304e-12 -221125 -2.39951e-12 -6.36601e+06)
(-9.0635e+06 -2.67974e+06 -1.70855e-11 120384 3.59909e-12 -2.21897e+06)
(3.88103e+07 -524440 -1.09192e-11 -66229.7 -7.03704e-12 9.6132e+06)
(6.86938e+07 -544820 1.0512e-11 -15503.8 -3.09829e-12 1.70405e+07)
(-6.88541e+07 -611594 -6.35524e-12 43793.7 3.95383e-12 -1.70732e+07)
(7.02541e+07 -7.87319e+06 -1.81834e-12 7.81055e+06 5.38014e-12 1.93694e+07)
(3.51487e+07 -2.07439e+06 -5.6122e-12 -84633.1 5.09184e-12 8.7001e+06)
(-1.96492e+07 3.00753e+06 -3.94476e-12 4.44081e+06 3.17099e-12 -3.77351e+06)
(5.19866e+07 -1.58123e+06 5.52217e-12 -36265.6 -4.29112e-13 1.28899e+07)
(-3.05295e+07 -2.67647e+06 -8.39441e-12 252940 -1.91179e-11 -7.51224e+06)
(342.351 -2895.98 4.13731e-17 7683.13 8.30966e-17 1991.28)
(3.05918e+07 -1.20401e+06 2.51907e-12 8.88029e+06 9.04942e-13 9.79383e+06)
(-7.28898e+07 -415330 1.30454e-12 9488.57 -3.26915e-12 -1.80831e+07)
(2.50059e+07 -1.44232e+06 7.02687e-12 -74141.7 3.92452e-11 6.18606e+06)
(-2.52342e+07 -1.38323e+06 -2.05773e-12 -133981 2.96791e-11 -6.29436e+06)
(-2.15124e+07 -2.34853e+06 -2.39156e-11 -235492 7.52279e-12 -5.39609e+06)
(-6.09642e+06 -1.99379e+06 3.35449e-12 -26070 1.17177e-13 -1.51911e+06)
(7.22105e+06 -2.11723e+06 -8.76998e-12 -280552 -1.5504e-11 1.72208e+06)
(7.87005e+07 -36949.4 -2.307e-11 654844 -1.15889e-12 1.96897e+07)
(-6.00941e+07 -138322 -9.56711e-12 106202 2.93997e-12 -1.48842e+07)
(309.385 -2571.01 4.42263e-17 9668.3 4.50192e-16 2475.67)
(3.17208e+06 -3.17791e+06 0 183293 0 832537)
(-8.23603e+06 -2.34584e+06 -2.04661e-11 -16447.5 -2.02723e-11 -2.04761e+06)
(-2.19056e+07 8.96798e+06 8.66315e-13 -613054 8.20961e-13 -5.58733e+06)
(-2.02274e+07 -1.38662e+06 3.15388e-11 -280745 -2.48934e-11 -5.08848e+06)
(51.7747 -364.181 -1.10974e-17 2507.39 4.45385e-17 634.98)
(8.96278e+07 -2.22603e+07 -1.38409e-12 9.5008e+06 1.81121e-12 2.45958e+07)
(2.9699e+07 -2.04553e+06 -4.87096e-13 100948 2.56716e-11 7.39398e+06)
(-2.9647e+07 -1.86077e+06 2.34353e-12 148614 4.94197e-12 -7.31915e+06)
(4.33235e+07 -2.30645e+06 3.41376e-12 1.45718e+06 2.40796e-12 1.1111e+07)
(-3.96333e+07 5.77384e+06 -2.26331e-12 1.67719e+06 -4.51236e-13 -9.41767e+06)