/*--------------------------------*- C++ -*----------------------------------*\
| =========                 |                                                 |
| \\      /  F ield         | OpenFOAM: The Open Source CFD Toolbox           |
|  \\    /   O peration     | Version:  v3.0+                                 |
|   \\  /    A nd           | Web:      www.OpenFOAM.com                      |
|    \\/     M anipulation  |                                                 |
\*---------------------------------------------------------------------------*/
FoamFile
{
    version     2.0;
    format      ascii;
    class       volVectorField;
    location    "20000";
    object      D;
}
// * * * * * * * * * * * * * * * * * * * * * * * * * * * * * * * * * * * * * //

dimensions      [0 1 0 0 0 0 0];

internalField   nonuniform List<vector> 
27023
(
(7.34955e-07 2.11038e-07 0)
(-7.35312e-07 2.11033e-07 0)
(-5.89677e-07 1.56045e-07 0)
(5.89379e-07 1.56021e-07 0)
(7.24713e-07 2.03745e-07 0)
(-7.25069e-07 2.03745e-07 0)
(-2.64741e-06 1.99582e-06 0)
(2.64672e-06 1.99589e-06 0)
(-3.42269e-07 9.25175e-08 0)
(3.42043e-07 9.23808e-08 0)
(-1.89809e-06 1.13803e-06 0)
(1.89744e-06 1.13815e-06 0)
(-8.0025e-08 6.74884e-08 0)
(7.99594e-08 6.72605e-08 0)
(1.40335e-06 4.70597e-06 0)
(-5.93966e-08 5.21106e-07 0)
(-7.33407e-08 4.91728e-07 0)
(2.74504e-06 4.19477e-06 0)
(-2.74576e-06 4.19476e-06 0)
(-1.9367e-06 3.66602e-06 0)
(1.93598e-06 3.66604e-06 0)
(-2.67114e-06 2.02442e-06 0)
(2.67045e-06 2.02448e-06 0)
(-1.69409e-06 1.68757e-06 0)
(1.69338e-06 1.68763e-06 0)
(-3.69154e-07 3.19347e-06 0)
(1.15509e-06 1.14581e-06 0)
(-1.02946e-06 8.04992e-05 0)
(1.18128e-06 1.17283e-06 0)
(-3.93125e-06 2.1366e-05 0)
(-6.98272e-07 3.41452e-06 0)
(-1.97866e-06 3.70745e-06 0)
(1.97794e-06 3.70746e-06 0)
(2.68266e-06 6.93918e-06 0)
(1.42146e-06 4.78042e-06 0)
(-2.67125e-06 1.07762e-05 0)
(-1.6207e-06 2.82426e-06 0)
(1.61999e-06 2.82429e-06 0)
(-3.51954e-07 9.46494e-08 0)
(3.51758e-07 9.45411e-08 0)
(5.78316e-07 1.52585e-07 0)
(-5.78608e-07 1.52611e-07 0)
(2.43924e-06 2.1028e-05 0)
(7.39252e-07 2.10421e-07 0)
(-7.39612e-07 2.10419e-07 0)
(-2.78367e-06 4.24426e-06 0)
(2.78294e-06 4.24427e-06 0)
(-1.74986e-06 2.33556e-06 0)
(1.74916e-06 2.33559e-06 0)
(-2.53287e-06 1.08006e-05 0)
(-1.71256e-06 2.31537e-06 0)
(1.71185e-06 2.3154e-06 0)
(2.75265e-06 7.0303e-06 0)
(-6.92738e-08 3.26162e-08 0)
(6.91774e-08 3.2446e-08 0)
(-2.97074e-06 6.84917e-06 0)
(-3.08812e-06 2.80568e-05 0)
(-1.26909e-05 0.000112212 0)
(1.42961e-06 1.09607e-05 0)
(-5.8444e-07 1.5473e-07 0)
(5.84146e-07 1.54713e-07 0)
(-3.6262e-06 2.1255e-05 0)
(-1.96862e-07 4.3041e-06 0)
(-1.47e-06 7.67584e-05 0)
(2.67921e-06 2.12647e-05 0)
(-6.53481e-07 3.40583e-06 0)
(-1.85171e-06 4.21754e-06 0)
(-4.07385e-07 3.184e-06 0)
(1.13317e-06 7.21299e-07 0)
(1.5754e-06 1.09559e-05 0)
(-1.58625e-06 2.8306e-06 0)
(1.58554e-06 2.83063e-06 0)
(-2.28175e-06 2.19032e-06 0)
(2.28104e-06 2.19037e-06 0)
(-3.88277e-06 4.024e-06 0)
(3.88204e-06 4.02401e-06 0)
(-4.51742e-08 4.79968e-08 0)
(4.5136e-08 4.78012e-08 0)
(3.22363e-06 2.68503e-06 0)
(-3.22434e-06 2.68499e-06 0)
(1.01118e-06 2.09295e-06 0)
(-1.88366e-06 1.13013e-06 0)
(1.88302e-06 1.13025e-06 0)
(-2.26021e-06 2.19917e-06 0)
(2.25951e-06 2.19922e-06 0)
(4.24733e-06 4.28184e-06 0)
(-4.24806e-06 4.28183e-06 0)
(1.85281e-06 4.21163e-06 0)
(-1.37276e-07 8.15063e-05 0)
(1.74552e-05 0.000253733 0)
(-1.69319e-05 0.000253588 0)
(-8.07884e-07 2.29014e-07 0)
(8.07493e-07 2.29016e-07 0)
(-6.70118e-07 5.51118e-07 0)
(1.30569e-07 5.16564e-08 0)
(1.6351e-06 1.51857e-06 0)
(-1.63581e-06 1.51851e-06 0)
(1.03208e-06 2.07082e-06 0)
(1.85504e-06 1.63464e-05 0)
(-3.36712e-08 1.30978e-05 0)
(3.66845e-06 2.32472e-05 0)
(1.75444e-05 0.000257392 0)
(-1.66933e-05 0.00025749 0)
(-2.37286e-06 1.85358e-06 0)
(2.37216e-06 1.85365e-06 0)
(-2.0912e-07 1.30114e-05 0)
(-2.65439e-06 2.14326e-06 0)
(2.65369e-06 2.14332e-06 0)
(-2.98754e-06 6.77132e-06 0)
(-1.35756e-05 0.000113673 0)
(-2.74906e-06 2.83978e-05 0)
(-2.64575e-06 2.15459e-06 0)
(2.64505e-06 2.15465e-06 0)
(-1.65983e-06 1.65762e-06 0)
(1.65912e-06 1.65768e-06 0)
(-3.89975e-06 4.0778e-06 0)
(3.89903e-06 4.07781e-06 0)
(-6.28437e-07 2.51024e-08 0)
(1.05864e-06 3.47104e-07 0)
(1.16681e-06 3.17384e-06 0)
(-1.14008e-06 5.5683e-06 0)
(-1.44818e-07 4.29273e-06 0)
(1.82229e-06 1.02219e-06 0)
(-1.82288e-06 1.02209e-06 0)
(-2.85401e-06 2.18007e-06 0)
(2.8533e-06 2.18013e-06 0)
(-8.10714e-07 2.26277e-07 0)
(8.10319e-07 2.26277e-07 0)
(-2.34647e-06 1.82172e-06 0)
(2.34577e-06 1.8218e-06 0)
(1.62716e-06 1.61966e-05 0)
(1.22367e-08 2.48005e-08 0)
(-1.20748e-08 2.42154e-08 0)
(6.87385e-07 3.52313e-06 0)
(-1.07057e-06 5.58254e-06 0)
(4.27716e-06 4.3356e-06 0)
(-4.27789e-06 4.33559e-06 0)
(-3.52261e-07 1.79331e-06 0)
(-2.67548e-06 3.78666e-06 0)
(2.67475e-06 3.78668e-06 0)
(2.40661e-06 1.71116e-06 0)
(-2.4073e-06 1.71108e-06 0)
(2.39256e-07 1.97575e-06 0)
(-2.56366e-06 1.91455e-06 0)
(2.56297e-06 1.91462e-06 0)
(6.8984e-07 3.5751e-06 0)
(2.58538e-06 2.96918e-05 0)
(-1.37894e-06 9.27994e-07 0)
(-1.89853e-06 4.24966e-06 0)
(-1.13306e-06 4.25805e-07 0)
(1.13259e-06 4.25851e-07 0)
(-1.33168e-06 5.38359e-07 0)
(1.33115e-06 5.38416e-07 0)
(2.85687e-06 1.69348e-05 0)
(1.21179e-06 3.16629e-06 0)
(1.29638e-05 0.000151091 0)
(-1.28696e-05 0.000151034 0)
(-1.46767e-06 4.82321e-06 0)
(-2.67869e-06 3.74543e-06 0)
(2.67797e-06 3.74545e-06 0)
(5.06352e-06 1.38466e-05 0)
(3.06091e-06 2.97606e-05 0)
(9.64441e-06 4.79114e-05 0)
(-3.54112e-07 1.20029e-05 0)
(1.53216e-06 7.17526e-07 0)
(-1.53272e-06 7.17449e-07 0)
(2.23831e-06 1.53499e-06 0)
(-2.23899e-06 1.53489e-06 0)
(7.50447e-07 2.16467e-06 0)
(-7.6266e-08 2.11857e-06 0)
(-1.50558e-06 7.55727e-05 0)
(3.19619e-06 2.65106e-06 0)
(-3.19691e-06 2.65102e-06 0)
(1.06327e-05 0.000151545 0)
(-1.0553e-05 0.000151454 0)
(7.65943e-06 8.22161e-05 0)
(-2.31833e-07 1.19134e-05 0)
(2.48491e-07 1.94608e-06 0)
(6.43293e-06 8.23551e-05 0)
(-3.82583e-07 1.77205e-06 0)
(1.90113e-06 4.24366e-06 0)
(2.38208e-06 1.69654e-06 0)
(-2.38277e-06 1.69645e-06 0)
(3.5001e-06 2.35902e-05 0)
(3.22512e-06 6.29454e-06 0)
(3.31583e-06 6.30029e-06 0)
(1.6028e-06 1.51589e-06 0)
(-1.60351e-06 1.51583e-06 0)
(9.35813e-06 4.84933e-05 0)
(2.75827e-06 3.99902e-05 0)
(2.22057e-06 1.51102e-06 0)
(-2.22125e-06 1.51092e-06 0)
(9.25523e-07 1.72569e-06 0)
(-3.34788e-07 7.48625e-06 0)
(-2.85101e-06 2.19093e-06 0)
(2.85031e-06 2.19099e-06 0)
(7.60582e-06 2.3403e-05 0)
(2.10787e-06 1.36213e-06 0)
(-2.10853e-06 1.36202e-06 0)
(1.03484e-06 3.39421e-07 0)
(-1.52878e-06 4.85477e-06 0)
(1.11387e-06 7.37168e-07 0)
(-4.41162e-06 5.08891e-06 0)
(4.41089e-06 5.08891e-06 0)
(7.2425e-07 2.01455e-07 0)
(-7.24606e-07 2.01458e-07 0)
(9.76529e-07 3.01535e-06 0)
(5.49643e-06 1.33665e-05 0)
(-4.33928e-06 5.04061e-06 0)
(4.33855e-06 5.04062e-06 0)
(-4.47116e-10 1.04435e-08 0)
(4.44262e-10 1.03953e-08 0)
(-6.30146e-07 5.29406e-07 0)
(1.01915e-06 3.03415e-06 0)
(3.69143e-07 1.04056e-07 0)
(-3.6933e-07 1.04229e-07 0)
(1.06113e-06 1.67359e-06 0)
(-1.04718e-07 2.09721e-06 0)
(-9.86695e-07 4.89454e-05 0)
(3.48325e-06 3.2825e-06 0)
(-3.48397e-06 3.28248e-06 0)
(2.9708e-06 4.06735e-05 0)
(1.83973e-06 1.03896e-06 0)
(-1.84032e-06 1.03885e-06 0)
(2.82974e-06 1.71823e-05 0)
(-3.12347e-06 3.20231e-06 0)
(3.12276e-06 3.20233e-06 0)
(-2.22092e-06 1.98155e-06 0)
(2.22022e-06 1.98161e-06 0)
(-1.96735e-07 7.01461e-08 0)
(1.96606e-07 6.99759e-08 0)
(-2.85199e-06 0.000115147 0)
(-3.23142e-06 3.26636e-06 0)
(3.2307e-06 3.26638e-06 0)
(4.89825e-06 1.36482e-05 0)
(-3.53974e-06 3.91674e-06 0)
(3.53902e-06 3.91675e-06 0)
(-6.07036e-06 8.52322e-06 0)
(-2.01917e-06 6.16882e-06 0)
(2.71028e-06 2.01916e-06 0)
(-2.71098e-06 2.01909e-06 0)
(-1.16682e-06 8.8042e-07 0)
(-8.68728e-06 3.36794e-05 0)
(-4.31573e-06 9.75355e-06 0)
(2.37582e-06 5.25234e-06 0)
(-6.62885e-07 3.33691e-07 0)
(8.83658e-08 2.81665e-05 0)
(1.05941e-06 1.02207e-06 0)
(-5.38859e-06 2.007e-05 0)
(2.41583e-06 5.32822e-06 0)
(2.97599e-06 2.49447e-06 0)
(-2.9767e-06 2.49442e-06 0)
(2.15564e-06 1.54956e-05 0)
(5.62119e-07 8.94993e-07 0)
(7.65625e-06 2.43738e-05 0)
(5.48405e-06 1.35514e-05 0)
(-5.11253e-06 8.6482e-06 0)
(5.68285e-06 1.65054e-05 0)
(-2.20739e-06 3.82833e-06 0)
(2.20667e-06 3.82835e-06 0)
(-5.57064e-07 -9.08166e-09 0)
(-1.40828e-07 1.48589e-06 0)
(-1.20951e-05 6.27959e-05 0)
(-3.58477e-06 3.90574e-06 0)
(3.58404e-06 3.90575e-06 0)
(-2.58805e-06 1.94012e-06 0)
(2.58735e-06 1.94019e-06 0)
(-3.97624e-07 4.97411e-06 0)
(4.4488e-07 8.87543e-07 0)
(-1.80331e-06 9.94277e-07 0)
(1.80271e-06 9.94382e-07 0)
(-6.43271e-06 4.45358e-05 0)
(1.03578e-06 4.08947e-06 0)
(2.96952e-06 9.64218e-06 0)
(-1.04667e-06 1.89375e-05 0)
(-2.87317e-07 7.5866e-06 0)
(1.54857e-06 7.32985e-07 0)
(-1.54913e-06 7.32906e-07 0)
(2.30132e-06 4.18938e-06 0)
(-2.30205e-06 4.18936e-06 0)
(-6.91463e-06 3.43018e-05 0)
(3.76894e-06 9.93476e-06 0)
(-1.30181e-05 0.000274148 0)
(1.29018e-05 0.000273866 0)
(5.19603e-09 4.23844e-08 0)
(-5.17151e-09 4.25826e-08 0)
(1.37501e-06 8.52793e-06 0)
(2.24169e-06 1.13366e-05 0)
(-3.67875e-07 3.06058e-07 0)
(-1.22109e-06 4.54061e-07 0)
(-3.63493e-06 0.000226863 0)
(1.4952e-06 8.66662e-06 0)
(2.93365e-06 2.92393e-06 0)
(-2.93436e-06 2.9239e-06 0)
(3.94805e-06 3.89772e-06 0)
(-3.94878e-06 3.8977e-06 0)
(4.84495e-06 1.97485e-05 0)
(-4.29243e-06 8.90573e-06 0)
(4.22301e-06 4.71717e-06 0)
(-4.22374e-06 4.71716e-06 0)
(-7.21867e-08 7.60409e-08 0)
(-2.42346e-07 5.72148e-07 0)
(2.30855e-06 1.67132e-06 0)
(-2.30923e-06 1.67123e-06 0)
(3.03237e-07 -1.01579e-08 0)
(-5.27347e-07 1.21409e-07 0)
(5.27071e-07 1.21341e-07 0)
(-1.08379e-06 1.66603e-06 0)
(-1.58186e-06 5.28597e-06 0)
(6.57032e-07 2.71399e-05 0)
(-7.67529e-07 6.87998e-05 0)
(-9.75183e-09 3.93395e-08 0)
(9.78221e-09 3.91458e-08 0)
(-2.41973e-07 5.47577e-08 0)
(2.41827e-07 5.46323e-08 0)
(-4.12176e-06 1.78703e-05 0)
(1.8985e-06 3.02292e-06 0)
(-1.89921e-06 3.0229e-06 0)
(-6.50446e-08 3.16338e-06 0)
(-1.76934e-06 6.55475e-06 0)
(-1.18059e-07 8.23642e-08 0)
(1.17948e-07 8.20783e-08 0)
(1.27408e-06 1.24312e-06 0)
(7.88768e-07 1.82254e-07 0)
(6.23246e-07 2.75967e-08 0)
(-2.1092e-06 8.57404e-06 0)
(7.0164e-06 1.56544e-05 0)
(-4.71292e-07 4.99446e-06 0)
(-1.34106e-06 9.06384e-07 0)
(1.51048e-06 8.59736e-07 0)
(6.15725e-07 1.34949e-06 0)
(-1.51097e-06 8.60142e-07 0)
(8.10763e-06 1.68876e-05 0)
(-1.26152e-07 5.20649e-08 0)
(-3.79946e-06 1.78195e-05 0)
(9.83089e-07 3.4099e-07 0)
(-9.83518e-07 3.40958e-07 0)
(6.99735e-07 3.25172e-06 0)
(-3.2858e-07 6.02648e-07 0)
(-2.43733e-06 2.05826e-06 0)
(2.43663e-06 2.05833e-06 0)
(1.11759e-05 4.24754e-05 0)
(-1.12223e-05 4.24851e-05 0)
(-7.41176e-10 1.021e-08 0)
(7.37006e-10 1.01626e-08 0)
(1.06821e-06 7.18066e-07 0)
(-7.66466e-07 2.33475e-07 0)
(7.66103e-07 2.33492e-07 0)
(4.01994e-06 3.92248e-05 0)
(-5.86966e-07 4.54366e-06 0)
(7.89905e-06 3.76475e-05 0)
(-7.89979e-06 3.76475e-05 0)
(-3.28488e-06 3.28779e-06 0)
(3.28416e-06 3.28781e-06 0)
(-5.18966e-08 2.93782e-08 0)
(5.18359e-08 2.922e-08 0)
(-1.94912e-07 1.0539e-07 0)
(3.13938e-06 2.66443e-06 0)
(-3.14009e-06 2.66439e-06 0)
(3.93795e-07 1.00563e-05 0)
(1.19128e-06 4.99948e-07 0)
(4.09699e-06 4.76325e-06 0)
(-4.09772e-06 4.76324e-06 0)
(2.27769e-06 1.51476e-06 0)
(-2.27835e-06 1.51466e-06 0)
(-5.00572e-06 0.000111481 0)
(3.71757e-06 1.74722e-05 0)
(2.03015e-07 6.81031e-07 0)
(9.13299e-07 2.85533e-07 0)
(-9.13717e-07 2.85516e-07 0)
(3.23833e-06 2.77847e-06 0)
(-3.23905e-06 2.77843e-06 0)
(5.54908e-07 3.06736e-07 0)
(3.14025e-06 5.76066e-06 0)
(6.08913e-07 1.67029e-08 0)
(4.06522e-06 8.69667e-06 0)
(3.13803e-06 5.83809e-06 0)
(1.29224e-06 1.85609e-06 0)
(9.36628e-06 6.54133e-05 0)
(-1.48049e-06 2.51635e-06 0)
(-1.6906e-06 6.49979e-06 0)
(1.47978e-06 2.51635e-06 0)
(-2.71766e-06 2.08227e-06 0)
(2.71696e-06 2.08233e-06 0)
(1.05692e-06 1.08447e-06 0)
(-4.79695e-07 2.07153e-06 0)
(-3.18789e-06 3.91569e-05 0)
(5.96356e-06 1.67104e-05 0)
(1.43614e-06 9.40293e-07 0)
(7.83605e-08 -1.25395e-07 0)
(9.81121e-07 8.20892e-07 0)
(-6.97595e-06 0.000227137 0)
(-1.19225e-06 5.00059e-07 0)
(-5.61823e-06 0.000252147 0)
(-3.47487e-08 4.61797e-07 0)
(6.52212e-07 1.0909e-05 0)
(-2.04285e-06 5.91801e-06 0)
(-2.71597e-06 2.55213e-05 0)
(6.82112e-06 1.14805e-05 0)
(2.22852e-06 5.93042e-06 0)
(-2.20293e-06 1.99204e-06 0)
(2.20223e-06 1.9921e-06 0)
(-7.70902e-07 4.01414e-07 0)
(9.37769e-07 1.6958e-06 0)
(-2.25362e-06 6.87339e-05 0)
(9.45274e-07 2.95941e-07 0)
(-9.45704e-07 2.95924e-07 0)
(-2.04102e-08 2.55957e-06 0)
(-9.95404e-07 4.7072e-06 0)
(1.47592e-06 1.30631e-06 0)
(-1.00519e-07 3.17363e-06 0)
(-1.47443e-06 1.3061e-06 0)
(-1.77441e-09 3.08413e-08 0)
(1.77673e-09 3.07057e-08 0)
(4.21426e-06 6.04222e-05 0)
(-3.10409e-06 7.71731e-06 0)
(-1.06974e-06 3.0317e-07 0)
(-3.21538e-06 5.50844e-06 0)
(-2.23492e-06 8.49252e-06 0)
(2.47254e-06 6.40035e-06 0)
(-6.86614e-07 1.79095e-06 0)
(3.656e-06 8.56308e-06 0)
(-4.79441e-07 -4.27404e-08 0)
(-2.41148e-07 1.94212e-06 0)
(-1.11016e-06 4.96891e-05 0)
(5.87374e-06 9.99178e-06 0)
(4.04851e-06 4.68699e-06 0)
(-4.04923e-06 4.68698e-06 0)
(7.73432e-06 1.8154e-05 0)
(-7.98004e-07 1.91133e-05 0)
(-1.3137e-05 6.3217e-05 0)
(1.07508e-06 1.64461e-06 0)
(-3.72117e-06 4.24291e-06 0)
(3.72044e-06 4.24292e-06 0)
(2.12942e-06 2.3063e-06 0)
(-2.13013e-06 2.30626e-06 0)
(-3.75799e-06 7.63677e-06 0)
(-1.31188e-07 -1.17293e-07 0)
(-4.1966e-07 1.01451e-07 0)
(4.19442e-07 1.01396e-07 0)
(1.21339e-05 3.81574e-05 0)
(-1.21351e-05 3.81575e-05 0)
(-2.24592e-06 3.33327e-06 0)
(2.2452e-06 3.33329e-06 0)
(-6.92526e-10 1.7482e-08 0)
(6.95314e-10 1.75614e-08 0)
(6.78718e-07 1.73101e-06 0)
(1.00272e-06 9.19824e-06 0)
(2.699e-06 5.9526e-06 0)
(1.03016e-07 -9.81026e-08 0)
(3.86461e-07 -2.07682e-08 0)
(2.08127e-06 1.3065e-06 0)
(-2.08192e-06 1.30639e-06 0)
(2.10868e-06 1.33494e-06 0)
(-2.10933e-06 1.33482e-06 0)
(-2.62334e-06 4.81755e-06 0)
(2.62262e-06 4.81755e-06 0)
(-1.25963e-06 5.09718e-07 0)
(1.25913e-06 5.09774e-07 0)
(4.44451e-07 1.65071e-06 0)
(-3.04103e-08 1.90614e-06 0)
(5.43557e-07 4.01518e-06 0)
(3.20484e-06 8.84188e-06 0)
(-7.76153e-07 1.38504e-06 0)
(-8.91171e-06 3.41953e-05 0)
(1.18994e-06 6.60668e-06 0)
(2.74094e-06 2.0573e-06 0)
(-2.74164e-06 2.05724e-06 0)
(3.50633e-06 9.06825e-06 0)
(-3.91287e-06 3.913e-05 0)
(-4.55845e-06 8.75299e-05 0)
(-5.12151e-06 1.02643e-05 0)
(-3.6525e-06 7.34848e-06 0)
(1.28421e-06 1.17064e-06 0)
(6.17391e-07 3.15795e-06 0)
(-2.83278e-06 2.7195e-06 0)
(2.83207e-06 2.71954e-06 0)
(6.4437e-06 8.71874e-05 0)
(-6.23641e-06 8.7196e-05 0)
(-5.49154e-07 1.42523e-07 0)
(5.48872e-07 1.42469e-07 0)
(-3.21106e-06 3.28003e-06 0)
(3.21035e-06 3.28005e-06 0)
(-1.13206e-07 3.64576e-06 0)
(-4.68885e-07 1.40875e-06 0)
(6.38038e-07 3.12816e-06 0)
(-5.91479e-07 8.191e-09 0)
(-9.88272e-06 2.42316e-05 0)
(-6.50381e-06 0.00018327 0)
(1.8544e-06 1.07244e-06 0)
(-1.85503e-06 1.07232e-06 0)
(1.95231e-06 6.30802e-06 0)
(-1.22163e-06 4.47084e-07 0)
(-1.08474e-07 3.70234e-06 0)
(1.90323e-06 3.06411e-06 0)
(-1.90395e-06 3.06409e-06 0)
(-8.51874e-07 2.67887e-07 0)
(8.5148e-07 2.67905e-07 0)
(-9.81537e-07 8.09055e-07 0)
(7.48113e-06 1.81569e-05 0)
(2.39241e-06 6.42925e-06 0)
(8.90475e-07 2.11809e-07 0)
(-8.90944e-07 2.11828e-07 0)
(6.73494e-06 3.50062e-05 0)
(2.5341e-07 6.3612e-07 0)
(-1.56141e-06 2.3826e-06 0)
(1.56071e-06 2.38263e-06 0)
(1.26356e-06 1.8217e-06 0)
(-2.31127e-06 1.53168e-06 0)
(2.31061e-06 1.53178e-06 0)
(-1.94408e-06 1.18732e-06 0)
(1.94343e-06 1.18744e-06 0)
(1.4488e-06 1.05131e-06 0)
(1.63777e-06 8.38979e-07 0)
(-1.63833e-06 8.38891e-07 0)
(1.38582e-06 6.21713e-06 0)
(3.25918e-06 1.51803e-05 0)
(-3.51677e-06 4.22068e-06 0)
(3.51604e-06 4.22069e-06 0)
(3.21541e-06 5.51018e-06 0)
(3.98254e-06 4.45776e-06 0)
(-3.98327e-06 4.45775e-06 0)
(-7.54542e-06 3.41949e-05 0)
(2.65991e-06 2.49976e-06 0)
(-2.66062e-06 2.49972e-06 0)
(2.3512e-06 4.22374e-06 0)
(-2.35193e-06 4.22372e-06 0)
(5.81615e-07 3.59407e-06 0)
(-1.37646e-06 6.41507e-07 0)
(1.37596e-06 6.41574e-07 0)
(1.1962e-05 7.99606e-05 0)
(6.67742e-07 1.10873e-05 0)
(4.29356e-07 3.57206e-06 0)
(5.06336e-07 2.0853e-06 0)
(-1.84377e-06 1.55057e-06 0)
(1.84306e-06 1.55065e-06 0)
(3.10659e-06 2.66709e-06 0)
(-3.10731e-06 2.66705e-06 0)
(2.06865e-06 6.32582e-06 0)
(7.6142e-06 2.30827e-05 0)
(-1.29299e-06 1.85623e-06 0)
(-4.19111e-07 4.02765e-05 0)
(1.31904e-06 9.32457e-07 0)
(1.29529e-06 1.1427e-06 0)
(-6.46652e-06 8.54365e-05 0)
(4.1115e-07 9.8543e-08 0)
(-4.11364e-07 9.85994e-08 0)
(8.99249e-06 2.36511e-05 0)
(3.97235e-06 3.94987e-06 0)
(-3.97307e-06 3.94986e-06 0)
(-7.06857e-06 4.51001e-05 0)
(-1.4441e-07 3.53466e-06 0)
(2.44198e-06 2.08717e-06 0)
(-2.44268e-06 2.08711e-06 0)
(1.18225e-06 4.80536e-07 0)
(7.78508e-06 3.81458e-05 0)
(-7.78584e-06 3.81459e-05 0)
(-4.13389e-08 2.58939e-06 0)
(-1.05703e-07 -1.39411e-07 0)
(1.73092e-06 1.83065e-05 0)
(1.09717e-06 1.09986e-06 0)
(1.76385e-06 6.10168e-06 0)
(-1.57136e-06 2.34722e-06 0)
(1.57065e-06 2.34725e-06 0)
(5.05366e-06 2.00129e-05 0)
(1.7269e-08 3.99889e-07 0)
(-2.80981e-06 3.38037e-06 0)
(2.80909e-06 3.38039e-06 0)
(-8.42963e-07 5.43952e-06 0)
(1.9522e-06 3.80442e-06 0)
(-1.95292e-06 3.8044e-06 0)
(6.92761e-07 5.21227e-06 0)
(-9.24029e-07 3.1798e-07 0)
(9.23619e-07 3.18011e-07 0)
(2.09477e-06 1.35883e-06 0)
(-2.09544e-06 1.35872e-06 0)
(1.03515e-06 3.95299e-07 0)
(-1.03558e-06 3.95255e-07 0)
(-4.59287e-06 1.58659e-05 0)
(1.15262e-06 1.65074e-06 0)
(-1.1562e-06 1.65124e-06 0)
(-5.36144e-06 1.97463e-05 0)
(1.17284e-06 4.56408e-07 0)
(-1.17332e-06 4.56357e-07 0)
(2.61058e-06 1.13258e-05 0)
(-5.2875e-07 7.60518e-07 0)
(7.21292e-07 2.18622e-06 0)
(3.27366e-06 7.74189e-06 0)
(-1.00063e-07 3.17562e-07 0)
(1.61557e-07 3.62108e-08 0)
(5.5674e-07 3.36449e-07 0)
(5.93874e-06 9.88619e-06 0)
(-1.62292e-06 1.66063e-06 0)
(1.62221e-06 1.66069e-06 0)
(-9.82988e-06 7.47439e-05 0)
(-1.6176e-06 1.70206e-06 0)
(1.61689e-06 1.70211e-06 0)
(1.35918e-05 0.000120307 0)
(2.19495e-06 2.14017e-06 0)
(-2.19565e-06 2.14012e-06 0)
(5.97053e-07 4.04324e-06 0)
(2.79456e-07 1.01163e-05 0)
(1.98996e-06 3.76877e-06 0)
(-1.99068e-06 3.76876e-06 0)
(-3.59308e-06 4.13102e-06 0)
(3.59236e-06 4.13103e-06 0)
(-4.29247e-06 9.02761e-06 0)
(-8.49903e-07 1.63925e-06 0)
(-1.21714e-06 9.52617e-07 0)
(-2.48803e-06 2.75031e-06 0)
(2.48732e-06 2.75034e-06 0)
(-3.46915e-06 3.39503e-06 0)
(3.46843e-06 3.39506e-06 0)
(-4.07507e-06 2.83394e-05 0)
(1.31074e-06 6.26961e-06 0)
(-1.24706e-05 0.000278882 0)
(1.22709e-05 0.000278516 0)
(-1.32159e-06 2.46111e-06 0)
(1.3208e-06 2.46104e-06 0)
(1.37413e-05 0.00011254 0)
(3.13426e-09 3.44844e-09 0)
(9.76467e-10 1.41799e-09 0)
(-9.81135e-10 1.42466e-09 0)
(-3.14918e-09 3.46471e-09 0)
(2.0719e-06 1.57462e-05 0)
(-7.74559e-08 6.94767e-08 0)
(7.73691e-08 6.9245e-08 0)
(1.15677e-06 4.27403e-07 0)
(-1.15725e-06 4.27357e-07 0)
(7.92724e-07 2.25314e-07 0)
(-7.93108e-07 2.25312e-07 0)
(-9.30884e-07 3.23793e-07 0)
(9.30474e-07 3.23825e-07 0)
(-2.3479e-07 1.13874e-06 0)
(-1.99895e-06 1.90369e-06 0)
(1.99825e-06 1.90375e-06 0)
(2.81395e-06 6.78733e-06 0)
(7.30404e-06 9.35786e-05 0)
(1.89244e-06 1.8344e-06 0)
(-1.89315e-06 1.83435e-06 0)
(1.67791e-06 6.07994e-06 0)
(-2.3217e-06 2.55927e-06 0)
(2.321e-06 2.55931e-06 0)
(2.27148e-06 7.01687e-06 0)
(1.31778e-06 3.88097e-06 0)
(-3.65694e-06 7.45065e-06 0)
(9.93119e-07 3.68325e-07 0)
(-9.93544e-07 3.68284e-07 0)
(-3.26284e-06 6.26071e-06 0)
(-2.64393e-07 7.786e-06 0)
(9.35062e-09 2.14111e-06 0)
(4.68206e-06 3.97975e-05 0)
(2.68422e-06 2.49474e-06 0)
(-2.68493e-06 2.4947e-06 0)
(2.48402e-07 -4.11521e-09 0)
(-1.41993e-06 9.98073e-07 0)
(3.19599e-06 2.74516e-06 0)
(-3.19671e-06 2.74512e-06 0)
(-2.34899e-10 1.49684e-08 0)
(2.35838e-10 1.50355e-08 0)
(-2.57634e-06 4.85308e-06 0)
(2.57562e-06 4.85309e-06 0)
(-6.64671e-06 3.49891e-05 0)
(1.09836e-06 2.67139e-05 0)
(-3.66668e-06 3.26154e-06 0)
(3.66596e-06 3.26157e-06 0)
(1.11791e-06 1.85845e-06 0)
(1.44489e-06 9.21604e-07 0)
(-1.91712e-07 -1.35539e-07 0)
(-1.37569e-05 0.000211866 0)
(-1.18539e-06 4.82383e-07 0)
(-1.67473e-06 4.61423e-06 0)
(-1.47805e-06 1.06114e-05 0)
(7.95404e-08 7.95243e-08 0)
(5.34386e-07 2.0633e-06 0)
(3.79624e-06 8.63115e-06 0)
(-1.09499e-06 3.44079e-07 0)
(-3.10384e-06 6.78026e-06 0)
(3.85215e-06 1.01116e-05 0)
(7.68625e-07 1.87187e-07 0)
(6.70197e-06 8.55283e-05 0)
(-1.14584e-08 4.14022e-08 0)
(1.1487e-08 4.12031e-08 0)
(-2.22398e-06 2.17384e-06 0)
(2.22327e-06 2.17389e-06 0)
(-1.15749e-06 5.07277e-07 0)
(1.42925e-07 2.84938e-06 0)
(1.29697e-06 6.61539e-06 0)
(2.47469e-06 7.99875e-05 0)
(-1.33194e-05 7.96164e-05 0)
(-2.9279e-06 6.53473e-06 0)
(1.45806e-06 1.03415e-06 0)
(2.83578e-07 5.78432e-06 0)
(-1.26286e-05 0.000122487 0)
(1.35239e-05 0.000122269 0)
(4.55187e-07 1.88015e-06 0)
(-7.68792e-07 2.02572e-07 0)
(7.68405e-07 2.02562e-07 0)
(-1.34485e-06 1.13605e-06 0)
(-7.81315e-06 2.16732e-05 0)
(3.73734e-07 5.83776e-06 0)
(5.67006e-06 4.54607e-05 0)
(-2.86509e-06 2.74579e-06 0)
(2.86438e-06 2.74583e-06 0)
(4.24257e-06 4.79249e-06 0)
(-4.2433e-06 4.79248e-06 0)
(1.22602e-09 3.5042e-08 0)
(-1.20154e-09 3.48765e-08 0)
(4.10349e-07 3.13627e-05 0)
(2.02996e-07 6.49844e-07 0)
(1.28565e-06 4.40202e-06 0)
(1.38001e-07 1.55144e-06 0)
(1.5019e-06 1.8344e-06 0)
(-1.50262e-06 1.83437e-06 0)
(-7.51248e-06 6.9573e-05 0)
(-3.58907e-07 8.71064e-08 0)
(3.58711e-07 8.70236e-08 0)
(3.50934e-06 3.32453e-06 0)
(-3.51007e-06 3.32451e-06 0)
(7.9701e-06 1.84077e-05 0)
(-2.52044e-06 2.426e-06 0)
(2.51973e-06 2.42605e-06 0)
(4.37995e-07 2.00293e-08 0)
(-3.83251e-06 7.72782e-06 0)
(2.30326e-06 7.61503e-06 0)
(2.72465e-06 2.27203e-05 0)
(-4.97929e-06 1.25857e-05 0)
(-4.34844e-07 8.11881e-06 0)
(-3.48571e-06 4.24237e-06 0)
(3.48499e-06 4.24238e-06 0)
(-8.85427e-06 9.41713e-05 0)
(3.8862e-07 2.53476e-06 0)
(-2.30294e-06 1.54368e-06 0)
(2.30227e-06 1.54378e-06 0)
(2.93496e-06 1.42442e-05 0)
(4.94866e-06 6.91083e-06 0)
(8.80143e-07 1.17634e-06 0)
(-4.94943e-06 6.91064e-06 0)
(-6.64212e-07 6.85754e-08 0)
(6.63618e-07 6.82188e-08 0)
(-2.9001e-06 9.12198e-06 0)
(-9.02573e-07 2.28189e-07 0)
(4.06644e-06 1.38031e-05 0)
(2.69347e-08 -5.0305e-08 0)
(2.71809e-06 6.80349e-06 0)
(7.78301e-07 1.95434e-06 0)
(-1.11421e-05 3.13833e-05 0)
(6.19282e-07 3.20108e-06 0)
(-8.73766e-07 1.98742e-07 0)
(8.73294e-07 1.98719e-07 0)
(4.02754e-06 4.43974e-06 0)
(-4.02826e-06 4.43973e-06 0)
(-1.33789e-06 6.78204e-06 0)
(-5.78092e-07 2.60662e-05 0)
(2.71868e-06 2.59621e-06 0)
(-2.71939e-06 2.59617e-06 0)
(2.68882e-06 6.02915e-06 0)
(-3.82488e-06 1.61259e-05 0)
(-1.23196e-05 0.000120317 0)
(-6.91306e-07 3.5503e-06 0)
(-4.2289e-06 2.19723e-05 0)
(-7.51316e-07 2.26186e-07 0)
(7.50958e-07 2.26201e-07 0)
(7.17534e-07 5.36396e-06 0)
(-1.58703e-06 1.93975e-06 0)
(1.58632e-06 1.93979e-06 0)
(3.79217e-06 4.0633e-06 0)
(-3.7929e-06 4.06329e-06 0)
(-5.90702e-08 3.71039e-06 0)
(2.17411e-06 7.62663e-06 0)
(1.31467e-07 7.63171e-08 0)
(1.11414e-05 3.13841e-05 0)
(-1.7388e-06 9.50662e-07 0)
(1.73818e-06 9.5078e-07 0)
(-2.43728e-06 9.07681e-06 0)
(-1.26336e-07 1.44969e-06 0)
(1.89467e-06 1.22229e-05 0)
(4.44047e-06 1.28952e-05 0)
(2.35088e-06 1.66216e-05 0)
(1.05545e-06 9.90184e-07 0)
(4.60686e-07 1.75807e-06 0)
(9.62883e-07 4.11868e-07 0)
(-2.1015e-06 6.20342e-06 0)
(-3.79264e-06 3.91913e-06 0)
(3.79192e-06 3.91915e-06 0)
(-1.91543e-06 1.13857e-06 0)
(1.91479e-06 1.13869e-06 0)
(-1.11577e-05 4.98622e-05 0)
(1.09775e-05 4.98122e-05 0)
(5.44689e-07 3.55014e-06 0)
(-1.26128e-07 -1.37867e-07 0)
(-3.66335e-06 3.87049e-06 0)
(3.66263e-06 3.87051e-06 0)
(3.90645e-06 7.53026e-06 0)
(3.78966e-06 8.89041e-06 0)
(-7.44221e-08 4.63237e-06 0)
(2.63528e-06 2.17131e-05 0)
(-4.53907e-06 0.000256659 0)
(-1.64928e-07 9.47197e-08 0)
(1.64835e-07 9.44709e-08 0)
(1.08381e-06 4.09254e-06 0)
(5.17004e-07 5.05538e-06 0)
(-2.54265e-06 1.85659e-06 0)
(2.54196e-06 1.85666e-06 0)
(1.1124e-07 2.08728e-06 0)
(-4.51405e-06 3.97508e-05 0)
(8.13912e-08 -1.38446e-07 0)
(-3.38072e-06 2.90913e-06 0)
(3.38e-06 2.90916e-06 0)
(9.33625e-07 2.12753e-07 0)
(-9.34133e-07 2.12785e-07 0)
(1.28011e-06 1.46062e-06 0)
(7.32479e-07 1.92697e-07 0)
(-7.32849e-07 1.9271e-07 0)
(2.1146e-06 4.97703e-05 0)
(3.32638e-07 9.21052e-06 0)
(-1.06364e-06 7.91767e-05 0)
(-9.68417e-07 4.06972e-05 0)
(-3.56996e-06 4.16475e-06 0)
(3.56923e-06 4.16476e-06 0)
(1.51652e-06 2.68994e-05 0)
(1.87919e-06 3.16629e-06 0)
(-1.87991e-06 3.16626e-06 0)
(-4.46787e-06 4.93573e-06 0)
(4.46714e-06 4.93574e-06 0)
(1.11576e-06 1.63499e-06 0)
(-1.11635e-06 1.63537e-06 0)
(-1.27304e-06 5.2498e-07 0)
(1.27254e-06 5.25038e-07 0)
(2.36726e-06 1.6357e-06 0)
(-2.36794e-06 1.63561e-06 0)
(-4.48033e-07 3.21198e-06 0)
(5.63788e-06 1.5573e-05 0)
(-2.46673e-06 1.75174e-06 0)
(2.46604e-06 1.75182e-06 0)
(7.3745e-06 2.24082e-05 0)
(1.81441e-07 2.20832e-06 0)
(-1.2759e-06 4.9723e-07 0)
(1.27538e-06 4.97284e-07 0)
(-3.33029e-06 4.49392e-06 0)
(3.32956e-06 4.49393e-06 0)
(1.50429e-06 7.85996e-07 0)
(2.75199e-06 2.61204e-06 0)
(-2.7527e-06 2.612e-06 0)
(3.8128e-06 3.47292e-06 0)
(-3.81352e-06 3.47289e-06 0)
(-1.50492e-06 7.85873e-07 0)
(-1.62536e-06 8.34912e-06 0)
(-2.11603e-06 6.58429e-06 0)
(-4.08983e-06 8.88282e-05 0)
(-2.82432e-06 3.94437e-06 0)
(2.8236e-06 3.94438e-06 0)
(4.8355e-06 6.88966e-06 0)
(-1.69548e-07 1.87811e-06 0)
(-1.32443e-07 7.66991e-08 0)
(-4.83622e-06 6.88946e-06 0)
(-1.00246e-06 2.13987e-06 0)
(-1.33993e-06 1.10468e-06 0)
(2.17706e-06 7.06897e-06 0)
(-1.59935e-06 1.97372e-06 0)
(1.59865e-06 1.97376e-06 0)
(-1.65111e-08 1.86554e-06 0)
(-4.58553e-07 1.80141e-06 0)
(3.01672e-06 8.52577e-06 0)
(-1.08645e-05 3.79681e-05 0)
(1.08635e-05 3.79679e-05 0)
(-2.34692e-06 1.51682e-05 0)
(1.14211e-07 2.86638e-06 0)
(-3.00208e-08 4.52561e-08 0)
(3.00229e-08 4.50553e-08 0)
(1.04956e-06 9.1686e-07 0)
(1.23953e-06 1.21853e-06 0)
(2.41193e-06 1.14166e-05 0)
(-2.52745e-06 1.85464e-06 0)
(2.52676e-06 1.85472e-06 0)
(1.54081e-06 8.76172e-07 0)
(1.14683e-05 8.12641e-05 0)
(1.5065e-06 7.99857e-07 0)
(-3.62122e-06 2.80093e-05 0)
(-1.22547e-06 5.03982e-07 0)
(1.22499e-06 5.04039e-07 0)
(6.0124e-06 1.76055e-05 0)
(-7.52512e-07 1.34941e-06 0)
(-1.54103e-06 8.7615e-07 0)
(2.04359e-05 0.000197564 0)
(-2.03785e-05 0.000197556 0)
(-1.50713e-06 7.99735e-07 0)
(4.37191e-06 1.24689e-05 0)
(-1.29266e-06 5.08675e-07 0)
(1.29213e-06 5.0873e-07 0)
(3.84218e-06 4.74886e-06 0)
(-3.84291e-06 4.74885e-06 0)
(-3.64412e-06 9.4389e-06 0)
(7.22782e-07 2.22703e-06 0)
(-2.32646e-06 8.94926e-06 0)
(-1.99622e-06 1.24081e-06 0)
(1.99556e-06 1.24093e-06 0)
(2.7886e-06 3.16148e-06 0)
(-2.78932e-06 3.16145e-06 0)
(9.84312e-09 7.23293e-07 0)
(3.12868e-06 2.25883e-05 0)
(-2.80248e-06 3.97429e-06 0)
(2.80176e-06 3.9743e-06 0)
(2.68022e-06 9.50899e-06 0)
(-3.44586e-07 1.10878e-07 0)
(3.44404e-07 1.10731e-07 0)
(1.64915e-06 5.7152e-06 0)
(9.25568e-07 1.9837e-07 0)
(-5.26666e-06 8.291e-06 0)
(4.22287e-06 1.29382e-05 0)
(3.64494e-06 9.18869e-06 0)
(7.66379e-06 2.39981e-05 0)
(-1.61444e-06 4.57715e-06 0)
(1.68507e-06 4.4711e-06 0)
(7.41871e-07 7.6177e-06 0)
(-3.51427e-06 3.43083e-06 0)
(3.51355e-06 3.43085e-06 0)
(4.95465e-07 5.05598e-05 0)
(-6.41316e-08 1.04834e-06 0)
(-7.28425e-07 3.51844e-06 0)
(2.41152e-06 7.96065e-06 0)
(1.46983e-06 1.86104e-05 0)
(2.64812e-07 3.96625e-07 0)
(2.08456e-07 2.23713e-06 0)
(-3.68294e-06 1.94534e-05 0)
(3.35556e-06 2.59681e-05 0)
(-9.62343e-08 7.52677e-07 0)
(-5.01743e-07 1.50558e-06 0)
(1.05833e-06 9.44067e-07 0)
(-9.99865e-07 2.17561e-06 0)
(8.97687e-06 2.40275e-05 0)
(-1.38039e-06 1.07309e-05 0)
(1.21052e-06 6.99035e-06 0)
(4.21931e-07 1.00351e-07 0)
(-4.2215e-07 1.00401e-07 0)
(-1.00207e-06 8.82829e-07 0)
(3.45353e-07 1.04039e-07 0)
(-3.45538e-07 1.04225e-07 0)
(1.234e-06 4.44058e-06 0)
(6.44867e-07 3.23697e-06 0)
(-1.86691e-06 1.54404e-06 0)
(1.8662e-06 1.54412e-06 0)
(-9.4242e-07 2.79936e-07 0)
(-2.36464e-07 9.91297e-08 0)
(2.36309e-07 9.8896e-08 0)
(8.66782e-07 7.68335e-07 0)
(3.1789e-06 3.93397e-05 0)
(-9.26077e-07 1.98434e-07 0)
(1.18053e-06 3.95306e-07 0)
(-1.4151e-06 9.71163e-07 0)
(-9.36962e-07 7.09584e-07 0)
(6.83817e-06 1.16627e-05 0)
(-1.26425e-06 1.8219e-06 0)
(-2.9283e-06 1.61906e-05 0)
(-3.78735e-06 1.05351e-05 0)
(-7.86719e-07 2.34475e-07 0)
(7.86344e-07 2.34486e-07 0)
(-5.96922e-07 4.48518e-06 0)
(4.2836e-07 1.61788e-06 0)
(-1.46712e-07 4.72001e-08 0)
(1.46587e-07 4.70229e-08 0)
(-1.39607e-06 7.9324e-07 0)
(9.94075e-06 0.000374581 0)
(-8.71806e-06 7.39676e-05 0)
(-1.59112e-06 6.51654e-06 0)
(1.52543e-06 3.43464e-06 0)
(-1.52609e-06 3.43463e-06 0)
(4.04286e-06 8.81931e-06 0)
(4.2606e-07 2.53257e-06 0)
(-7.04174e-06 7.04373e-05 0)
(1.10107e-07 3.48567e-08 0)
(-1.1023e-07 3.50383e-08 0)
(7.91837e-06 6.34698e-05 0)
(5.78509e-06 8.42156e-05 0)
(4.36338e-08 -9.87718e-08 0)
(-2.78899e-07 7.91179e-06 0)
(5.63534e-07 1.07394e-06 0)
(-4.43734e-06 1.0558e-05 0)
(-9.79666e-07 7.7382e-07 0)
(5.62018e-06 2.63159e-05 0)
(1.56533e-06 3.41475e-06 0)
(-1.56605e-06 3.41474e-06 0)
(5.72172e-06 1.24387e-05 0)
(3.1456e-06 6.62444e-06 0)
(-6.47754e-08 1.12974e-06 0)
(-2.1031e-07 1.10968e-06 0)
(8.96057e-06 6.4084e-05 0)
(1.69697e-06 8.95715e-07 0)
(-1.69757e-06 8.95604e-07 0)
(-1.211e-07 1.86843e-06 0)
(1.22502e-06 3.53466e-06 0)
(5.92001e-06 1.44349e-05 0)
(4.32536e-07 1.02821e-07 0)
(-4.3276e-07 1.02865e-07 0)
(3.16598e-06 1.48891e-05 0)
(-5.28971e-07 5.23167e-07 0)
(-3.52531e-06 1.62587e-05 0)
(2.9454e-06 2.96396e-06 0)
(-2.94612e-06 2.96393e-06 0)
(6.5065e-07 3.47982e-06 0)
(1.43955e-06 1.44273e-06 0)
(-1.43985e-06 1.44212e-06 0)
(-1.51846e-06 7.01549e-07 0)
(1.51789e-06 7.0163e-07 0)
(-7.59551e-06 7.41382e-05 0)
(1.7593e-06 4.53812e-06 0)
(-3.30577e-08 4.85947e-08 0)
(3.30555e-08 4.83874e-08 0)
(1.0757e-06 1.83553e-06 0)
(-6.80429e-08 7.62534e-08 0)
(-1.2485e-05 0.000288289 0)
(-3.60448e-06 3.72367e-06 0)
(3.60375e-06 3.72369e-06 0)
(7.72691e-06 0.000181623 0)
(-2.37854e-06 1.60282e-06 0)
(2.37787e-06 1.60292e-06 0)
(-2.52632e-06 0.000150566 0)
(-5.56607e-06 2.6314e-05 0)
(6.5623e-07 3.33398e-06 0)
(1.7703e-06 1.0221e-06 0)
(9.87871e-07 1.79256e-06 0)
(6.07616e-07 7.68033e-06 0)
(-1.77094e-06 1.02197e-06 0)
(-5.91447e-06 1.46794e-05 0)
(-3.05991e-07 3.00684e-06 0)
(1.23771e-06 3.64271e-06 0)
(1.66611e-06 3.40567e-06 0)
(-1.66683e-06 3.40565e-06 0)
(-1.11874e-06 5.00824e-07 0)
(1.15941e-06 5.58481e-07 0)