/*--------------------------------*- C++ -*----------------------------------*\
| =========                 |                                                 |
| \\      /  F ield         | OpenFOAM: The Open Source CFD Toolbox           |
|  \\    /   O peration     | Version:  v3.0+                                 |
|   \\  /    A nd           | Web:      www.OpenFOAM.com                      |
|    \\/     M anipulation  |                                                 |
\*---------------------------------------------------------------------------*/
FoamFile
{
    version     2.0;
    format      ascii;
    class       volVectorField;
    location    "2000";
    object      D;
}
// * * * * * * * * * * * * * * * * * * * * * * * * * * * * * * * * * * * * * //

dimensions      [0 1 0 0 0 0 0];

internalField   nonuniform List<vector> 
24076
(
(2.59406e-06 2.588e-06 0)
(2.98176e-09 3.37097e-08 0)
(2.36537e-11 4.75336e-10 0)
(2.39841e-11 4.61612e-10 0)
(6.77404e-07 2.02371e-06 0)
(3.80288e-09 4.00609e-08 0)
(2.87842e-09 3.38904e-08 0)
(2.65521e-06 2.60665e-06 0)
(-2.34156e-12 3.52948e-11 0)
(6.00934e-06 1.87616e-05 0)
(-8.03721e-07 1.73185e-06 0)
(6.12798e-06 1.89479e-05 0)
(1.05088e-06 1.11854e-06 0)
(6.22824e-07 2.0136e-06 0)
(6.53893e-06 1.53116e-05 0)
(1.10315e-06 1.44163e-05 0)
(-1.13996e-05 9.53726e-05 0)
(1.286e-05 9.54333e-05 0)
(6.64417e-07 7.93767e-06 0)
(1.24305e-06 1.44961e-05 0)
(6.37386e-06 1.51966e-05 0)
(-7.80993e-07 3.39972e-06 0)
(3.70133e-09 5.42006e-08 0)
(-7.73567e-07 1.69007e-06 0)
(2.09065e-07 8.84253e-07 0)
(5.57844e-07 7.90315e-06 0)
(-8.66911e-08 1.41416e-07 0)
(3.71614e-09 3.94954e-08 0)
(6.9676e-08 1.71128e-05 0)
(1.6389e-07 8.70678e-07 0)
(-1.71214e-07 1.70923e-05 0)
(8.15396e-11 8.18682e-09 0)
(2.34505e-06 9.57858e-06 0)
(1.34961e-06 3.94605e-06 0)
(2.46276e-06 9.61486e-06 0)
(4.50633e-06 1.39046e-05 0)
(1.0998e-06 1.16487e-06 0)
(-1.13488e-05 9.60841e-05 0)
(1.28268e-05 9.61524e-05 0)
(2.13109e-06 1.28914e-06 0)
(-4.17688e-07 2.62254e-07 0)
(-5.19719e-07 3.50438e-05 0)
(9.7029e-07 1.44207e-06 0)
(1.28845e-06 3.95049e-06 0)
(4.33684e-06 1.38317e-05 0)
(-4.40274e-06 1.30423e-05 0)
(4.52646e-10 3.6557e-08 0)
(2.09664e-06 1.87442e-05 0)
(-9.21959e-08 1.44366e-07 0)
(-3.18835e-06 1.38842e-05 0)
(7.83028e-11 1.22275e-09 0)
(-7.69541e-08 1.29232e-07 0)
(-6.41049e-12 4.55616e-11 0)
(3.64328e-09 4.34727e-08 0)
(-2.34246e-12 3.77853e-11 0)
(6.11556e-06 5.10189e-05 0)
(9.16169e-07 3.479e-06 0)
(3.84988e-06 5.64678e-06 0)
(2.67395e-06 0.000254597 0)
(6.58027e-06 5.10874e-05 0)
(-4.43109e-06 1.3214e-05 0)
(-7.79565e-10 1.64008e-08 0)
(-3.02058e-06 5.65223e-06 0)
(-3.02078e-06 1.37997e-05 0)
(-5.19877e-07 1.87771e-06 0)
(3.77341e-06 5.64567e-06 0)
(1.16588e-06 3.17896e-06 0)
(-4.69444e-07 1.87148e-06 0)
(1.36742e-09 2.46359e-08 0)
(1.18172e-06 3.1257e-06 0)
(1.85496e-06 0.000252673 0)
(-2.73704e-09 7.13107e-08 0)
(-6.49187e-06 3.65961e-05 0)
(-3.55595e-10 3.83851e-09 0)
(-4.12582e-07 2.58837e-07 0)
(1.92029e-06 1.87007e-05 0)
(-8.4093e-07 3.44354e-06 0)
(-6.72987e-06 3.68856e-05 0)
(2.33023e-06 3.86691e-06 0)
(-2.95479e-06 5.56636e-06 0)
(7.13838e-10 3.68257e-08 0)
(2.93344e-06 3.26333e-05 0)
(-2.38971e-07 4.51522e-06 0)
(1.91035e-08 1.42334e-06 0)
(-2.49157e-07 2.18131e-07 0)
(-5.62508e-12 3.93006e-11 0)
(7.8218e-06 0.00015849 0)
(-6.98872e-06 5.41215e-05 0)
(2.71353e-07 0.000252281 0)
(6.53447e-06 0.000158601 0)
(2.68513e-06 3.28415e-05 0)
(1.75787e-06 0.000256024 0)
(-1.23122e-06 6.00394e-06 0)
(9.7096e-07 3.50961e-06 0)
(-4.11412e-09 1.46402e-06 0)
(-6.97265e-07 7.4261e-07 0)
(-1.34204e-06 0.000107473 0)
(4.81624e-06 0.000163609 0)
(2.01336e-11 7.93907e-09 0)
(1.06873e-06 2.38638e-06 0)
(-2.77301e-07 4.59613e-06 0)
(-5.94029e-07 1.20768e-06 0)
(-3.38799e-07 3.53693e-05 0)
(2.286e-06 3.80312e-06 0)
(-6.00695e-07 2.42174e-05 0)
(-4.5292e-07 3.20773e-07 0)
(-1.07198e-10 1.60309e-09 0)
(-4.18629e-10 6.78433e-08 0)
(-1.77765e-06 4.75762e-06 0)
(-1.88975e-06 2.61199e-05 0)
(-1.51045e-06 0.000108389 0)
(1.65706e-06 1.89853e-05 0)
(-1.81235e-12 1.06091e-10 0)
(-8.64628e-10 1.60602e-08 0)
(1.12936e-05 0.000205803 0)
(6.71975e-11 1.19242e-09 0)
(-6.95204e-07 1.79835e-06 0)
(-1.6479e-06 2.60233e-05 0)
(4.60309e-06 0.000164655 0)
(-2.1668e-06 2.60491e-05 0)
(3.84341e-07 2.12371e-05 0)
(-3.61614e-06 2.10297e-05 0)
(-4.38376e-07 3.27668e-07 0)
(2.07275e-06 1.25497e-06 0)
(4.36183e-06 1.61161e-05 0)
(-7.13499e-06 5.45964e-05 0)
(-1.79784e-06 4.83551e-06 0)
(5.02613e-06 2.67657e-05 0)
(-7.91434e-07 2.40253e-05 0)
(3.15401e-10 5.72853e-09 0)
(-3.60515e-06 2.08107e-05 0)
(-2.31177e-06 2.58586e-05 0)
(-2.55241e-06 4.95971e-05 0)
(3.43066e-09 5.47214e-08 0)
(-1.19909e-06 6.08296e-06 0)
(-1.0391e-07 1.41522e-07 0)
(8.2396e-07 5.73482e-06 0)
(9.20697e-07 1.40281e-06 0)
(1.98447e-06 0.000145384 0)
(1.0121e-06 6.22355e-06 0)
(1.10108e-06 6.24207e-06 0)
(-2.22529e-12 1.00008e-10 0)
(-7.17598e-09 1.72774e-08 0)
(-1.75196e-06 0.000121656 0)
(9.78115e-06 0.000125751 0)
(1.73213e-06 1.87993e-05 0)
(-2.70799e-06 5.00075e-05 0)
(6.40221e-06 7.38616e-05 0)
(7.77659e-07 6.84002e-06 0)
(1.18187e-10 2.69614e-09 0)
(-3.10393e-06 1.17021e-05 0)
(-2.26646e-13 1.74984e-12 0)
(9.8713e-07 3.57619e-07 0)
(9.95389e-07 1.8549e-06 0)
(2.70996e-06 5.47064e-06 0)
(1.62266e-06 3.34845e-05 0)
(2.19618e-06 1.60173e-06 0)
(-4.24401e-07 2.14174e-05 0)
(7.72227e-07 5.79517e-06 0)
(-1.6446e-11 5.83088e-10 0)
(9.90336e-09 -2.1178e-08 0)
(-2.34359e-12 2.83084e-11 0)
(7.63012e-06 1.9982e-05 0)
(-2.0285e-06 4.0247e-06 0)
(7.64822e-07 5.24631e-05 0)
(1.53859e-05 0.000146004 0)
(-1.40945e-05 0.000146006 0)
(-1.16985e-06 8.65683e-06 0)
(-7.97306e-07 2.59808e-06 0)
(-3.22069e-07 1.69215e-07 0)
(1.8667e-06 5.4782e-06 0)
(1.26815e-09 6.50381e-08 0)
(1.74655e-07 9.96053e-06 0)
(1.84686e-06 8.21142e-06 0)
(-2.01428e-06 8.67564e-06 0)
(3.32875e-06 8.67663e-06 0)
(-7.01227e-06 5.11329e-05 0)
(8.28797e-06 5.11364e-05 0)
(7.2679e-06 2.16199e-05 0)
(-3.46623e-06 1.0828e-05 0)
(-2.86139e-06 5.558e-06 0)
(-5.74617e-10 4.2035e-09 0)
(1.72758e-06 3.76309e-06 0)
(-1.09747e-07 -6.25245e-09 0)
(-1.20101e-07 -4.01574e-10 0)
(-6.74021e-08 2.54842e-06 0)
(-8.09133e-07 2.6623e-06 0)
(-3.72523e-07 3.25656e-07 0)
(-1.04521e-06 2.05009e-06 0)
(6.39296e-07 3.52887e-07 0)
(7.61443e-10 1.03006e-08 0)
(-2.12382e-06 1.18441e-05 0)
(-8.1388e-06 0.000141249 0)
(-4.27907e-06 3.2897e-05 0)
(3.85039e-06 3.09287e-05 0)
(4.66629e-06 9.14355e-06 0)
(3.61898e-09 4.14275e-08 0)
(7.48656e-06 5.05528e-05 0)
(-6.20497e-06 5.05445e-05 0)
(-3.35544e-06 9.14344e-06 0)
(1.72547e-06 3.6943e-06 0)
(-3.40402e-07 2.97043e-07 0)
(-1.43487e-05 0.000162035 0)
(1.56439e-05 0.000162035 0)
(2.35391e-06 0.000126418 0)
(8.83135e-07 2.08414e-06 0)
(-3.89666e-06 1.23318e-05 0)
(-7.64184e-06 7.03228e-05 0)
(1.87877e-06 1.30648e-06 0)
(2.73108e-08 1.00041e-05 0)
(-1.71269e-09 4.36153e-08 0)
(9.89684e-07 1.13275e-05 0)
(-2.96292e-08 9.80408e-08 0)
(-3.16695e-06 1.15204e-05 0)
(-2.49099e-12 2.8083e-11 0)
(2.95594e-07 8.27922e-06 0)
(-1.07771e-07 1.43688e-07 0)
(-3.07336e-06 7.38924e-06 0)
(-1.62845e-05 0.000245869 0)
(1.7583e-05 0.000245871 0)
(-3.48814e-07 9.07254e-05 0)
(6.75789e-06 1.52578e-05 0)
(3.02865e-06 2.58935e-06 0)
(-6.70372e-07 4.09791e-06 0)
(4.9462e-06 1.07464e-05 0)
(-3.88944e-11 2.44627e-10 0)
(-2.93243e-11 5.34868e-10 0)
(-4.51219e-06 2.76088e-05 0)
(-4.95618e-11 3.37623e-10 0)
(5.66245e-06 0.000157056 0)
(-2.12421e-11 5.44202e-10 0)
(-2.17079e-06 1.1991e-05 0)
(-5.59254e-11 9.73547e-10 0)
(-6.44976e-10 4.79197e-09 0)
(9.88937e-07 4.5125e-06 0)
(3.76748e-06 5.736e-05 0)
(-5.18791e-07 4.69343e-07 0)
(5.08948e-07 1.30819e-07 0)
(-4.34907e-06 5.14636e-05 0)
(-8.39389e-06 3.68402e-05 0)
(9.71948e-06 3.68498e-05 0)
(-2.57298e-07 2.20906e-07 0)
(-5.65588e-06 6.55273e-05 0)
(-5.10006e-06 6.50236e-05 0)
(1.22499e-05 6.81043e-05 0)
(-1.10151e-05 6.81219e-05 0)
(-4.30643e-06 3.73281e-05 0)
(4.82502e-06 9.20235e-06 0)
(-3.51452e-06 9.20231e-06 0)
(-7.0804e-07 1.54231e-06 0)
(-1.10028e-05 0.000122666 0)
(3.53207e-06 0.000105861 0)
(3.62019e-08 -2.49574e-08 0)
(3.30111e-06 4.4115e-06 0)
(1.27858e-05 6.83992e-05 0)
(-1.14908e-05 6.84002e-05 0)
(1.37858e-09 2.11491e-08 0)
(-3.57304e-11 7.01785e-09 0)
(-4.33749e-08 1.01434e-07 0)
(4.97723e-06 0.00014932 0)
(9.3878e-07 1.81515e-06 0)
(3.5007e-06 3.48288e-06 0)
(3.59613e-06 1.0319e-05 0)
(-1.56388e-12 3.00378e-11 0)
(-1.14366e-06 5.29386e-06 0)
(2.71597e-07 8.68464e-07 0)
(-3.83354e-06 1.2191e-05 0)
(1.25044e-06 3.0462e-05 0)
(-4.07917e-06 3.31071e-05 0)
(2.1529e-11 3.1775e-10 0)
(-8.68078e-06 0.000116573 0)
(1.00308e-05 0.000116596 0)
(3.22282e-06 4.37017e-06 0)
(1.36055e-06 1.94147e-05 0)
(-1.35591e-07 1.67376e-07 0)
(-4.71349e-06 4.60363e-05 0)
(-7.28732e-06 5.5808e-05 0)
(1.3234e-09 6.44207e-08 0)
(-3.64944e-06 1.34212e-05 0)
(7.78592e-06 2.01759e-05 0)
(9.04391e-11 1.96308e-09 0)
(-1.66612e-07 0.000129768 0)
(7.20437e-07 5.52838e-05 0)
(-8.10908e-08 1.22806e-07 0)
(6.00149e-07 5.12238e-06 0)
(-5.0063e-07 4.40268e-07 0)
(-8.00394e-10 7.86702e-09 0)
(3.89346e-06 1.03466e-05 0)
(-1.4108e-06 2.05655e-06 0)
(1.65668e-06 3.26836e-06 0)
(-2.6114e-06 0.000121458 0)
(2.70649e-06 3.14153e-06 0)
(1.8005e-06 8.30814e-06 0)
(9.81648e-07 2.43894e-06 0)
(1.59581e-05 0.00014716 0)
(-1.46645e-05 0.000147159 0)
(-2.33512e-06 1.22707e-05 0)
(9.68463e-12 4.90656e-10 0)
(-1.76122e-10 1.90828e-09 0)
(3.66064e-06 2.23929e-05 0)
(-4.49377e-06 3.77225e-05 0)
(5.83954e-06 3.77493e-05 0)
(-6.38266e-06 7.50217e-05 0)
(7.69786e-06 7.50782e-05 0)
(-5.0737e-07 4.27464e-07 0)
(-2.73064e-12 7.28426e-11 0)
(-4.47053e-07 9.25475e-05 0)
(-4.3818e-06 2.73532e-05 0)
(-9.50083e-08 4.05645e-06 0)
(-2.49815e-06 0.000109746 0)
(-7.88009e-07 1.75896e-05 0)
(9.46357e-07 3.0379e-05 0)
(1.99815e-12 5.84007e-11 0)
(-2.94081e-06 1.66813e-05 0)
(-1.35769e-06 1.15139e-05 0)
(4.13291e-06 5.51723e-06 0)
(3.09088e-06 1.66282e-05 0)
(-1.56211e-10 9.22504e-10 0)
(-1.01744e-06 1.24346e-06 0)
(3.33349e-07 8.16785e-06 0)
(6.10821e-06 4.09437e-05 0)
(-3.64186e-06 1.07631e-05 0)
(-2.73847e-06 1.66359e-05 0)
(-8.6219e-10 1.24809e-08 0)
(3.38224e-09 4.3193e-08 0)
(3.43419e-06 1.03939e-05 0)
(1.48676e-05 0.000110969 0)
(-1.3581e-05 0.000110964 0)
(1.92885e-06 1.36711e-06 0)
(-1.14788e-07 1.83407e-06 0)
(-2.21477e-07 5.20088e-06 0)
(8.6938e-06 5.07723e-05 0)
(-7.39878e-06 5.0771e-05 0)
(1.25463e-06 5.54688e-05 0)
(3.96466e-06 2.53241e-05 0)
(4.06701e-06 9.70339e-06 0)
(-7.32267e-07 1.77816e-06 0)
(4.13023e-09 4.66984e-08 0)
(-2.279e-06 6.76098e-06 0)
(6.42799e-07 5.20319e-07 0)
(-2.45712e-06 4.4284e-06 0)
(-2.46218e-07 9.82619e-05 0)
(1.29577e-09 1.94377e-08 0)
(-4.28845e-06 5.63001e-05 0)
(6.4957e-07 2.12686e-05 0)
(-5.33806e-07 4.76098e-07 0)
(-4.52927e-08 1.04592e-07 0)
(5.68502e-08 2.90074e-06 0)
(1.60244e-06 3.39819e-05 0)
(5.56918e-06 1.85746e-05 0)
(-6.74166e-07 2.69891e-06 0)
(2.36062e-07 1.90553e-06 0)
(-4.37803e-06 2.63461e-05 0)
(1.06847e-06 8.51168e-06 0)
(3.09974e-06 3.66358e-06 0)
(3.63385e-06 3.06613e-05 0)
(2.97483e-06 9.20702e-06 0)
(9.10797e-07 7.15174e-06 0)
(-9.14325e-06 0.00014053 0)
(2.91068e-07 7.25626e-07 0)
(6.64803e-07 2.0514e-05 0)
(3.0728e-06 5.49318e-06 0)
(1.3557e-06 3.22181e-06 0)
(-8.23387e-10 1.96187e-08 0)
(-3.0428e-06 6.09193e-06 0)
(4.62674e-08 3.42714e-09 0)
(-5.70554e-07 1.76756e-05 0)
(5.28697e-06 1.85696e-05 0)
(2.17395e-06 3.83279e-06 0)
(9.14615e-07 1.12143e-05 0)
(3.16949e-06 3.69154e-06 0)
(5.25279e-07 9.11432e-07 0)
(6.44172e-06 1.60579e-05 0)
(-1.77254e-08 8.24249e-08 0)
(4.62276e-06 9.00676e-06 0)
(-3.31185e-06 9.00641e-06 0)
(-5.99682e-11 2.28616e-09 0)
(-9.79317e-06 9.83826e-05 0)
(1.10737e-05 9.82659e-05 0)
(-7.84322e-08 1.31457e-07 0)
(-4.12035e-07 3.64907e-07 0)
(-6.2083e-07 2.16208e-05 0)
(9.13408e-07 5.52437e-07 0)
(-3.00145e-07 1.1296e-06 0)
(-4.94041e-06 3.68598e-05 0)
(8.10107e-10 1.49e-08 0)
(-9.86869e-07 8.25136e-06 0)
(1.44288e-09 6.4806e-08 0)
(5.97699e-12 3.48288e-10 0)
(2.54456e-06 3.30717e-06 0)
(1.60068e-07 1.72248e-06 0)
(-1.53055e-05 0.00016136 0)
(1.66006e-05 0.00016136 0)
(5.94421e-06 0.000149963 0)
(-8.15416e-06 6.98972e-05 0)
(-3.19476e-06 8.91262e-06 0)
(4.50595e-06 8.91312e-06 0)
(-1.39227e-06 3.00328e-06 0)
(-4.58326e-06 3.68282e-05 0)
(1.04243e-06 2.43287e-06 0)
(-3.58465e-06 1.67865e-05 0)
(6.62915e-06 5.58894e-05 0)
(-3.96086e-12 2.69218e-10 0)
(-4.55554e-07 1.57053e-06 0)
(5.79435e-06 1.31301e-05 0)
(-8.27562e-06 0.000117531 0)
(9.66111e-06 0.000117552 0)
(2.63111e-06 2.2012e-05 0)
(9.7995e-07 9.27979e-06 0)
(-1.71311e-06 0.000129744 0)
(-5.23809e-06 1.35806e-05 0)
(7.77602e-06 2.92421e-05 0)
(3.11386e-12 3.33143e-10 0)
(4.81053e-07 9.59911e-06 0)
(4.06251e-06 0.000106915 0)
(6.15409e-07 3.77102e-07 0)
(8.56245e-06 0.000124383 0)
(3.75155e-12 8.92422e-11 0)
(-1.41796e-06 2.09195e-06 0)
(-6.12886e-06 7.44061e-05 0)
(7.44331e-06 7.44589e-05 0)
(-1.14244e-06 5.37014e-06 0)
(1.53022e-06 1.63608e-06 0)
(-4.05765e-07 7.87648e-07 0)
(4.40269e-06 0.000160562 0)
(-7.02261e-07 2.65628e-06 0)
(9.39772e-07 2.08631e-06 0)
(1.91279e-06 3.28429e-06 0)
(-2.24526e-07 5.27626e-06 0)
(-4.26076e-08 9.99973e-08 0)
(2.82448e-06 4.57679e-06 0)
(-1.5366e-06 1.64408e-05 0)
(-4.04614e-08 2.59373e-06 0)
(8.26262e-07 4.02408e-06 0)
(8.1763e-06 0.000118824 0)
(-8.27091e-07 1.29081e-05 0)
(4.93044e-09 4.34243e-08 0)
(3.26656e-06 0.000101299 0)
(-4.30711e-07 3.67767e-07 0)
(1.27736e-06 2.17526e-06 0)
(2.78451e-10 1.03698e-08 0)
(-5.75141e-08 1.03603e-07 0)
(-9.40845e-07 1.57257e-06 0)
(1.64021e-06 3.21582e-06 0)
(5.4224e-07 5.2939e-05 0)
(3.40313e-06 3.54488e-06 0)
(3.10892e-09 3.66914e-08 0)
(7.44557e-06 2.93834e-05 0)
(-3.19203e-06 3.60301e-05 0)
(1.60513e-06 7.1867e-06 0)
(8.12819e-07 3.96164e-06 0)
(-4.26393e-06 5.20285e-05 0)
(9.24255e-06 0.000176835 0)
(6.85804e-06 3.33267e-05 0)
(1.43966e-06 1.88906e-06 0)
(-1.34843e-10 3.70491e-09 0)
(9.74863e-06 0.000205933 0)
(9.69843e-10 2.33107e-08 0)
(-4.38614e-10 2.86625e-09 0)
(1.52165e-07 1.32678e-06 0)
(-9.01608e-09 4.07493e-06 0)
(7.72784e-06 2.56355e-05 0)
(2.20543e-06 3.78674e-06 0)
(-1.15899e-10 1.36885e-09 0)
(-3.40063e-12 2.41434e-11 0)
(-1.0359e-05 8.18404e-05 0)
(1.18016e-05 8.1884e-05 0)
(5.31051e-06 2.68977e-05 0)
(-9.54396e-10 1.17281e-08 0)
(-7.71018e-07 8.61323e-07 0)
(-2.70642e-12 8.7911e-11 0)
(4.80918e-07 7.01003e-06 0)
(-1.04421e-06 4.93983e-06 0)
(-6.14891e-06 2.93981e-05 0)
(-8.97845e-06 9.82382e-05 0)
(1.02595e-05 9.81218e-05 0)
(2.35261e-06 2.55674e-06 0)
(3.98999e-06 2.37949e-05 0)
(-7.31797e-11 8.26758e-10 0)
(1.78971e-06 4.0055e-06 0)
(1.0877e-06 1.51253e-06 0)
(-3.93293e-06 3.72519e-05 0)
(-3.17378e-06 3.02768e-05 0)
(4.18775e-06 5.62249e-06 0)
(2.01418e-06 5.14313e-06 0)
(8.53408e-07 8.87365e-07 0)
(3.22033e-06 2.04849e-05 0)
(-2.05353e-06 3.97757e-06 0)
(6.10509e-06 6.86498e-05 0)
(5.91233e-06 4.14661e-05 0)
(1.4201e-05 0.000110219 0)
(-1.29144e-05 0.000110214 0)
(-1.22121e-08 8.31243e-08 0)
(6.55673e-06 1.35872e-05 0)
(-1.11792e-06 4.92777e-06 0)
(5.14431e-06 8.0551e-05 0)
(-4.90975e-10 3.96755e-09 0)
(-1.02477e-05 0.000108045 0)
(-1.88837e-10 1.66865e-09 0)
(7.27863e-06 6.37546e-05 0)
(-9.04436e-07 8.31043e-06 0)
(5.33848e-06 1.17203e-05 0)
(-6.5416e-12 2.63726e-10 0)
(3.92839e-07 0.000157224 0)
(-4.22262e-09 3.80259e-08 0)
(-3.56384e-07 9.54046e-06 0)
(-3.02645e-07 7.35358e-06 0)
(3.69546e-06 1.00631e-05 0)
(-2.21124e-06 3.83652e-06 0)
(-4.08589e-06 1.91649e-05 0)
(-7.43909e-06 3.36455e-05 0)
(-1.10294e-07 1.53966e-07 0)
(8.68821e-06 0.000119734 0)
(7.32852e-06 3.4012e-05 0)
(3.69874e-13 3.26228e-11 0)
(1.68239e-06 8.10179e-07 0)
(8.00645e-06 0.000139402 0)
(-6.27527e-09 4.11853e-08 0)
(-1.23668e-06 3.20022e-06 0)
(4.13863e-06 6.01492e-05 0)
(1.21008e-07 1.28505e-06 0)
(1.2505e-06 8.29269e-05 0)
(-1.01043e-06 1.99782e-06 0)
(-3.61324e-10 3.51461e-09 0)
(-3.77128e-07 4.14457e-07 0)
(3.23874e-10 7.29992e-09 0)
(1.06561e-06 9.39109e-06 0)
(-1.09481e-05 0.000179006 0)
(1.21654e-05 0.000178976 0)
(-2.10125e-06 1.63534e-05 0)
(-9.81106e-10 1.21491e-08 0)
(2.88257e-06 2.655e-06 0)
(-7.76768e-10 6.26162e-09 0)
(5.26058e-06 1.98594e-05 0)
(1.60341e-05 0.000256013 0)
(-1.47472e-05 0.000255999 0)
(-6.9372e-12 1.04713e-10 0)
(-5.39061e-09 7.55062e-08 0)
(2.95533e-06 2.53714e-06 0)
(-2.2583e-06 2.16776e-05 0)
(-1.40139e-06 2.94448e-06 0)
(1.64853e-07 1.67698e-06 0)
(5.80032e-06 0.000160464 0)
(-9.13048e-07 2.7417e-05 0)
(4.049e-11 5.08188e-10 0)
(6.89893e-07 3.2548e-05 0)
(1.30608e-05 0.000169454 0)
(-1.16772e-05 0.00016952 0)
(-7.33186e-12 4.56739e-10 0)
(7.55409e-11 1.91134e-09 0)
(3.99179e-06 2.72684e-05 0)
(-9.26732e-06 0.00017921 0)
(1.04894e-05 0.000179305 0)
(3.029e-06 6.29897e-06 0)
(2.29709e-07 4.57455e-06 0)
(-7.01124e-11 7.85966e-10 0)
(6.12952e-06 0.000171121 0)
(3.48125e-06 9.57876e-06 0)
(3.06045e-07 3.37714e-06 0)
(1.09228e-05 6.52735e-05 0)
(-9.62727e-06 6.52741e-05 0)
(-3.43426e-06 9.55345e-06 0)
(4.7496e-06 9.55106e-06 0)
(3.20926e-06 3.23429e-06 0)
(-8.81965e-13 5.21097e-12 0)
(6.16327e-11 1.34007e-08 0)
(5.78825e-07 1.1449e-05 0)
(2.18507e-06 2.21449e-05 0)
(-1.34282e-10 9.06525e-10 0)
(3.34412e-06 3.86569e-06 0)
(8.50884e-07 1.41468e-06 0)
(1.94939e-12 3.90381e-10 0)
(7.37055e-06 4.18636e-05 0)
(-1.23727e-05 0.000163774 0)
(1.36677e-05 0.000163774 0)
(-4.3895e-07 7.86239e-07 0)
(-1.60012e-06 1.99752e-05 0)
(3.37454e-06 9.59636e-06 0)
(9.01321e-06 0.000178183 0)
(6.46414e-07 8.56261e-06 0)
(-6.56386e-11 1.25186e-09 0)
(2.76695e-06 3.14529e-06 0)
(-1.54575e-11 9.34211e-10 0)
(-2.3433e-09 3.9732e-08 0)
(-3.58652e-06 3.58643e-05 0)
(-3.22697e-07 2.64228e-07 0)
(-4.79454e-07 9.61284e-06 0)
(-1.16361e-06 1.4993e-06 0)
(1.38909e-05 0.000170642 0)
(-1.25461e-05 0.000170679 0)
(3.08567e-06 0.000100453 0)
(6.77253e-06 0.000172588 0)
(-1.64895e-06 2.01907e-05 0)
(-2.09691e-07 2.01139e-07 0)
(1.74086e-06 4.03858e-06 0)
(-2.43324e-08 8.91481e-08 0)
(3.165e-06 2.06798e-05 0)
(-1.1605e-10 1.50793e-09 0)
(-2.05931e-06 4.64927e-06 0)
(-4.365e-06 1.92946e-05 0)
(-2.27811e-06 1.00644e-05 0)
(1.02869e-06 8.61441e-06 0)
(-8.45865e-07 1.31018e-05 0)
(1.20678e-06 1.87641e-06 0)
(-1.19568e-07 2.88931e-06 0)
(9.4312e-06 0.000124856 0)
(1.70045e-06 1.11954e-06 0)
(2.93904e-06 6.32585e-06 0)
(-3.01924e-06 7.46625e-06 0)
(3.86719e-06 2.40439e-05 0)
(3.98251e-07 1.98401e-06 0)
(1.96061e-06 7.64773e-06 0)
(-1.33492e-06 5.82742e-05 0)
(-3.34042e-07 2.69857e-07 0)
(6.91478e-06 3.37335e-05 0)
(6.94372e-06 1.54541e-05 0)
(-4.27142e-07 3.77729e-07 0)
(-6.42365e-06 0.0001306 0)
(7.76483e-06 0.000130571 0)
(2.87619e-09 4.33009e-08 0)
(-1.92854e-06 0.000152908 0)
(-7.07012e-07 4.17069e-06 0)
(2.59029e-11 8.68932e-10 0)
(4.04888e-06 1.04143e-05 0)
(-8.76981e-06 5.53456e-05 0)
(1.58075e-05 0.000196853 0)
(-1.45328e-05 0.000196871 0)
(-4.05037e-06 2.28798e-05 0)
(-1.41314e-12 3.91156e-10 0)
(2.46749e-07 7.17124e-06 0)
(-3.75285e-06 1.44066e-05 0)
(9.81601e-07 3.59184e-06 0)
(-4.81837e-06 4.64765e-05 0)
(-1.94046e-06 1.64704e-05 0)
(7.16334e-10 2.22457e-08 0)
(-4.31399e-11 3.50192e-10 0)
(9.10378e-07 1.19968e-05 0)
(6.37852e-06 7.03957e-05 0)
(1.7198e-06 8.35737e-05 0)
(-3.62233e-07 7.45861e-06 0)
(-1.51112e-11 9.0184e-10 0)
(-1.57472e-11 1.06303e-10 0)
(-3.57074e-06 1.43942e-05 0)
(-3.0467e-07 1.60641e-07 0)
(-9.66201e-06 0.000107342 0)
(9.69103e-07 3.72907e-07 0)
(1.79923e-06 3.35075e-06 0)
(-1.21372e-06 1.15428e-05 0)
(-1.53172e-10 1.0275e-09 0)
(-3.82002e-07 3.10798e-07 0)
(7.74611e-06 3.38718e-05 0)
(8.41316e-06 3.28966e-05 0)
(7.2328e-06 2.13858e-05 0)
(7.71394e-06 0.000124598 0)
(-3.79618e-06 0.000164197 0)
(4.60157e-06 6.06848e-05 0)
(1.20366e-06 4.58531e-06 0)
(1.54329e-06 7.28203e-06 0)
(6.49037e-06 1.63002e-05 0)
(-6.48103e-06 2.92548e-05 0)
(-2.41586e-06 7.18042e-06 0)
(-4.8486e-06 1.92019e-05 0)
(-1.16996e-12 2.99979e-11 0)
(1.04907e-09 2.38446e-08 0)
(2.35936e-07 1.19987e-06 0)
(-2.62983e-06 5.37439e-06 0)
(-2.58672e-09 7.07934e-08 0)
(-2.32339e-06 2.19021e-05 0)
(1.29308e-06 4.48502e-06 0)
(9.59795e-07 3.2402e-05 0)
(-6.51043e-11 1.19592e-09 0)
(-1.40306e-06 1.37893e-05 0)
(1.14863e-06 4.63051e-06 0)
(-1.16181e-06 2.48148e-05 0)
(-6.8534e-07 7.16578e-07 0)
(1.68861e-05 0.000172894 0)
(-1.55906e-05 0.000172894 0)
(8.3229e-06 0.000140879 0)
(1.20198e-05 5.96645e-05 0)
(-1.0724e-05 5.96663e-05 0)
(-3.57918e-06 1.35748e-05 0)
(-9.78653e-07 1.20455e-06 0)
(7.04045e-10 1.60451e-08 0)
(-2.2665e-06 9.08969e-06 0)
(6.51439e-06 1.40496e-05 0)
(-1.37214e-07 1.67619e-07 0)
(-5.86347e-10 4.22909e-09 0)
(-1.45501e-05 0.000155955 0)
(1.58453e-05 0.000155954 0)
(2.08584e-06 5.18229e-06 0)
(-1.17014e-06 6.91442e-06 0)
(6.0985e-07 5.20114e-06 0)
(3.58432e-06 9.09704e-06 0)
(2.89259e-06 1.96112e-05 0)
(3.54792e-09 4.19455e-08 0)
(1.56398e-06 1.25123e-06 0)
(-2.21175e-06 3.90302e-06 0)
(5.36183e-07 5.26064e-06 0)
(-5.42959e-07 4.15371e-06 0)
(1.08482e-05 6.58855e-05 0)
(-9.5546e-06 6.58772e-05 0)
(-3.535e-09 3.51993e-08 0)
(3.34541e-06 3.92388e-06 0)
(-5.10308e-12 5.28555e-11 0)
(3.02974e-06 3.80631e-06 0)
(-4.26669e-11 4.51448e-10 0)
(2.17599e-06 8.78298e-06 0)
(2.61927e-06 1.96194e-05 0)
(7.51189e-08 -5.25179e-08 0)
(-5.20858e-06 1.40444e-05 0)
(-5.95412e-11 1.0123e-09 0)
(7.70375e-07 4.18691e-07 0)
(-4.87924e-07 3.98075e-07 0)
(2.25574e-06 8.70824e-06 0)
(7.42617e-10 3.59194e-08 0)
(-5.97854e-06 0.000131381 0)
(7.29203e-06 0.000131377 0)
(-2.79502e-06 5.46652e-06 0)
(5.29696e-06 1.41101e-05 0)
(8.6963e-07 1.20786e-06 0)
(-2.42628e-06 4.35323e-05 0)
(3.44861e-06 4.21317e-06 0)
(-8.6044e-07 9.46094e-07 0)
(2.83824e-09 5.64316e-08 0)
(6.77725e-07 1.16214e-05 0)
(5.03128e-07 6.24268e-05 0)
(1.20375e-10 4.5174e-09 0)
(-3.59092e-08 1.07131e-07 0)
(-1.39188e-06 3.49682e-06 0)
(-1.1793e-05 0.000149072 0)
(1.3087e-05 0.000149072 0)
(-4.23291e-07 1.52957e-06 0)
(-2.5097e-12 2.43446e-11 0)
(5.23456e-06 0.000144431 0)
(-2.87601e-07 5.74498e-06 0)
(-2.1907e-06 1.43654e-05 0)
(-5.51261e-07 4.22447e-06 0)
(4.1177e-06 2.70319e-05 0)
(-3.66326e-07 3.18821e-07 0)
(-3.35702e-06 8.19422e-06 0)
(4.66721e-06 8.19674e-06 0)
(-1.17668e-06 3.1431e-06 0)
(-1.40737e-08 -5.96715e-09 0)
(1.29163e-09 2.96573e-08 0)
(-4.40872e-06 1.96048e-05 0)
(2.06245e-06 7.73146e-06 0)
(3.38165e-06 4.19521e-06 0)
(2.75946e-06 2.16854e-06 0)
(8.69506e-06 5.36995e-05 0)
(5.32762e-08 -3.45421e-08 0)
(-3.50493e-07 3.04873e-07 0)
(-1.11209e-06 9.53138e-06 0)
(-5.03393e-07 7.06055e-06 0)
(-3.52909e-06 3.54269e-05 0)
(-4.31033e-06 2.30979e-05 0)
(2.51207e-07 3.37633e-06 0)
(-4.29916e-07 3.17556e-07 0)
(2.76499e-07 0.000160818 0)
(-7.17455e-08 1.79704e-06 0)
(3.66243e-06 6.13128e-06 0)
(1.94747e-07 2.54062e-06 0)
(-6.70261e-08 1.14711e-07 0)
(-1.13159e-12 7.55639e-11 0)
(-6.7001e-07 2.3703e-06 0)
(-9.86267e-12 1.03199e-09 0)
(-2.19104e-06 9.94424e-06 0)
(-1.22616e-06 4.72012e-06 0)
(4.30779e-06 3.70049e-05 0)
(-4.09768e-08 1.00219e-07 0)
(-3.70996e-08 7.63473e-08 0)
(-1.56049e-05 0.000177521 0)
(1.69007e-05 0.00017752 0)
(-1.378e-06 2.01462e-06 0)
(-3.28575e-07 4.23984e-07 0)
(-6.49238e-12 2.58855e-11 0)
(3.23516e-10 1.72796e-08 0)
(1.23581e-05 6.95831e-05 0)
(-1.11178e-05 6.95897e-05 0)
(-4.5767e-06 8.02952e-05 0)
(8.73679e-11 4.53068e-09 0)
(2.31554e-06 7.87085e-06 0)
(-5.23975e-07 4.65201e-07 0)
(-3.11826e-06 6.16038e-06 0)
(2.81284e-06 9.64822e-06 0)
(-5.36373e-07 4.05494e-07 0)
(-1.63733e-06 1.35368e-05 0)
(1.21088e-07 -2.51335e-08 0)
(-1.60766e-07 1.14947e-07 0)
(-1.35813e-07 1.49945e-07 0)
(-1.00206e-06 1.30438e-06 0)
(2.90959e-07 8.30086e-07 0)
(1.81283e-06 3.446e-06 0)
(2.39762e-06 8.75667e-06 0)
(-7.00618e-12 9.6959e-11 0)
(-5.75058e-07 1.16847e-06 0)
(-1.0096e-06 1.24445e-06 0)
(-1.21961e-06 2.75358e-06 0)
(1.34255e-06 4.53527e-06 0)
(1.95037e-09 5.71177e-08 0)
(-9.32286e-06 5.52289e-05 0)
(1.3119e-08 3.71433e-05 0)
(4.35653e-06 0.000157345 0)
(-1.87978e-07 8.38169e-08 0)
(6.39002e-07 1.51324e-05 0)
(1.34781e-09 2.18906e-08 0)
(2.73674e-10 5.69238e-09 0)
(6.7743e-07 4.96591e-07 0)
(1.26313e-06 1.88189e-06 0)
(3.82434e-06 1.00739e-05 0)
(3.06415e-06 0.000103834 0)
(4.70377e-06 0.000212632 0)
(3.22778e-06 0.000240871 0)
(1.08877e-06 5.53079e-06 0)
(1.93941e-06 3.79659e-06 0)
(1.03852e-09 1.79807e-08 0)
(-8.04537e-07 8.59195e-07 0)
(3.39768e-06 3.61447e-06 0)
(2.42872e-06 7.91361e-06 0)
(-4.16336e-12 2.88164e-11 0)
(-8.74214e-08 1.84938e-05 0)
(1.05078e-06 5.4569e-06 0)
(-1.02654e-07 1.49426e-07 0)
(2.66162e-06 3.808e-05 0)
(3.23275e-06 5.21574e-05 0)
(3.22123e-07 9.52022e-06 0)
(6.35426e-06 1.6378e-05 0)
(1.74642e-06 3.32081e-06 0)
(-2.13367e-10 1.91868e-09 0)
(-2.34017e-06 1.44959e-05 0)
(-2.20535e-10 1.99334e-09 0)
(8.07796e-06 6.52457e-05 0)
(1.66619e-06 3.80284e-06 0)
(-1.6314e-06 2.46147e-05 0)
(2.72637e-06 5.84879e-05 0)
(8.16145e-11 2.77856e-09 0)
(-7.37879e-12 2.54169e-11 0)
(9.48798e-07 6.63437e-06 0)
(-8.13272e-10 6.84167e-08 0)
(1.59031e-06 3.11333e-06 0)
(-1.2394e-06 6.86231e-06 0)
(-1.78199e-06 7.34892e-06 0)
(-3.50372e-06 1.39737e-05 0)
(-1.12711e-05 0.000218273 0)
(1.26563e-05 0.000218284 0)
(2.35913e-06 3.47347e-06 0)
(4.12744e-09 3.79929e-08 0)
(-9.74462e-07 2.20863e-06 0)
(3.73045e-06 6.09171e-06 0)
(-5.75955e-09 7.58322e-08 0)
(2.70606e-06 9.65301e-06 0)
(-8.71184e-07 9.50611e-07 0)
(-4.44999e-07 3.09786e-07 0)
(-9.5374e-07 9.30737e-06 0)
(3.02922e-07 6.29846e-05 0)
(-1.58677e-10 3.66307e-09 0)
(-3.1833e-06 6.30414e-06 0)
(-5.36413e-06 5.47524e-05 0)
(-1.65424e-07 1.82288e-07 0)
(9.75961e-07 1.11888e-06 0)
(-2.79793e-06 9.07707e-06 0)
(1.22462e-07 -4.41336e-08 0)
(4.11018e-06 9.07723e-06 0)
(-3.24537e-12 2.0925e-11 0)
(-4.99236e-06 1.28597e-05 0)
(1.05014e-06 3.4753e-06 0)
(-6.00816e-06 0.000186033 0)
(7.77147e-06 2.89363e-05 0)
(9.32443e-07 4.47129e-06 0)
(-1.39012e-07 1.55413e-07 0)
(-4.55035e-06 0.000220023 0)
(-1.25759e-12 1.20446e-11 0)
(3.06228e-09 2.74474e-08 0)
(-2.32548e-07 1.9343e-07 0)
(1.20433e-07 3.14771e-06 0)
(1.34342e-06 6.50561e-06 0)
(-2.65604e-06 5.77084e-05 0)
(4.6286e-06 7.52418e-06 0)
(2.79244e-12 8.76815e-11 0)
(-7.05446e-06 7.74089e-05 0)
(-7.86783e-10 2.07832e-08 0)
(-1.18654e-06 7.03394e-06 0)
(4.46054e-07 2.05107e-05 0)
(5.48162e-06 2.18507e-05 0)
(8.9063e-06 6.12734e-05 0)
(-7.61046e-06 6.12752e-05 0)
(8.26316e-06 8.68792e-05 0)
(-6.95524e-06 8.68698e-05 0)
(-4.83111e-12 4.82139e-11 0)
(-2.55431e-06 0.000108803 0)
(3.62948e-11 4.95024e-10 0)
(5.07305e-06 0.000104419 0)
(-7.94706e-07 1.53152e-05 0)
(3.16386e-06 3.1006e-06 0)
(3.86358e-06 2.22914e-05 0)
(1.48807e-09 6.45281e-08 0)
(2.92753e-06 2.63322e-06 0)
(8.71447e-07 5.11071e-07 0)
(2.54512e-06 4.36848e-06 0)
(5.59897e-06 2.6202e-05 0)
(1.58876e-05 0.0001723 0)
(-1.45919e-05 0.0001723 0)
(1.05527e-06 3.42023e-06 0)
(1.07181e-11 2.64905e-10 0)
(2.2242e-11 4.3351e-10 0)
(9.65167e-08 -4.44455e-08 0)
(3.32135e-06 3.4785e-06 0)
(-9.50252e-06 5.91196e-05 0)
(1.07986e-05 5.9118e-05 0)
(-1.46966e-06 3.64407e-05 0)
(2.64423e-07 1.86344e-06 0)
(-5.14423e-07 5.0149e-07 0)
(1.24031e-05 7.01876e-05 0)
(-1.11098e-05 7.02056e-05 0)
(8.73479e-06 6.4369e-05 0)
(3.96847e-07 7.06694e-06 0)
(1.59358e-06 5.83843e-06 0)
(8.90986e-06 8.6691e-05 0)
(-7.60163e-06 8.66816e-05 0)
(-1.663e-06 6.67338e-05 0)
(3.21394e-13 3.20731e-11 0)
(9.6192e-07 1.16397e-06 0)
(1.08057e-06 1.22809e-06 0)
(-2.22009e-10 2.51002e-09 0)
(1.60754e-06 0.000163712 0)
(-1.89809e-06 4.68052e-06 0)
(3.56505e-06 4.98116e-05 0)
(-2.75283e-06 6.01614e-05 0)
(8.4194e-06 9.68376e-05 0)
(-7.12513e-06 9.6881e-05 0)
(-1.0068e-12 6.70861e-12 0)
(4.14586e-06 2.75512e-05 0)
(7.20146e-06 3.4463e-05 0)
(-8.96609e-07 1.53808e-06 0)
(-1.43559e-06 1.3581e-05 0)
(8.23408e-07 1.72544e-05 0)
(-4.12277e-11 4.0937e-10 0)
(5.62295e-06 1.31434e-05 0)
(-3.0731e-06 6.00998e-06 0)
(3.67151e-07 1.93905e-06 0)
(-1.82696e-10 1.99843e-09 0)
(-5.38969e-07 4.81924e-07 0)
(-8.44553e-07 2.28896e-06 0)
(-3.74493e-08 1.08929e-07 0)
(-2.83132e-06 7.68055e-05 0)
(1.16934e-06 1.18044e-06 0)
(-8.28369e-08 1.21486e-07 0)
(1.19796e-09 1.89627e-08 0)
(2.14511e-06 2.23805e-05 0)
(-2.36299e-06 6.73904e-06 0)
(-1.51315e-06 3.11378e-06 0)
(-2.74029e-11 5.19475e-10 0)
(1.45419e-06 1.84154e-06 0)
(-5.86801e-10 3.07957e-08 0)
(-1.43447e-06 3.06785e-06 0)
(1.97334e-06 3.85495e-06 0)
(3.94754e-06 0.000104787 0)
(-7.59361e-12 8.58802e-11 0)
(3.0677e-06 3.14607e-06 0)
(-1.49816e-05 0.000178598 0)
(1.62776e-05 0.000178597 0)
(2.3375e-10 7.49342e-09 0)
(-3.67519e-06 1.39712e-05 0)
(4.62031e-07 1.03723e-07 0)
(3.93777e-06 0.000211073 0)
(2.40667e-07 7.44166e-07 0)
(-3.87615e-09 3.74561e-08 0)
(-2.81994e-06 5.82718e-05 0)
(-1.01697e-09 1.47842e-08 0)
(-1.4972e-11 9.40377e-11 0)
(2.41685e-06 1.76179e-05 0)
(5.46838e-06 1.98378e-05 0)
(2.85129e-07 -7.45559e-09 0)
(2.45659e-06 1.52204e-05 0)
(-4.87851e-06 2.06543e-05 0)
(7.85815e-06 3.34579e-05 0)
(-4.94115e-07 6.18715e-07 0)
(-4.70893e-06 2.00088e-05 0)
(4.5964e-12 2.67758e-10 0)
(3.20069e-06 5.90001e-05 0)
(-6.63776e-07 1.50926e-05 0)
(-6.32225e-06 1.99702e-05 0)
(5.4637e-07 8.73017e-07 0)
(2.96429e-06 1.75993e-05 0)
(-6.29555e-08 2.89403e-06 0)
(1.14662e-10 2.78845e-09 0)
(-6.89289e-06 5.27155e-05 0)
(-1.82397e-06 4.68552e-06 0)
(1.7661e-06 3.46783e-06 0)
(4.62012e-07 2.01119e-06 0)
(5.61587e-06 1.63168e-05 0)
(8.00259e-06 3.26775e-05 0)
(-3.37783e-06 1.67574e-05 0)
(8.81769e-06 3.28058e-05 0)
(-1.41064e-08 7.84301e-08 0)
(-1.66533e-06 9.19932e-06 0)
(3.76343e-06 2.51302e-05 0)
(-8.31288e-11 5.05232e-10 0)
(-1.03712e-06 9.8655e-05 0)
(-4.11964e-08 5.2537e-08 0)
(8.64737e-06 6.49022e-05 0)
(5.44645e-06 2.20756e-05 0)
(6.24458e-07 1.53739e-05 0)
(1.25902e-11 2.76464e-10 0)
(-4.94496e-07 2.2899e-05 0)
(-3.29664e-06 3.24905e-05 0)
(6.70925e-06 4.08165e-05 0)
(-4.89297e-08 9.93391e-08 0)
(-3.20625e-06 7.00223e-06 0)
(-2.81441e-07 1.90648e-07 0)
(-4.88418e-06 5.43143e-05 0)
(-9.04816e-08 -1.74564e-08 0)
(-1.29991e-07 5.13403e-06 0)
(-3.24477e-06 3.7164e-05 0)
(-5.42385e-10 1.76968e-08 0)
(-8.1453e-07 5.85189e-05 0)
(-5.46399e-06 3.31669e-05 0)
(-9.69354e-07 1.21169e-06 0)
(-2.26396e-12 1.97309e-11 0)
(-2.17509e-06 5.1672e-06 0)
(-5.72031e-06 2.46892e-05 0)
(-4.79594e-07 6.33593e-07 0)
(1.22162e-09 2.44464e-08 0)
(-1.06631e-06 2.2598e-06 0)
(1.63233e-06 1.28883e-06 0)
(-1.30196e-05 9.43214e-05 0)
(1.43108e-05 9.43222e-05 0)
(2.73908e-06 1.41772e-05 0)
(1.73601e-06 1.15893e-05 0)
(8.84499e-07 6.85473e-06 0)
(9.93078e-07 7.29521e-06 0)