/*--------------------------------*- C++ -*----------------------------------*\
| =========                 |                                                 |
| \\      /  F ield         | OpenFOAM: The Open Source CFD Toolbox           |
|  \\    /   O peration     | Version:  v3.0+                                 |
|   \\  /    A nd           | Web:      www.OpenFOAM.com                      |
|    \\/     M anipulation  |                                                 |
\*---------------------------------------------------------------------------*/
FoamFile
{
    version     2.0;
    format      ascii;
    class       volScalarField;
    location    "2000";
    object      sigmaEq;
}
// * * * * * * * * * * * * * * * * * * * * * * * * * * * * * * * * * * * * * //

dimensions      [1 -1 -2 0 0 0 0];

internalField   nonuniform List<scalar> 
24076
(
4.27401e+07
595800
8973.17
8892.25
1.0158e+07
685593
612746
4.53879e+07
1163.71
3.88123e+07
2.63597e+07
3.76876e+07
2.19305e+07
8.41187e+06
4.63375e+07
4.20023e+06
2.47828e+07
2.51841e+07
3.76825e+06
6.08211e+06
4.56334e+07
2.38205e+07
866653
2.66997e+07
7.72294e+06
3.04744e+06
4.71831e+06
685988
4.87382e+06
9.15175e+06
7.96143e+06
173145
1.70687e+07
1.51412e+07
1.97717e+07
3.33228e+07
2.0999e+07
2.53338e+07
2.55337e+07
4.63267e+07
1.58992e+07
5.54333e+06
1.70395e+07
1.31848e+07
3.11558e+07
4.50176e+07
851483
1.16291e+07
5.01602e+06
3.33742e+07
23347.1
3.61634e+06
3222.09
749311
1140.67
1.89916e+07
8.9644e+06
4.75431e+07
3.98647e+06
2.22555e+07
4.51786e+07
532477
5.37512e+07
3.10986e+07
1.82276e+07
4.50924e+07
1.45751e+07
1.54371e+07
477438
1.35138e+07
4.11249e+06
1.24036e+06
3.39867e+07
146058
1.50055e+07
8.66128e+06
2.50341e+07
3.27596e+07
3.01244e+07
5.45347e+07
811482
1.10018e+07
1.36179e+07
6.34438e+06
1.04519e+07
3235.1
8.99758e+06
2.73263e+07
3.91413e+06
6.40393e+06
1.11622e+07
4.10319e+06
2.57006e+07
9.61121e+06
5.86749e+06
2.44381e+07
6.21984e+06
5.3054e+06
166639
1.52118e+07
1.28155e+07
1.94942e+07
6.74851e+06
3.09617e+07
9.09894e+06
1.72897e+07
48873.4
1.041e+06
3.9715e+07
1.55612e+07
4.48214e+06
8.69637e+06
2328.66
566677
7.00113e+06
22231.6
2.27957e+07
1.31488e+07
5.20644e+06
1.73142e+07
4.67675e+06
2.8382e+07
1.72497e+07
4.49499e+07
2.9526e+07
2.61213e+07
3.95922e+07
2.40438e+07
9.14477e+06
109470
2.8282e+07
1.64989e+07
1.29857e+07
892147
2.65065e+07
4.69794e+06
3.60294e+06
1.79579e+07
3.0544e+06
5.43135e+06
7.8228e+06
2366.8
4.19335e+06
4.70998e+06
1.32621e+07
7.89711e+06
1.16987e+07
1.63976e+07
3.17058e+06
52745.5
3.65764e+07
748.539
2.57739e+07
1.54052e+07
2.98383e+07
6.04184e+06
4.42806e+07
8.48436e+06
4.64178e+06
14014.1
7.03089e+06
1069.34
4.81451e+07
5.09266e+07
4.03527e+06
1.89172e+07
1.88925e+07
2.01902e+07
2.47474e+07
1.34313e+07
1.91657e+07
949612
5.12805e+06
1.35202e+07
2.98846e+07
2.9653e+07
2.86394e+07
2.82706e+07
4.29274e+07
4.05197e+07
5.21112e+07
354873
2.1469e+07
8.1898e+06
8.82503e+06
7.01846e+06
2.49029e+07
2.05872e+07
3.44778e+07
1.75663e+07
191775
2.66876e+07
1.15666e+07
2.43215e+07
1.55519e+07
4.37297e+07
716011
2.58296e+07
2.60238e+07
4.37635e+07
2.11389e+07
1.86832e+07
1.54945e+07
1.5549e+07
3.88508e+06
1.23541e+07
4.12763e+07
2.38163e+07
3.92844e+07
8.14036e+06
1.18978e+06
4.44014e+06
2.02447e+06
3.57752e+07
1176.05
4.77405e+06
4.58967e+06
4.58595e+07
3.12562e+06
3.22486e+06
4.88873e+06
5.02919e+07
5.26615e+07
2.13105e+07
4.3697e+07
26828.9
14765.6
2.77402e+07
26106.8
6.83893e+06
13642.1
2.58293e+07
27082.4
440905
7.58765e+06
1.11353e+07
1.69214e+07
1.58118e+07
1.76997e+07
4.16181e+07
4.13704e+07
1.10494e+07
1.82461e+07
1.80335e+07
3.38052e+07
3.37584e+07
2.34195e+07
4.61886e+07
4.61751e+07
2.42265e+07
1.8584e+07
7.31936e+06
6.70035e+06
4.45735e+07
3.31649e+07
3.33374e+07
395307
151098
1.95389e+06
5.98509e+06
1.57669e+07
5.42106e+07
3.01975e+07
103.151
2.64986e+07
9.83526e+06
4.19285e+07
5.38313e+06
2.44579e+07
6150.52
1.49992e+07
1.52096e+07
4.31007e+07
4.9842e+06
6.64959e+06
2.18203e+07
2.67236e+07
968510
3.65393e+07
4.69573e+07
38410.4
3.07455e+06
2.60546e+06
3.18765e+06
3.62384e+06
1.75098e+07
406149
3.33483e+07
5.79044e+07
2.16637e+07
6.29432e+06
4.09171e+07
1.42587e+07
1.24803e+07
1.73573e+07
1.73015e+07
2.84691e+07
10078.1
70914.3
1.85613e+07
2.23526e+07
2.25093e+07
1.77052e+07
1.76299e+07
1.62998e+07
1778.71
4.7911e+06
2.89216e+07
1.1045e+07
6.5238e+06
1.17463e+07
2.63673e+06
1008.26
2.82914e+07
2.0288e+07
5.20148e+07
1.81561e+07
354531
4.69605e+07
5.70814e+06
2.21808e+07
4.35441e+07
2.55051e+07
471323
752105
2.77414e+07
2.37407e+07
2.37312e+07
3.88107e+07
7.80614e+06
1.26517e+07
2.81794e+07
2.82785e+07
5.20747e+06
1.96547e+07
3.68932e+07
2.35259e+07
768234
3.80219e+07
1.6688e+07
5.53148e+07
3.71348e+06
363562
1.77784e+07
4.24262e+06
2.80117e+07
3.83376e+06
6.70478e+06
5.34131e+06
3.58125e+07
2.2003e+07
4.60163e+06
2.79162e+07
5.17416e+06
4.50957e+07
1.64413e+07
2.48892e+07
5.36511e+06
1.23863e+07
1.10007e+07
3.36375e+06
3.57307e+07
1.67631e+07
645023
5.28596e+07
1.34939e+07
9.90341e+06
3.20213e+07
2.89508e+07
4.36273e+06
4.71391e+07
1.31003e+07
4.49456e+07
2.21199e+06
4.40716e+07
4.40944e+07
53739.3
2.18473e+07
2.18187e+07
3.9003e+06
1.41865e+07
8.43964e+06
2.14711e+07
1.21617e+07
2.66186e+07
287539
1.96017e+07
910928
7106.41
3.79894e+07
5.28867e+06
1.60253e+07
1.61003e+07
6.9299e+06
2.48356e+07
4.37082e+07
4.36803e+07
4.17481e+07
2.26587e+07
1.5215e+07
3.32035e+07
1.99133e+07
6033.57
1.50953e+07
4.62685e+07
1.61259e+07
1.61675e+07
1.39452e+07
4.67705e+06
5.64982e+06
4.97476e+07
3.82897e+07
6928
4.65456e+06
6.29781e+06
1.73187e+07
1.28793e+07
1669.82
5.87643e+07
1.91272e+07
1.9079e+07
2.6998e+07
2.68531e+07
1.3624e+07
4.69957e+06
2.12815e+07
1.45432e+07
2.62825e+07
1.23742e+07
3.59329e+06
3.6369e+07
1.68857e+07
7.87236e+06
5.67088e+06
1.34216e+07
1.3957e+07
699702
5.48908e+06
1.51583e+07
1.95529e+07
205330
2.1936e+06
3.45603e+07
2.21209e+07
3.39681e+06
5.14859e+07
655688
3.65257e+07
1.80307e+07
1.17181e+07
6.61651e+06
1.80709e+07
7.79403e+06
3.04011e+07
2.50846e+07
90124.8
5.38637e+06
473518
561847
6.45659e+06
8.41582e+06
4.10952e+07
2.87159e+07
48195.8
1980.8
2.5569e+07
2.59115e+07
2.64886e+07
507211
2.95077e+07
2046.7
3.39304e+06
2.52724e+07
3.67075e+07
1.90734e+07
1.86738e+07
3.92033e+07
1.97612e+07
29922
2.12262e+07
2.03134e+07
2.05617e+07
2.12834e+07
5.18851e+07
2.10133e+07
1.75256e+07
1.6764e+07
5.14159e+07
1.58977e+07
2.32134e+07
2.55628e+07
2.55367e+07
1.82782e+06
4.97891e+07
2.78435e+07
1.12123e+07
218061
1.9771e+07
76120.7
1.90044e+07
1.85496e+07
4.48592e+07
6161.93
3.40359e+06
1.52967e+06
1.14707e+07
1.30309e+07
3.06399e+07
5.65187e+07
3.31865e+07
3.8394e+07
5.3039e+06
1.24921e+07
3.1317e+07
426.078
3.9535e+07
1.06676e+07
1.80218e+06
3.41308e+07
1.2451e+07
6.53428e+06
4.31307e+06
3.50728e+07
145460
1.28042e+07
141592
4.63978e+06
1.06136e+07
1.06247e+07
2.10972e+07
536606
4.95028e+07
495475
3.10257e+07
2.18561e+06
2.18875e+06
3059.59
1.19989e+06
5.28589e+07
2.01527e+07
4.08279e+07
4.30527e+06
6.99222e+06
9.52165e+06
9862.88
4.34561e+06
1.26793e+07
1.2613e+07
10147.8
37063
1.98154e+07
8.07865e+06
8.20731e+06
3.26858e+07
6.45925e+06
27692.5
6.78758e+06
3.04024e+07
2.45399e+06
2.99699e+07
2.99466e+07
4.40586e+07
4.40429e+07
5.0534e+07
534.784
288212
2.86428e+06
1.02577e+07
73223.2
4.81126e+07
1.47508e+07
7956.07
2.79095e+07
1.23044e+07
1.23456e+07
1.55488e+07
1.64579e+07
2.80767e+07
7.96179e+06
3.46424e+06
33054.8
4.33464e+07
20555.1
1.26218e+06
1.95667e+07
1.33541e+07
1.28175e+07
5.62661e+07
1.14903e+07
1.13751e+07
7.19684e+06
5.72844e+06
1.55604e+07
9.37127e+06
2.03059e+07
1.4071e+06
1.75354e+07
47633.5
4.50049e+07
3.52515e+07
2.96163e+07
5.69381e+06
1.34245e+07
1.9035e+07
1.0121e+07
1.42972e+07
3.72688e+07
3.05778e+07
4.59031e+07
2.06642e+07
5.01915e+06
1.61394e+07
7.61426e+06
1.39969e+07
3.03187e+07
4.89947e+07
2.42127e+07
9.76003e+06
9.77728e+06
777797
5.0427e+06
2.05657e+07
17545.5
3.51471e+07
3.1559e+07
1.09632e+07
1.09737e+07
2.9674e+07
8651.59
5.33529e+06
3.76965e+07
9.22275e+06
2.05206e+07
2.03396e+07
465345
18367.7
3.65113e+06
1.68932e+07
4.24607e+06
1.22103e+07
21001.7
8788.57
3.44089e+07
1.20434e+07
2.02992e+07
2.62368e+07
2.40688e+07
1.73405e+07
81204.4
1.64767e+07
3.51792e+07
3.83004e+07
4.27365e+07
1.0449e+07
5.97605e+06
1.20996e+07
1.08692e+07
1.24763e+07
4.50543e+07
3.84315e+07
3.98562e+07
3.94122e+07
123.878
470405
7.72481e+06
5.08491e+07
1.20008e+06
1.88604e+07
1.2912e+07
2.88378e+06
32960.3
1.82528e+07
9.95211e+06
1.05783e+07
2.51085e+07
1.38102e+07
1.3785e+07
9.76094e+06
3.4612e+07
3.4636e+07
3.77789e+07
4.16345e+07
317617
3.16799e+07
4.99897e+07
6.64605e+06
391777
1.70744e+07
1.71693e+07
2.20977e+07
2.37673e+07
2.38208e+06
3.15164e+07
1.67078e+07
723996
3.19981e+07
5.70926e+07
3.36775e+06
1.84372e+07
3.07521e+07
3.07089e+07
1.4546e+06
4.91407e+07
2069.37
4.28571e+07
16768.5
1.72826e+07
1.28104e+07
7.60003e+06
5.00891e+07
28226.3
1.94565e+07
1.72619e+07
1.75381e+07
802442
1.06201e+07
1.05343e+07
5.29155e+07
3.9817e+07
1.81406e+07
1.2376e+07
4.89079e+07
4.71675e+07
948630
3.42941e+06
4.61404e+06
87813.2
2.48094e+06
3.85782e+07
1.39241e+07
1.40702e+07
1.54071e+07
1203.27
6.9139e+06
1.29324e+07
2.43187e+07
1.82274e+07
1.86323e+07
2.04833e+07
4.77923e+07
4.78313e+07
3.37962e+07
4.62988e+06
607443
3.45799e+07
1.6821e+07
4.67373e+07
5.06434e+07
2.68559e+07
7.58998e+06
1.91909e+07
1.86552e+07
1.58902e+07
2.00736e+07
3.03981e+07
4.02353e+06
1.68336e+07
3.94239e+06
8.04163e+06
4.16284e+07
3.6747e+06
2.84399e+06
1643
2.21094e+07
23048.4
3.07251e+07
2.90942e+07
1.80925e+07
1.98563e+06
4.11339e+06
1.32432e+07
1.32815e+07
5.78572e+07
1.17484e+07
51.792
360480
3.30992e+07
3.32577e+07
1.2697e+07
93091.1
1.95786e+07
2.81989e+07
5.21247e+07
2.37584e+07
1.99188e+07
2.08393e+07
1.47366e+07
9.53145e+06
7.35438e+06
4.06686e+07
9.17146e+06
2.41139e+07
2.0426e+07
3113.27
2.01536e+07
4.59802e+07
3.65216e+07
1.22673e+07
993833
3.46497e+07
4.03202e+06
5.20267e+06
1.09012e+07
4.16652e+06
410512
109401
1.73925e+07
2.14943e+07
3.35295e+07
6.16033e+06
3.7502e+06
3.63756e+06
7.07688e+06
2.52014e+07
339983
4.45506e+07
5.26694e+07
2.19211e+07
2439.41
6.68129e+06
7.91288e+06
5.00345e+06
9.13978e+06
8.67453e+06
4.81185e+06
4.38417e+07
2.31696e+07
83406
2.50456e+07
90162.9
2.27825e+07
2.04576e+07
1.39538e+07
7.45096e+06
55845.4
59.8179
5.88388e+06
1.1127e+06
2.07837e+07
2.43093e+07
3.04874e+07
3.46524e+07
5.99524e+06
6.08579e+06
3.28805e+07
641961
3.24139e+07
4.35666e+07
1.23554e+06
2.11472e+07
4.4361e+07
1.63273e+07
1.79475e+07
3.26455e+06
93441.6
5.31014e+07
1.98025e+07
7.73688e+06
1.89412e+07
3.8789e+07
8.08581e+06
3.8699e+07
2480.94
5.07291e+07
1.13592e+07
6.25264e+06
3.78576e+07
6.66904e+06
6.10638e+06
3.98057e+06
825.608
491920
1.07245e+07
5.13931e+06
1.07308e+07
1.22514e+07
4.92946e+07
1640.85
1.9181e+07
639424
2.36843e+07
4.30106e+06
3.0401e+07
2.59963e+07
2.60645e+07
1.70702e+07
1.71831e+07
2055.79
7.36222e+06
9097.17
8.92359e+06
1.13546e+07
5.08015e+07
1.97889e+07
928237
5.09941e+07
2.22359e+07
3.25818e+07
2.88037e+07
1.42354e+07
1.42377e+07
1.09219e+07
5179.08
8295.59
7.58292e+06
5.19216e+07
3.10033e+07
3.09244e+07
9.26865e+06
4.15859e+06
1.68492e+07
3.31575e+07
3.34403e+07
2.40635e+07
4.59512e+06
1.4915e+07
2.01884e+07
2.02775e+07
8.78679e+06
406.888
2.00338e+07
2.21291e+07
90578.4
3.89232e+06
4.30661e+07
1.21313e+07
1.19528e+07
1.7029e+07
1.68995e+07
545.129
1.86612e+07
3.22345e+07
3.16696e+07
1.77602e+07
4.41937e+06
17128.1
4.26929e+07
5.19667e+07
5.61414e+06
73284.7
1.8867e+07
2.67707e+07
2.87418e+06
1.07481e+07
2.30875e+07
3.48543e+06
364245
1.03095e+07
4.05051e+07
4.39326e+07
14097.5
2.4225e+07
855683
4.09149e+07
2.42832e+07
6.59317e+06
3044.98
4.79846e+07
1.37748e+07
1.38217e+07
149128
3.75628e+07
1.63344e+07
4.13358e+06
8.70242e+06
1.43133e+06
1.10367e+07
606984
10676.7
1.34033e+07
3.36534e+07
1.32079e+07
1.36861e+07
3.74732e+07
3.41479e+07
1.62179e+07
3.60531e+07
5375.83
8.0108e+06
1.2124e+07
4.83825e+07
1.31523e+07
1.63453e+07
7.7861e+06
53217.6
2.65069e+07
3.98847e+07
2.28245e+07
5.2785e+06
3.79887e+07
3.6106e+07
3.00952e+07
4.1284e+07
2.02733e+06
2.52409e+07
1.92658e+07
59041.2
5.87652e+06
8.27568e+06
2.44648e+07
3.14031e+07
2.42088e+06
5162.74
8.17162e+06
2.02002e+07
2.66638e+07
1.94092e+06
4.9708e+07
1.16069e+07
1.92335e+07
7.21485e+06
1.14566e+07
1.87844e+07
499806
7.14382e+06
2.92626e+07
4.19053e+07
1227.84
4.4943e+07
3.70273e+07
1.65096e+07
481767
3.40931e+07
3.2566e+07
2.82061e+07
2.80927e+07
1.83402e+07
1.05653e+07
5.35842e+06
4.5263e+06
4.52136e+07
2.96854e+07
1.6594e+07
1.66277e+07
614282
1.64634e+07
5.79235e+06
73865.8
3.6016e+07
41262
3.82173e+06
11928.9
1.7623e+07
2.97389e+06
3.59003e+07
4.09472e+06
2.28424e+07
2.43664e+07
1.07505e+07
447709
17245.5
4.43043e+07
4.20498e+06
3.45739e+06
1.08532e+07
8.43809e+06
3.66266e+07
3.46878e+07
3.88434e+07
446355
4.45729e+06
9.4137e+06
1.08058e+07
4.33461e+06
1.19503e+07
8.94031e+06
1.22482e+07
3.16581e+06
5831.98
3.31961e+07
1.50316e+07
1.52088e+07
1.48481e+07
3.84743e+06
2.3784e+07
6.63832e+06
2.89735e+07
5.01229e+07
7.83709e+06
3669.99
5.31198e+06
2.72681e+06
3.6264e+07
4.16537e+07
1.59933e+07
3.04755e+07
2.5049e+07
2.29061e+07
46991.5
1.54915e+07
8.46283e+06
397353
194768
3.98295e+06
3.81395e+07
75805.4
6.81154e+06
3.80647e+07
2.77026e+07
5.32307e+06
1769.53
1.49318e+07
1.82347e+07
2.64758e+07
2.01917e+07
18297.5
2.49591e+07
1.09007e+07
1.48719e+07
7.11144e+06
2.67914e+07
3.35153e+07
2.66315e+07
3.62079e+07
1.45219e+07
47546.1
6.30476e+06
1300.93
9.89577e+06
1.27406e+07
3.49798e+06
3.73703e+07
4.89252e+07
2.26508e+07
4.71519e+07
692881
7.86052e+06
492488
2.95261e+07
3.79704e+07
1.92868e+07
9.45356e+06
9.70433e+06
3.07975e+07
6036.58
1.03129e+07
221195
1.43121e+07
1.28613e+07
5.6512e+06
3.14422e+06
7.39492e+06
4.73418e+06
1.84677e+07
1.71319e+07
3.16167e+07
3.15995e+07
1.6373e+07
1.63692e+07
7.81794e+06
1.44423e+07
16074.8
2.85306e+07
1.67165e+07
199610
53922
3.30862e+07
1.62014e+07
4207.29
1.0189e+07
1.04688e+07
1.96223e+07
5.02181e+07
1.22204e+07
1.65869e+07
2.76388e+07
1.99592e+07
2.93482e+07
2.48067e+07
11406.2
48665.5
1.78743e+07
7.79045e+06
4.16117e+07
4.37009e+07
53633.7
1.82257e+07
2.03218e+07
2.03966e+07
1.82698e+07
2.28806e+07
3.03842e+06
37461.2
7.77237e+06
3.16601e+07
449748
629333
2.09548e+07
4.60673e+06
2.90431e+07
2.90394e+07
31189.8
327043
3.71411e+06
3.59175e+07
1.03358e+07
2.19507e+07
4.21497e+07
2.84319e+07
883590
2.84033e+07
6.41779e+06
638366
73363
149045
1825.07
4.68284e+06
7.26761e+06
502909
1.22294e+06
2.62138e+07
8.25505e+06
8.27073e+06
1.56284e+07
4.56009e+06
2.55619e+07
4.66366e+06
4.37375e+07
4.37318e+07
3.04996e+07
4.43232e+06
1.74007e+07
2.16403e+07
3.99236e+07
2.47004e+06
2.38509e+06
3.50219e+06
3.83488e+07
1.51739e+07
2.89062e+07
8.5249e+06
8.24246e+06
2.29402e+07
3.58273e+07
2.20003e+07
3.49435e+07
1.16989e+07
1.15674e+07
2.47014e+07
4.44693e+06
1.83695e+07
6.71464e+06
1.65142e+07
552.284
5.37321e+06
3.95251e+07
10577.9
1.55568e+07
3.9608e+06
2.89066e+07
7.21624e+06
7.56983e+06
2.65252e+07
9012.7
2.81877e+07
3.96512e+07
2.70629e+07
7.19521e+06
40752.2
1.60014e+07
4.04418e+06
5.21229e+07
3.64595e+06
3.81465e+07
1.67859e+07
7.22764e+06
131822
1.56839e+06
1.57446e+06
3.02423e+07
7.08756e+06
1.15772e+07
3.00433e+07
3.14416e+07
3.22125e+07
3.01479e+07
2.78989e+07
14277.3
3.80378e+07
3.75574e+06
8.93882e+06
3.76413e+06
4.37493e+06
3.80952e+06
2353.54
5.29783e+06
1.51684e+06
1.76337e+06
1.87774e+07
4.36002e+07
22279.8
1143.18
2.38586e+06
407833
2.89076e+07
2.14077e+07
4.25172e+06
4.59161e+07
3.6228e+06
3.02888e+07
6.83888e+06
2.66358e+07
9.69014e+06
1.47478e+07
1.27775e+07
1.71775e+07
4.25985e+07
1.96805e+07
4.77833e+07
1.48497e+07
4.19216e+07
3.68171e+07
345485
3.66086e+07
8.58623e+06
1.51502e+07
7.67917e+06
1.60658e+07
4.0958e+06
2.8666e+07
2.22725e+07
77848.4
3.47553e+07
2.52707e+07
4.20477e+07
829.432
2.03355e+07
9.26021e+06
5.05293e+07
9.18111e+06
4.99253e+07
4.21728e+07
5.45605e+06
1.18756e+07
3.22808e+07
231855
1.32616e+07
2.08272e+06
502730
3.59099e+07
9.09566e+06
3.27993e+06
3.03684e+07
2.47574e+07
2.44781e+07
9.6786e+06
7.52043e+06
2.55312e+07
3.84891e+07
4.94957e+07
4.5786e+07
2.694e+07
4.94211e+07
182118
3.2597e+07
4.33099e+07
7.76223e+06
2.69527e+06
4.59627e+07
8.67355e+06
2.37625e+07
5.40432e+07
5.74805e+06
9.06252e+06
5.31669e+07
1.14346e+07
1.23954e+07
5.49544e+06
3.41154e+07
6.73259e+06
1.22403e+07
3.24902e+07
304100
7.90748e+06
1.01435e+07
1.01962e+07
1.10993e+07
2.48553e+07
2.78193e+07
3.65027e+06
8.56833e+06
3.98921e+07
2.82783e+07
455168
497747
3.2346e+06
967530
4.59744e+07
3.69099e+07
3.47934e+07
6.57611e+06
3.76902e+07
1.62831e+07
1.90096e+07
372958
2.97806e+07
2.23123e+07
1.39306e+07
4.52373e+07
1.02465e+07
4.52126e+07
1.31051e+07
3.62287e+06
4.21573e+07
1.90761e+07
1.2427e+07
1.85711e+07
1.70107e+07
2.57618e+07
1.20226e+07
16620.4
2.06359e+07
3.12917e+07
2.93541e+07
382.827
3.41832e+06
2760.15
1.50844e+07
1.83164e+07
149600
1.90812e+06
236719
1.22344e+06
3.54399e+07
3.5601e+07
3.1304e+07
4255.38
1.19067e+06
4.58757e+06
7.30485e+06
2.70816e+07
138204
6.98023e+06
397346
2.09607e+07
4.25031e+06
554.282
1.12019e+06
7.99158e+06
5.01748e+07
3.23462e+07
3.24827e+07
1.69358e+07
2.74557e+07
2.54564e+07
2.4537e+07
4.93168e+07
4.8419e+07
1.23412e+07
6.24041e+06
1.29682e+07
4.17939e+07
2.33276e+07
1.71686e+07
996366
5.14037e+07
8.96878e+06
2.14747e+07
1.79979e+07
7.57516e+06
4.54995e+06
7.21701e+06
2.47066e+07
3.23903e+07
4.13878e+07
1.47111e+07
2.81019e+06
5.34563e+07
4.81422e+06
1.24439e+07
6.33158e+06
2893.95
1.87415e+06
238.206
5.63768e+06
6.9678e+06
1.29562e+07
2.56439e+07
2.0483e+06
128685
4.16373e+07
1.1587e+07
1.87194e+06
709901
5.05438e+07
5.25281e+07
2.17755e+07
1.25812e+07
18305.4
6.67315e+06
1.42612e+06
5.10571e+07
2.67064e+07
2.28736e+07
3.09794e+07
723629
2.43557e+07
2.44484e+07
2.76069e+07
1.16231e+07
141259
1.4209e+07
437844
2.86576e+07
4.93879e+07
347971
3.57172e+07
2.88846e+07
3.70268e+07
2.3005e+07
2.9048e+07
2.44409e+07
1.41187e+07
2.47795e+07
3.11907e+07
3.12535e+07
1865.82
999109
984097
1.80073e+07
4.40301e+07
2.41174e+06
1.70271e+07
48709.7
3.2674e+07
794115
316897
491.73
21786.2
1.16917e+06
3.01495e+07
3.74939e+07
1.692e+07
2.38446e+07
3.51503e+07
1.30509e+07
5.84354e+06
3.07629e+07
2.68014e+07
4244.32
5.60235e+06
5.57602e+06
7.85691e+06
2.90088e+07
19508
2.78749e+06
4.21171e+07
11514.9
1.29428e+07
3.53457e+07
580074
6.5959e+06
1.89206e+07
1.24608e+06
8.90915e+06
50419.6
1.00022e+06
465696
2.3811e+07
1.05221e+07
445278
1.45727e+07
3.30974e+07
1.22478e+07
3.43177e+07
3.58681e+06
3.0249e+07
1.2216e+07
3.80487e+06
1.98036e+07
9.90117e+06
3.24914e+07
3.03965e+07
118278
4.69786e+06
7.80336e+06
7.82995e+06
2.79223e+07
3.0605e+07
9.87014e+06
4.36394e+07
2.13973e+07
333388
9.57973e+06
9.43182e+06
2.09121e+07
5.99472e+06
6.83879e+06
1074.81
6.31959e+06
2.7817e+07
2.77152e+07
1.74068e+07
5.00738e+07
3565.92
3.54184e+07
1.29253e+06
4.04376e+07
5.13675e+07
2571.27
59580.7
7.52242e+06
3.75011e+07
4.99528e+06
1.2432e+07
55768
2.91134e+07
5.47074e+07
2.44408e+07
8230.09
2.18767e+07
4.21879e+06
2.4461e+06
3.07698e+07
5.41865e+06
10749.9
8.78002e+06
1.78017e+07
4.66048e+06
5.61545e+06
2.69865e+07
4.30242e+07
2.15805e+07
1.84576e+07
3.51117e+07
3.20707e+07
1.31941e+07
2.16705e+07
5.30636e+06
1943.2
2.45926e+07
87567.7
2.32632e+07
2.32561e+07
1.97764e+07
3.86872e+06
4.37722e+07
2.5755e+07
2.5753e+07
2.61358e+07
4.76028e+06
37138.4
5.75787e+06
8.14409e+06
68777
1.73614e+07
2.87922e+06
47872.5
3.19524e+07
5.17856e+06
4.11244e+06
3.31332e+07
3.79894e+07
379772
5404.82
1.90502e+07
3.98164e+06
132177
7.51697e+06
10127
4.65303e+07
1.32487e+07
1439.88
5.86396e+06
5.8866e+06
1.75562e+07
4.23655e+07
2.28886e+07
3394.71
32800.9
4.48881e+07
5.27457e+07
2.93293e+07
1.17214e+06
2.1071e+07
5.09154e+07
3.08014e+07
5.47974e+07
6.13808e+06
3.05739e+07
1.25042e+07
25315.5
1.74633e+07
3.55382e+07
3.32474e+07
3.42836e+07
463303
6.35535e+06
3.14481e+07
708144
1.34361e+07
4.34821e+06
3.10509e+06
3.58083e+07
2.91064e+07
3.80422e+06
1.74511e+07
3.95609e+07
2.21162e+07
3.77475e+07
1.39408e+07
2.46472e+06
1.41648e+07
5630.2
2.68065e+07
256.979
1.74585e+07
3.40106e+07
2.59931e+07
6.84311e+06
4.59898e+07
1.31578e+07
1.5647e+07
1.18816e+07
2.95297e+07
5.14605e+07
1.06773e+07
5.57422e+07
2.59347e+07
2.60847e+07
1929.09
96168.9
5.29211e+07
30455.9
3.36268e+07
2611.18
2.76217e+06
3.03374e+07
24495.5
2.48994e+07
4.20707e+06
3.15254e+07
5.28814e+07
5.26109e+06
3.43271e+06
3977.72
4.53749e+06
7.1157e+06
2.36675e+07
2.37073e+07
8021.95
583149
22460.5
3.70506e+07
3.69781e+07
67239.9
4.4587e+06
3.25251e+07
4.28403e+07
1.66937e+07
429337
1.69101e+07
2.08784e+07
55787.6
3.26529e+07
4.50152e+07
2.9298e+06
1.9639e+07
354305
1.92663e+07
3.35216e+07
1.65442e+07
4.46759e+07
6.0169e+06
1.00094e+07
4.419e+07
4.3122e+07
4.13348e+07
9.12266e+06
2.33232e+07
3.54284e+07
652515
1.0113e+07
3.32774e+07
9.3038e+06
2.51181e+07
2.00103e+06
1.40004e+07
1.03714e+06
783977
5.44781e+07
1.72643e+07
12499.1
5.53617e+07
30472.3
4.59345e+06
5.06721e+06
4.89499e+07
3.00963e+07
1.21393e+07
1.25842e+07
705.564
2.40754e+07
1.08514e+07
3.56947e+07
1.07454e+07
2.64477e+07
14214.3
1.41744e+07
4.31375e+07
4.9167e+07
5.10835e+07
302447
2.36263e+07
1.91036e+07
2.83544e+06
5.39823e+06
1287.28
1.27089e+07
2.50138e+07
7.06139e+06
1.73502e+07
1.54096e+07
1.99465e+07
2.3047e+07
46384.1
2716.24
1.75853e+07
1.65328e+07
5.42582e+06
143289
93637.8
3.28663e+06
4.22693e+07
3.02659e+07
5.5751e+07
4.16804e+07
4.19055e+07
1.74036e+07
497533
1.21431e+07
39974.3
3.33008e+07
1.79332e+07
2.36341e+07
2.46635e+07
2.66525e+07
1.96396e+07
1.7622e+06
5.0589e+07
3.32614e+06
2.70724e+07
3.44528e+07
3.03056e+07
3.55642e+06
1.69353e+07
1.69644e+07
7.57678e+06
3.18734e+07
29421.7
1.23954e+06
780461
4.18372e+07
1.37809e+07
3.6782e+07
4.27382e+07
1.06163e+07
1.05003e+07
5.14932e+07
3.20996e+07
1.13025e+07
1.83601e+07
1.78704e+07
3.48011e+07
1.91774e+07
2.37517e+07
1.04667e+07
4.87801e+07
493.475
3.54732e+07
4.48877e+07
1.6989e+07
64701.3
135217
22574.1
6.25418e+06
5.07361e+07
2.12368e+07
4.49455e+07
1.47703e+07
3.34895e+07
5.84293e+06
6.02771e+06
3.88648e+06
5.70908e+06
2911.51
1.49448e+07
7.89551e+06
107831
2.1253e+06
1953.86
1.2985e+07
8.34737e+06
2.76426e+07
3876.87
3.68084e+07
3.68058e+07
3.83662e+06
3.71137e+07
1.79821e+07
3.53538e+07
3.57973e+07
2.52324e+07
2.50971e+07
204427
104971
3695.08
3.91267e+06
151125
9.99516e+06
2.82683e+07
4.6241e+07
1.89127e+06
1.09258e+07
330200
4.07174e+07
1.02123e+07
5.18606e+07
2.69623e+07
4.90185e+07
1.46337e+07
7.50372e+06
4.46865e+07
506790
2.8039e+07
5.81885e+06
4.48548e+07
1.23279e+07
5.12716e+06
3.34185e+06
3.69991e+07
1.72539e+07
3054.77
4.64896e+07
1.65012e+07
1.78035e+07
3.70095e+07
1.25591e+07
3.26086e+07
149122
6.10535e+06
1.41191e+07
1.42353e+06
2.56248e+07
6.81386e+06
3334.54
4.39342e+07
2.61122e+07
278207
540967
3.10642e+07
2.36081e+07
8.78299e+06
6.96067e+06
3.8324e+06
5.49801e+07
6.25103e+06
1.84485e+07
2.79549e+07
2.26712e+07
1.37619e+07
2280.59
4.27203e+07
3.33089e+06
9.15091e+06
2.55729e+07
3.12758e+07
5.81654e+06
5.3527e+07
343378
1.889e+07
2.2972e+07
375875
1.66768e+07
5214.78
1.50677e+07
4.35792e+07
599451
1.23952e+07
5.1014e+06
1.07292e+07
1.08997e+07
3.75055e+06
10112.1
3.89559e+06
2.2661e+06
3.49985e+07
6.63293e+06
6.96339e+06
3.37593e+07
658852
3.20016e+07
5.09074e+06
1.88521e+06
73124.7
4.7123e+07
2.83537e+07
4.49144e+07
1.2467e+07
2.51493e+06
9.11112e+06
7.20658e+06
1.12646e+07
1.51538e+07
1.12063e+07
471870
1.75471e+07
1.75939e+07
9.85331e+06
9.56513e+06
5.19521e+07
2.2196e+07
9.80785e+06
5.83305e+06
3.66099e+07
1.99138e+07
1.98926e+07
1.61887e+07
3.50687e+07
8.35072e+06
1.07773e+07
575405
71330.3
3.31075e+06
782055
1.74129e+07
2.894e+07
2.68163e+06
1.40683e+07
5.00877e+07
3.31495e+06
2.82969e+07
584523
1.05592e+07
1.79559e+07
3.33294e+07
3.07472e+07
3.02356e+07
330312
2.14126e+07
1.10929e+07
1.76023e+07
4.95167e+06
5.67089e+06
6.44291e+06
4.12672e+07
88476.4
4.8921e+07
363992
8.3552e+06
1.36978e+07
3.49758e+07
8.81086e+06
7.41164e+06
4.06474e+07
1.29898e+07
2.81723e+06
2.99542e+07
1.59137e+07
1.58354e+07
1.38056e+06
4.16328e+06
137788
2.96186e+07
1.1045e+06
1.71512e+07
1.71302e+07
4.02309e+06
1.38847e+07
3.95525e+07
3.0618e+07
2117.36
4.94513e+07
1.35424e+07
1.38373e+07
5.40917e+06
1.50656e+07
3.78071e+07
1.62803e+07
1.61887e+07
2.11858e+07
55558.6
7.13159e+06
3.41067e+06
319177
2.29119e+06
3.69151e+07
574573
2.49857e+07
9.56644e+06
3.08726e+06
3.88144e+07
1.76602e+07
56175.3
6.54181e+06
3.45956e+07
3.62579e+06
2.94098e+07
1.07494e+07
717896
2.5007e+07
6.52409e+06
1.87752e+07
1.07244e+07
1.31115e+07
4.26628e+06
4.73285e+07
4.96351e+07
57672.7
1.25031e+07
1.39021e+07
3525.02
2.57684e+07
1.46769e+07
2.74117e+07
1.95073e+07
1.9059e+07
34688.6
1.23282e+07
8.78888e+06
1.50834e+07
2.98279e+07
1.83547e+07
2.29344e+07
308651
3.38058e+07
5.35341e+07
2.81793e+07
1.0448e+07
5051.31
4.97645e+06
1.05443e+07
5.37356e+07
1.3609e+07
1.34161e+07
3.58713e+07
9.56322e+06
460088
1.09094e+06
3.85996e+07
3.22933e+07
1.37268e+07
5.51613e+07
7.15462e+06
77649.5
879052
3.0508e+07
808532
1.23186e+07
1.24672e+07
2.8389e+07
23919.6
73732.1
1.76593e+07
9.59166e+06
3.1215e+07
2.9651e+06
2.32236e+07
1349.34
1.0515e+07
1.49788e+07
2.26708e+07
5.73055e+07
3.92414e+07
4.88338e+07
1.03841e+07
1.57044e+07
2.20142e+07
4.87004e+07
1.60474e+07
9.53328e+06
2.48666e+07
1.35091e+07
1.57693e+07
2.85324e+07
2.84403e+07
5.27067e+07
3.1915e+07
3.84934e+06
595993
3.66531e+06
3.06833e+07
6.22512e+06
534074
6.29919e+06
204430
2.45455e+07
330279
7.57036e+06
5.43974e+07
1.26308e+07
379720
1.54335e+07
2.83637e+07
81251.9
4.30106e+07
1106.09
4.55467e+06
1.67202e+07
1.18286e+07
67142.8
1.21599e+07
78688.5
2.56178e+06
4.72031e+06
4.26659e+06
5.38117e+06
1.99553e+07
2.24342e+07
9.32049e+06
6.10478e+06
1.61825e+07
65710
3624.44
9.95504e+06
4.62631e+07
3.72235e+07
52972.1
8.85701e+06
4.14874e+07
32484.8
1.68909e+07
3.16671e+07
2.2645e+07
1.11442e+07
3.66641e+06
4.53333e+06
1.11968e+07
4.11649e+07
711423
405929
1.56118e+07
60177.1
2.76251e+06
23676.8
1.69022e+07
1.23221e+07
4.46064e+07
4.36696e+06
272.342
6764.64
1.91424e+07
1.45848e+07
1.80098e+07
2.07053e+07
2.91801e+07
30556.1
1.29979e+06
2631.93
3.44662e+07
3.05646e+07
6.38798e+06
9.25064e+06
1.73617e+07
5.4541e+07
567558
2.54207e+06
1.73856e+07
4.57892e+07
1.48487e+07
4.01264e+06
4.12735e+07
206.986
3.72523e+07
2.54728e+07
5.24213e+06
1.38765e+07
2.30862e+07
2.16306e+07
1.05487e+07
2.31155e+07
5.38709e+06
97452.3
3.27002e+07
136739
3.38934e+07
1.59815e+07
1.97721e+06
2.87243e+07
4.10904e+07
9.78305e+06
5.30496e+06
3.33048e+07
73175
3.14188e+06
10653.5
15353.3
279362
3.65132e+07
1.00736e+07
9.60965e+06
2.62007e+07
2.9916e+07
1.52141e+07
3.42864e+06
2.95371e+07
1.49627e+07
2.34624e+07
1218.8
11464.7
1.75002e+06
4.09972e+07
5.30317e+06
4.57385e+06
1.03344e+07
4.37892e+07
2.88597e+07
5078.21
4.05513e+07
1.65839e+07
2.79473e+06
2.02828e+07
4.25036e+07
4.55969e+06
97607.1
2.31636e+07
1.96083e+07
1.12127e+07
8.28953e+06
5.2573e+07
4.79735e+07
2.86712e+07
2.39259e+07
2.60233e+07
3.38478e+06
5.27377e+07
1.09769e+07
2.28172e+06
6.97886e+06
1.03505e+07
1.66203e+07
1.55334e+07
1.00442e+07
5.24742e+07
2.52461e+07
2.50771e+07
3.87179e+07
1.37255e+06
938533
2.99251e+07
1.601e+07
2.06267e+07
74480.8
28113.4
1.74481e+07
1.30522e+07
2.77807e+07
700377
80189
377994
1.26818e+07
1.11574e+07
4.58579e+07
1.53668e+07
2.14871e+07
10518
3.15153e+07
3.75952e+06
38290.4
4.55301e+07
1.27224e+06
5.4742e+07
2.07469e+07
1.00408e+07
4.47796e+07
851038
3.05392e+07
3.06758e+07
3.58878e+06
3.76465e+07
2.26257e+07
3.94691e+07
3.17263e+07
2.74697e+07
2.75193e+07
3.19981e+07
3.18531e+07
5.7207e+07
1.45976e+07
1.47349e+07
4.83136e+07
3.49357e+07
3.49909e+07
4.83206e+07
419280
136989
3.43352e+07
4.7728e+06
2.93014e+07
2.92971e+07
5.15362e+07
3.76559e+06
1.58292e+07
2.21826e+07
1.35392e+07
6.65112e+06
1.09972e+07
10259.9
5.4347e+06
1.66271e+07
1.09217e+07
2.3761e+06
1.50705e+07
3.61498e+07
4.96458e+07
1.93948e+07
2.2984e+07
1.17295e+07
4.9621e+07
4.95424e+07
1.41749e+06
2.82034e+07
1.94871e+07
1.15256e+07
2.46184e+07
2.26591e+07
7.56536e+06
2.48902e+06
13591.4
5.07436e+07
2.60405e+07
4.11547e+07
3.59667e+07
2.40079e+07
2.38097e+07
8696.21
2184.88
2.37687e+07
1.93883e+07
2.54376e+07
3.46705e+07
30344.4
5.09345e+07
1.69736e+07
4.20259e+06
1.60054e+07
9.06743e+06
1.25173e+07
4.63035e+07
2.49183e+07
3.02962e+07
3.63695e+07
2.60911e+07
2.89728e+06
9.64764e+06
3.38583e+07
3.54638e+06
9.86104e+06
1.10129e+07
4.73518e+07
24891
368651
3.45648e+07
4.36663e+06
1.72809e+07
2.71956e+07
36252.7
5.5462e+06
5.26347e+07
3.73009e+07
1.15818e+07
8.13828e+06
1.58256e+07
2.07024e+06
2.80818e+06
2.04556e+07
4.69914e+07
4.67343e+06
5.38192e+07
5.3862e+07
132932
14251.6
10924.2
1.74821e+07
4.79251e+07
1.26589e+06
8.50876e+06
8.27394e+06
1.67925e+07
1.03125e+07
7.36932e+06
607017
1.86257e+07
402105
1.51872e+07
1.52789e+07
1.81291e+07
2.95082e+07
4.69985e+06
3.31468e+07
3.19556e+06
2.98588e+06
2.77347e+07
1.60376e+07
1.8572e+07
3.29534e+07
7.93705e+06
1.80318e+07
1.52975e+07
1.41308e+07
83011.3
4.86933e+07
143776
663220
3.76476e+07
5.33623e+07
214001
2.19465e+07
2.29922e+07
1.64121e+07
5.92415e+06
12282.1
598142
33248.3
1.92749e+07
1.05614e+06
1.06559e+07
1.32034e+07
5.44881e+06
2.80864e+07
77459.2
3.25673e+07
2.29103e+07
3.86832e+07
3.85901e+07
4.65261e+06
3.38432e+07
4.4812e+07
3.22462e+07
1.06876e+07
1.3101e+07
14772.5
3.34761e+07
2.79348e+07
1.08765e+07
1.85779e+07
3.59122e+07
3.36939e+07
4.97679e+07
1.69129e+07
4.53182e+07
2818.37
1.18114e+07
2.18216e+07
6086.35
204375
2.18453e+07
495575
14553.4
6.40187e+06
9.77673e+06
6.14503e+06
3.55101e+07
1.47301e+07
7.08198e+06
512895
2.49208e+07
3.37969e+07
2.22471e+07
3.11688e+07
4.01416e+07
4.42499e+06
9.46196e+06
8.71174e+06
1.64245e+07
9.48699e+06
8.75891e+06
1.35497e+07
1.70225e+07
1.71079e+07
3.14174e+07
8.31319e+06
4.70801e+07
5.5613e+07
7.76723e+06
2.5563e+07
2.17136e+07
1540.61
3.55239e+06
5.18423e+06
3.94139e+06
6.7397e+06
1.73241e+06
252451
1.64321e+07
1.02997e+06
5.97306e+06
6.18604e+07
358269
1.16691e+07
2.96856e+07
719453
604235
2139.38
385768
4.38607e+07
4.6678e+06
27254.7
6.14893e+06
5.02184e+06
918644
3.64027e+07
3.06485e+07
1.87197e+07
1.88039e+07
3.28072e+07
3.28687e+07
9.45394e+06
4.23117e+07
1.67641e+07
3.82649e+07
9.47542e+06
2.01162e+07
1.44019e+07