/*--------------------------------*- C++ -*----------------------------------*\
| =========                 |                                                 |
| \\      /  F ield         | OpenFOAM: The Open Source CFD Toolbox           |
|  \\    /   O peration     | Version:  v3.0+                                 |
|   \\  /    A nd           | Web:      www.OpenFOAM.com                      |
|    \\/     M anipulation  |                                                 |
\*---------------------------------------------------------------------------*/
FoamFile
{
    version     2.0;
    format      ascii;
    class       volSymmTensorField;
    location    "2000";
    object      sigma;
}
// * * * * * * * * * * * * * * * * * * * * * * * * * * * * * * * * * * * * * //

dimensions      [1 -1 -2 0 0 0 0];

internalField   nonuniform List<symmTensor> 
24076
(
(-4.69473e+07 1.37663e+06 -3.03094e-12 434433 8.82447e-14 -1.15408e+07)
(-4637.86 -55768 2.66454e-15 647939 -4.66819e-15 159616)
(-122.434 -1215.94 -3.73572e-17 9567.59 9.59762e-17 2343.53)
(215.583 -914.974 -1.0937e-17 9882.77 7.54578e-17 2505.61)
(-6.89315e+06 2.44847e+06 1.63385e-12 3.7253e+06 -5.99017e-13 -786007)
(-2277.91 -43057 7.84271e-16 753721 2.77504e-14 186448)
(4710.25 -64632.4 -3.08365e-17 671922 -8.8159e-15 167886)
(-5.00739e+07 798051 -3.84902e-12 268651 9.74212e-13 -1.23577e+07)
(162.174 -597.314 -7.77911e-19 721.167 3.14453e-17 219.175)
(-4.29649e+07 -955986 3.24801e-12 34686.1 -7.59559e-12 -1.06519e+07)
(3.35893e+07 -5.17714e+06 -6.67382e-13 7.59385e+06 1.26593e-12 1.02184e+07)
(-4.17696e+07 -905415 -1.29393e-12 -22897.9 3.82858e-12 -1.03696e+07)
(-2.06112e+07 5.60384e+06 -1.28757e-12 1.39844e+06 -1.20412e-12 -4.76707e+06)
(-4.35526e+06 2.76139e+06 -1.74807e-12 3.63228e+06 -4.43021e-13 -179386)
(-5.15765e+07 -767011 6.36594e-13 -261651 -5.59659e-12 -1.28621e+07)
(-3.91195e+06 -1.41595e+06 -3.65153e-12 -156611 -9.17389e-12 -1.00949e+06)
(2.74429e+07 -775611 4.9609e-12 6192.62 -2.05172e-11 6.81069e+06)
(-2.78505e+07 -967833 -6.19218e-12 12631 1.63736e-11 -6.90714e+06)
(-234825 -2.16226e+06 -6.70998e-12 246311 3.77576e-12 2849.94)
(-5.10943e+06 -2.34645e+06 -1.2106e-11 -109934 1.09618e-11 -1.29503e+06)
(-5.08053e+07 -30508.1 3.29305e-13 -247810 -1.70154e-12 -1.26673e+07)
(2.92217e+07 -2.72505e+06 8.09104e-13 4.05901e+06 -2.09318e-12 8.25762e+06)
(-4388.35 -41687.7 1.11293e-15 953860 -9.17917e-17 235583)
(3.41014e+07 -4.713e+06 1.18844e-12 7.33577e+06 -2.68978e-13 1.02814e+07)
(1.20766e+06 4.3878e+06 1.99071e-13 2.39712e+06 -2.12304e-13 894420)
(1.96557e+06 -1.48677e+06 -5.60613e-12 191618 3.42495e-12 535242)
(1.44146e+06 -2.35781e+06 -2.00328e-14 3.72018e+06 1.20444e-14 1.28071e+06)
(3472.55 -52497.6 -1.32555e-15 756811 6.8648e-15 188642)
(3.67538e+06 -1.97971e+06 -6.7273e-12 -193690 -5.91513e-13 863878)
(2.90824e+06 5.22095e+06 -3.91305e-12 2.48179e+06 -1.19918e-12 1.33738e+06)
(8.0662e+06 -1.64631e+06 2.72852e-12 -207021 4.83704e-12 1.95002e+06)
(8574.89 -45852 -7.74372e-16 177765 -2.38587e-15 46234.7)
(-1.86243e+07 -1.54655e+06 1.07732e-11 78463.5 1.37393e-12 -4.6016e+06)
(-1.50828e+07 -438060 1.6141e-12 1.95629e+06 -4.58516e-12 -3.25696e+06)
(-2.16429e+07 -2.11138e+06 9.08285e-12 -117517 -1.07952e-12 -5.3992e+06)
(-3.68128e+07 -1.6336e+06 5.30468e-12 842.403 1.90799e-12 -9.13378e+06)
(-2.01632e+07 5.19391e+06 -2.5508e-12 1.02783e+06 -8.61922e-13 -4.74788e+06)
(2.8208e+07 15343.7 5.40564e-12 141097 -1.17836e-11 7.03398e+06)
(-2.84286e+07 -67268 -1.14322e-12 -140207 2.47602e-11 -7.0885e+06)
(-5.15161e+07 11681.6 -1.49131e-12 -179030 -1.7653e-13 -1.28266e+07)
(1.56783e+07 -5.67921e+06 4.07233e-13 2.22804e+06 -4.35763e-13 4.44292e+06)
(5.40209e+06 -1.69068e+06 -9.25235e-12 218943 -1.90671e-12 1.39469e+06)
(-1.53544e+07 4.12954e+06 -5.43247e-12 2.08155e+06 -2.06316e-12 -3.29326e+06)
(-1.29958e+07 -635085 -2.56576e-12 1.82346e+06 -1.40946e-12 -2.7721e+06)
(-3.4487e+07 -845632 2.79883e-12 22431 2.3687e-12 -8.55137e+06)
(4.98814e+07 -995404 -4.64586e-12 5207.47 5.86951e-13 1.23779e+07)
(37232.4 -266595 2.08241e-15 824383 5.68485e-15 213784)
(-1.23927e+07 -1.87775e+06 3.11888e-14 -15828.3 2.67005e-12 -3.07881e+06)
(1.93482e+06 -2.60239e+06 5.34863e-14 3.84141e+06 -3.11786e-14 1.4332e+06)
(3.6805e+07 -1.69683e+06 8.28609e-12 -65277.2 2.54686e-12 9.11588e+06)
(382.925 -1554.4 -2.55679e-16 26035.9 -6.80143e-16 6555.05)
(372652 -1.12962e+06 5.62324e-14 3.6807e+06 -8.74645e-14 1.00572e+06)
(720.756 -1831.7 9.73979e-18 1097.88 -1.23844e-16 451.241)
(3023.26 -70875.7 3.58439e-15 822128 8.48699e-15 204737)
(118.432 -580.726 -1.87199e-18 693.033 -3.29202e-17 201.341)
(-2.10349e+07 -1.32956e+06 0 -157967 0 -5.25838e+06)
(-7.68424e+06 193743 5.81197e-13 2.55141e+06 7.32605e-13 -1.27356e+06)
(-5.2674e+07 -261774 4.15797e-12 44184.7 3.53117e-12 -1.30585e+07)
(-172061 -2.29978e+06 1.12795e-11 3707.03 4.9037e-12 -41772.1)
(-2.45605e+07 -1.8169e+06 3.34696e-12 -157196 8.5148e-12 -6.13297e+06)
(4.99962e+07 -27233.7 1.41296e-11 -113552 -1.93924e-11 1.23769e+07)
(44295 -257385 1.01919e-15 359367 1.20918e-14 100157)
(5.95458e+07 -217048 -2.03711e-13 -58949.1 7.40449e-12 1.47599e+07)
(3.44797e+07 -799215 -2.01456e-13 39139.2 -4.77011e-12 8.56481e+06)
(2.51593e+07 -2.06483e+06 -2.47366e-12 6.72107e+06 -2.02572e-12 7.91016e+06)
(-4.98377e+07 -647683 5.86708e-12 169755 6.83668e-12 -1.23236e+07)
(-1.38501e+07 745361 -3.48235e-12 2.5907e+06 -1.89093e-12 -2.79369e+06)
(2.21779e+07 -1.61034e+06 -1.65855e-13 6.80572e+06 1.00018e-12 7.19143e+06)
(3972.76 -92740.1 1.99711e-15 501852 -1.02143e-15 125505)
(-1.28923e+07 421210 1.74674e-12 2.38675e+06 -3.48241e-13 -2.60665e+06)
(-247584 -2.37059e+06 -2.39082e-11 10568.2 -6.73172e-14 -58808.5)
(38279.8 -145091 -1.01407e-14 1.37888e+06 1.79021e-14 351627)
(3.75363e+07 -974847 -1.64477e-12 -118686 -8.11113e-13 9.28406e+06)
(26664.6 -76571.2 -7.40011e-17 88819.5 -1.11765e-14 28654)
(1.45292e+07 -5.6388e+06 6.88111e-13 2.32213e+06 -6.86325e-13 4.18116e+06)
(-8.94629e+06 -1.46392e+06 -1.53006e-11 278462 6.19882e-12 -2.15066e+06)
(3.04674e+07 -3.73102e+06 1.96993e-12 4.45251e+06 -1.44851e-12 8.66435e+06)
(3.62282e+07 -1.30231e+06 -2.44164e-11 -9499.96 1.4195e-11 8.9866e+06)
(-3.2735e+07 293471 0 779820 0 -7.92874e+06)
(6.03639e+07 -454339 -1.85405e-12 -113173 5.00349e-12 1.49494e+07)
(13605 -247559 -1.33363e-15 775322 -2.01386e-14 195749)
(-1.18713e+07 -1.53752e+06 -4.57833e-12 -42404.9 -7.79124e-13 -2.95604e+06)
(1.62368e+07 -2.32453e+06 -3.09556e-12 2.20549e+06 1.57063e-12 4.57591e+06)
(9.0612e+06 2.11865e+06 0 4.59637e+06 0 3.38872e+06)
(5.70081e+06 -5.79333e+06 7.02766e-14 5.89235e+06 -5.8993e-15 2.8765e+06)
(885.298 -1833.08 6.59706e-18 1245.47 -6.40678e-17 528.687)
(-9.39658e+06 -1.63892e+06 4.96798e-12 82854.1 -6.3378e-13 -2.31092e+06)
(3.00209e+07 -1.54426e+06 -8.60233e-12 -156085 1.09679e-11 7.41007e+06)
(69981.3 -2.25972e+06 -1.35292e-11 43170.7 9.21291e-12 28075.3)
(-6.06692e+06 -1.90915e+06 2.69413e-11 16159.8 -6.59545e-12 -1.50132e+06)
(-1.1296e+07 -2.47692e+06 5.47109e-12 153106 -4.59782e-12 -2.76478e+06)
(-191308 -2.36455e+06 -1.06521e-11 97017 1.65976e-11 -23395.4)
(2.88339e+07 -1.85706e+06 2.57129e-12 668876 -2.49269e-12 7.32024e+06)
(-8.35405e+06 -563977 4.50714e-12 2.55705e+06 2.99383e-12 -1.43835e+06)
(8.47576e+06 2.17121e+06 1.61125e-12 5.08643e+06 1.53335e-12 3.36505e+06)
(2.73941e+07 -8.46138e+06 -6.65195e-13 7.17458e+06 9.31526e-13 8.57718e+06)
(4.4766e+06 -2.64606e+06 2.34684e-12 -218235 -1.27762e-11 1.05659e+06)
(-4.04389e+06 -2.20233e+06 0 52570.1 0 -990328)
(4000.13 -49507.5 9.3638e-17 161784 1.76137e-15 41134.5)
(-1.36978e+07 2.42508e+06 1.44483e-12 2.88903e+06 1.96718e-12 -2.68188e+06)
(1.5357e+07 -2.06492e+06 6.50088e-12 2.08313e+06 2.31445e-12 4.32726e+06)
(2.59083e+07 -2.99552e+06 -1.46347e-12 6.3425e+06 2.96912e-13 8.00209e+06)
(6.29917e+06 -2.15204e+06 7.95356e-12 73165.4 -1.33072e-11 1.5811e+06)
(-3.3453e+07 199634 1.35307e-12 1.03003e+06 1.7477e-12 -8.0448e+06)
(9.16509e+06 -2.2135e+06 2.86312e-12 18799.9 7.67317e-12 2.27871e+06)
(1.49445e+07 -8.50523e+06 2.90227e-13 6.57482e+06 -4.76265e-13 5.33939e+06)
(6886.01 -23238.4 1.01909e-17 36327 -2.46137e-15 10722)
(-3209.14 -52530.1 1.11614e-15 1.14709e+06 -6.5177e-15 283819)
(4.46218e+07 -2.85333e+06 -4.57718e-12 1.10641e+06 -1.0237e-12 1.13461e+07)
(1.67142e+07 -2.33188e+06 -1.0367e-11 61471.9 1.19145e-12 4.16238e+06)
(3.93293e+06 -1.58527e+06 7.49417e-12 5927.95 -1.82365e-12 977310)
(-8.79652e+06 -1.75657e+06 8.41323e-12 278500 -1.02559e-11 -2.11349e+06)
(102.361 -798.049 -1.6026e-17 2163.51 1.42239e-17 562.209)
(69275 -274431 4.48149e-16 398521 6.26283e-15 116070)
(-7.32942e+06 -1.28967e+06 -6.74114e-12 32468.6 2.05538e-11 -1.81052e+06)
(-213.561 -2347.82 -2.62071e-16 24053 -1.03696e-15 5915.05)
(3.00223e+07 -3.92122e+06 1.15337e-12 7.37123e+06 -6.11853e-13 9.27809e+06)
(1.41526e+07 -1.36063e+06 -4.28374e-12 -224697 -5.89815e-13 3.4558e+06)
(-4.76638e+06 -1.72349e+06 -2.43295e-12 -43687 -2.9168e-11 -1.19348e+06)
(1.87553e+07 -1.92321e+06 4.6649e-12 -98594.8 4.44603e-12 4.6291e+06)
(2.96211e+06 -2.14773e+06 1.58104e-12 -211487 4.25616e-12 682485)
(3.14378e+07 -786093 3.18511e-12 6268.74 1.41226e-12 7.80192e+06)
(1.29014e+07 -9.20724e+06 -2.76934e-13 8.59297e+06 3.9242e-13 5.33318e+06)
(-4.9329e+07 1.10148e+06 -1.44418e-12 549460 -7.88505e-13 -1.21032e+07)
(-3.24654e+07 -1.66486e+06 0 136488 0 -8.02147e+06)
(2.86844e+07 -862235 2.62931e-12 -272576 4.1178e-14 7.04955e+06)
(4.45055e+07 -1.7408e+06 1.21573e-12 873708 1.46625e-12 1.12595e+07)
(-2.65263e+07 -1.00423e+06 -2.65294e-12 74182.9 2.54532e-12 -6.5633e+06)
(9.75427e+06 -1.472e+06 2.89638e-13 20123.2 1.07518e-13 2.42522e+06)
(553.935 -11526.3 4.8818e-17 119807 -9.64452e-16 29864.1)
(3.11262e+07 -1.68243e+06 -3.97678e-12 -76705.1 -6.04905e-13 7.70402e+06)
(1.82185e+07 -1.43057e+06 5.592e-12 157375 1.57591e-11 4.55942e+06)
(1.38105e+07 -1.97446e+06 3.77728e-12 -93748 -2.65084e-11 3.40341e+06)
(8458.02 -63568.5 2.50455e-15 988740 -1.7299e-14 247425)
(2.96789e+07 -1.81523e+06 -2.79207e-12 591015 3.29385e-12 7.51058e+06)
(589223 -1.39725e+06 -9.12575e-14 4.95066e+06 1.01886e-13 1.37456e+06)
(-2.23057e+06 -1.43029e+06 7.05075e-12 759807 -8.46712e-13 -364926)
(-1.55618e+07 4.8672e+06 -3.43938e-12 2.33877e+06 -2.69054e-12 -3.28091e+06)
(-2.01828e+06 -1.43493e+06 -2.06085e-11 -59200.6 7.91672e-13 -515464)
(-4.85312e+06 -1.33815e+06 -4.41493e-13 687875 -1.82377e-12 -1.03348e+06)
(-7.461e+06 -1.60778e+06 1.5093e-12 751625 -2.75216e-12 -1.66473e+06)
(217.918 -887.37 7.36481e-18 2176.1 6.48374e-17 594.005)
(2.64127e+06 -2.24292e+06 2.6443e-14 1.20121e+06 -7.89334e-14 953396)
(3.27475e+06 -2.12323e+06 -1.6238e-11 14208.3 -7.53311e-12 816058)
(-1.46233e+07 -1.31312e+06 -2.12858e-11 -162239 3.17745e-12 -3.66858e+06)
(-7.75111e+06 -2.04435e+06 -1.39667e-12 89102.7 -2.73342e-13 -1.9011e+06)
(1.28051e+07 -1.53268e+06 7.27438e-13 204921 -5.00595e-12 3.22805e+06)
(-1.78714e+07 -1.91364e+06 -2.0767e-11 -77980.8 -1.85862e-12 -4.4536e+06)
(-520015 -1.73646e+06 -5.23486e-12 638013 -3.26336e-12 29277.8)
(1192.62 -7046.87 3.87188e-16 57897.6 1.13561e-15 14661.5)
(4.06121e+07 -1.17603e+06 -3.38822e-12 143113 -1.12136e-12 1.01122e+07)
(182.97 -428.665 3.62176e-18 115.77 -2.83341e-17 74.1235)
(-2.70948e+07 4.61757e+06 -5.18459e-13 84766.1 -1.27781e-13 -6.70173e+06)
(-1.38219e+07 3.00342e+06 2.26627e-12 2.60035e+06 1.59004e-12 -2.7843e+06)
(-3.28057e+07 -944300 1.59765e-12 269640 -1.43274e-12 -8.07287e+06)
(-4.66783e+06 -2.34097e+06 1.97587e-11 349528 -1.62581e-11 -1.07146e+06)
(-4.91847e+07 870216 2.07437e-13 -138336 3.2144e-13 -1.2238e+07)
(8.88477e+06 -1.68796e+06 -4.65678e-12 63859 2.12603e-13 2.22034e+06)
(-2.57443e+06 -1.97189e+06 5.30501e-12 1.02729e+06 -6.21673e-12 -383878)
(1149.93 -5229.25 6.19705e-17 12811.5 5.18968e-16 3464.11)
(1.36937e+06 3.59926e+06 -6.06014e-14 -2.37325e+06 1.13146e-13 -249082)
(147.598 -575.899 0 544.455 0 171.712)
(-5.34204e+07 -117181 5.26812e-12 -47089.5 -7.93762e-14 -1.32664e+07)
(5.7303e+07 -3.14261e+06 5.62538e-13 1.38173e+06 -1.02876e-12 1.45609e+07)
(563509 -2.29826e+06 3.63343e-12 -192532 -7.75574e-12 92047)
(-2.08571e+07 -764969 -2.09593e-11 78080 -1.7257e-11 -5.1557e+06)
(2.08177e+07 -789042 -5.23783e-12 -88259.8 1.84568e-11 5.14341e+06)
(2.23131e+07 -1.37374e+06 -8.38023e-14 98412.3 4.20604e-13 5.56074e+06)
(3.1549e+07 -3.77505e+06 -2.99196e-12 6.28009e+06 1.64564e-12 9.38617e+06)
(1.28591e+07 -3.59133e+06 -1.08019e-13 -400314 6.7684e-14 3.09128e+06)
(-2.0403e+07 -879822 -4.71658e-12 917156 -1.46646e-12 -4.83483e+06)
(2225.18 -19170.4 -1.43612e-14 1.05412e+06 2.92129e-14 262101)
(4.84753e+06 -1.60152e+06 -2.22508e-12 77718.7 -1.79679e-12 1.22205e+06)
(-1.44802e+07 -1.55174e+06 1.96094e-12 249516 -4.07287e-12 -3.53092e+06)
(3.30607e+07 -1.03702e+06 -2.35957e-12 -16789.4 -3.48216e-12 8.19887e+06)
(-3.27324e+07 -1.05309e+06 4.15996e-12 98561.7 -6.30863e-12 -8.09713e+06)
(3.15723e+07 -1.48561e+06 3.82578e-12 -63251.2 -7.76813e-12 7.81803e+06)
(-3.12134e+07 -1.50505e+06 4.70822e-12 -2047.14 -3.21359e-12 -7.74518e+06)
(-4.7591e+07 -80537.8 -7.67461e-13 5703.73 1.63099e-11 -1.18069e+07)
(4.48111e+07 -1.29146e+06 -6.37205e-12 -55576.3 4.68266e-12 1.11048e+07)
(5.7731e+07 -452186 5.18827e-12 -48775.7 -4.48844e-13 1.43121e+07)
(80162.1 -202520 -4.96454e-16 108967 6.09697e-15 46926.9)
(-2.24561e+07 583343 3.31555e-12 1.54848e+06 -6.53607e-13 -5.1876e+06)
(6.80213e+06 949600 -1.2674e-13 -2.37192e+06 9.95638e-14 1.09922e+06)
(7.14111e+06 1.02084e+06 2.23353e-13 -2.76092e+06 -1.39984e-13 1.08681e+06)
(1.17435e+07 -491613 -1.05164e-12 5.43992e+06 1.10562e-12 4.26354e+06)
(3.18734e+07 -3.00565e+06 3.39216e-13 6.00069e+06 -1.85406e-12 9.39733e+06)
(5.12468e+06 -9.48204e+06 0 1.7812e+07 0 5.69106e+06)
(4.17596e+07 -7.06893e+06 -2.59724e-13 7.39884e+06 1.58268e-12 1.21972e+07)
(-1.47276e+07 6.74199e+06 -3.78506e-13 -210761 3.70258e-13 -3.70651e+06)
(-1939.84 -9083.49 -8.19706e-16 210275 8.0825e-16 51692.3)
(2.9363e+07 -1.80151e+06 -8.00637e-13 -28524.5 -8.62076e-13 7.27848e+06)
(1.23775e+07 -1.9791e+06 -9.41207e-12 153304 -6.75435e-12 3.10915e+06)
(2.68249e+07 -1.01445e+06 -1.34114e-11 -84344.3 -5.37216e-12 6.63487e+06)
(-1.68936e+07 -1.80358e+06 2.27584e-12 -2040.83 1.39022e-11 -4.19215e+06)
(-4.83777e+07 -328665 -3.3051e-12 122898 -1.21416e-12 -1.1973e+07)
(27.1642 -56696.7 -1.61481e-15 786403 1.20972e-14 195129)
(-2.84442e+07 -1.57483e+06 1.78908e-12 40667.9 -1.2797e-11 -7.0475e+06)
(2.86507e+07 -1.53823e+06 -1.09944e-11 -61312.9 7.15481e-12 7.09362e+06)
(4.84272e+07 -274364 3.31301e-12 -110246 -1.21609e-12 1.19884e+07)
(-2.21262e+07 -15005.3 -1.64713e-12 1.53688e+06 -1.50635e-12 -5.10864e+06)
(3.99153e+06 -8.1237e+06 1.42341e-13 1.68279e+07 -2.14842e-13 5.16573e+06)
(1.69345e+07 -1.02911e+06 5.21794e-12 -155004 4.71802e-12 4.16334e+06)
(-1.69839e+07 -1.04625e+06 0 164032 0 -4.17336e+06)
(-1.56374e+06 -2.09763e+06 -1.03566e-11 -45223.2 -5.46646e-13 -399217)
(-1.02413e+07 2.61433e+06 -2.08631e-12 2.85615e+06 -3.44223e-13 -1.83242e+06)
(4.5754e+07 -695898 -5.31688e-12 9635.27 4.74347e-12 1.13549e+07)
(2.62293e+07 -1.67983e+06 3.83705e-12 24425 -1.33869e-11 6.51408e+06)
(-4.32827e+07 2.22764e+06 -2.64403e-12 75252.9 -1.13543e-12 -1.07206e+07)
(8.14194e+06 -2.08542e+06 -7.33057e-13 63399.3 4.5447e-12 2.03591e+06)
(107544 -457136 0 1.07372e+06 0 293096)
(-2.84382e+06 -2.08928e+06 -3.0182e-12 10454.5 2.3402e-12 -703016)
(86648.9 -364966 -9.4248e-16 2.20504e+06 -3.98058e-14 568615)
(3.94547e+07 -1.02828e+06 -2.18474e-12 -192023 4.46502e-12 9.74186e+06)
(192.128 -640.299 0 583.628 0 192.481)
(4.26166e+06 -1.70452e+06 1.7981e-12 121361 -5.9436e-12 1.08752e+06)
(446045 -1.40683e+06 4.58388e-14 4.68224e+06 -1.50754e-13 1.27243e+06)
(5.07986e+07 -344897 2.01505e-12 -52240.1 1.77235e-12 1.25912e+07)
(3.47535e+06 -309767 -1.21799e-11 72822 1.90767e-14 880374)
(-3.57472e+06 -314233 1.22855e-11 -59922 -3.06523e-14 -901829)
(4.00371e+06 -1.96078e+06 9.68876e-12 124817 1.63413e-12 1.02437e+06)
(-5.59139e+07 -74803 7.19173e-12 -180911 1.71039e-12 -1.39183e+07)
(-5.86986e+07 -30980.2 -1.02888e-13 -367459 -3.34982e-13 -1.46555e+07)
(2.55599e+07 -2.69011e+06 1.29761e-12 3.03429e+06 1.22385e-12 7.0948e+06)
(-4.82912e+07 -446745 -2.54188e-12 178197 2.01569e-13 -1.19378e+07)
(7137.13 -15358.1 -5.78529e-17 6582.4 4.56859e-16 3404.09)
(1527.85 -6727.26 -2.56462e-17 11311.9 -3.21526e-16 3185.8)
(3.08236e+07 -1.05094e+06 -6.035e-12 157482 1.11303e-11 7.68704e+06)
(6711.67 -14832.7 -3.82705e-17 9341.56 5.37916e-16 3983.13)
(-6.96178e+06 -1.64161e+06 2.04859e-11 -77760.9 5.17566e-12 -1.74665e+06)
(1044.09 -5719.97 -9.10276e-18 11264.4 -2.85867e-16 3053.99)
(2.85478e+07 -1.06912e+06 6.68217e-12 -20074.9 -5.98443e-12 7.0783e+06)
(3087.96 -11998.7 4.14587e-17 21788.7 1.70823e-16 6172.41)
(90778.5 -252603 7.30136e-16 112443 -8.53934e-15 50423.3)
(-6.41989e+06 -1.49842e+06 -2.77669e-12 1.69774e+06 5.80394e-13 -1.17166e+06)
(-1.21484e+07 -1.51146e+06 1.04938e-11 -175948 -6.26368e-12 -3.05791e+06)
(1.97467e+07 -3.96834e+06 2.55559e-13 3.18446e+06 9.14038e-14 5.68968e+06)
(-1.37866e+07 5.94255e+06 -1.09568e-12 -570779 -3.13911e-13 -3.56235e+06)
(1.92919e+07 -2.32929e+06 -5.65428e-12 218227 -4.67886e-12 4.84085e+06)
(4.61821e+07 -1.06793e+06 -4.14219e-12 98712.9 1.21292e-11 1.14832e+07)
(-4.57859e+07 -1.16835e+06 6.36417e-12 34222.9 -1.29727e-11 -1.13519e+07)
(6.61419e+06 -6.10157e+06 2.22032e-13 6.0331e+06 4.10372e-14 3.13805e+06)
(1.97898e+07 -2.07695e+06 1.09525e-11 -51652.1 1.02368e-11 4.89743e+06)
(2.00753e+07 -1.14557e+06 1.29211e-11 239799 -2.003e-11 5.04059e+06)
(-3.75721e+07 303071 6.81863e-13 -112435 1.08331e-11 -9.3503e+06)
(3.7434e+07 308716 1.77452e-12 10461.2 -1.00808e-11 9.29073e+06)
(2.58151e+07 -1.6744e+06 0 57411.3 0 6.4195e+06)
(-5.08999e+07 -1.12836e+06 1.77117e-12 314940 2.36349e-12 -1.25512e+07)
(5.09032e+07 -1.06203e+06 -4.03293e-12 -299576 6.37587e-13 1.25558e+07)
(3.15297e+07 -4.47555e+06 5.50949e-13 7.59284e+06 3.68221e-13 9.70709e+06)
(2.05279e+07 -581202 -1.10848e-11 -55573.6 -2.05456e-12 5.07961e+06)
(-7.18703e+06 -2.00215e+06 1.41249e-11 -47818.4 3.02621e-11 -1.79511e+06)
(-896292 3.76257e+06 5.11602e-13 -2.4144e+06 -6.69987e-14 -821449)
(-4.92484e+07 -522356 9.63474e-13 192534 2.06803e-12 -1.21718e+07)
(-3.6888e+07 -273461 0 -142236 0 -9.18796e+06)
(3.71057e+07 -264399 -1.63591e-12 173287 -1.37092e-12 9.24967e+06)
(-1803.64 -54323.6 8.65271e-16 424179 1.07991e-14 104800)
(4344.48 -48727.8 1.26148e-15 142607 1.94997e-15 36461.7)
(-30561.7 -186499 -3.82489e-14 2.11072e+06 -5.97188e-14 516130)
(-6.00487e+06 -1.50246e+06 -9.01458e-12 -34362.1 2.3397e-12 -1.49846e+06)
(-1.34216e+07 3.87995e+06 -4.42556e-12 2.75303e+06 -1.66349e-12 -2.64708e+06)
(-6.04541e+07 -13879.8 2.37374e-12 -412464 2.23954e-13 -1.51022e+07)
(-3.35101e+07 -792606 0 -74734.3 0 -8.33307e+06)
(-5.96271 -3.38507 7.63905e-19 109.107 3.44688e-18 25.5922)
(2.9814e+07 -2.46752e+06 5.85758e-14 974884 3.51441e-12 7.63934e+06)
(-1.28822e+06 5.3593e+06 1.53824e-12 2.44994e+06 -3.72428e-13 288247)
(4.64475e+07 -1.05281e+06 3.54112e-12 3544.39 5.14433e-12 1.15255e+07)
(-4.4514e+06 -2.0573e+06 1.12135e-11 26474.7 1.30144e-11 -1.09791e+06)
(2.67368e+07 -1.82116e+06 5.02172e-12 -182920 -5.81601e-12 6.58855e+06)
(161.441 -338.92 1.69663e-18 6924.01 1.13084e-16 1758.04)
(1.60301e+07 -1.3911e+06 -1.78134e-11 -453283 -6.32495e-12 3.86491e+06)
(-1.63143e+07 -1.36572e+06 3.23016e-12 406187 3.0807e-11 -3.94712e+06)
(-4.76547e+07 306357 1.06994e-12 153718 3.74987e-12 -1.1786e+07)
(-4.15672e+06 -1.86678e+06 -2.62374e-12 57826.9 4.17996e-12 -1.01702e+06)
(2.68176e+06 -3.49691e+06 9.96997e-14 4.945e+06 -4.47321e-14 1.89235e+06)
(2.37435e+07 -2.0905e+06 5.30184e-12 -135478 -1.31471e-11 5.85764e+06)
(2.93187e+07 -1.5925e+06 5.2213e-12 -181124 1.64477e-11 7.22963e+06)
(2714.15 -46156.9 -1.70298e-14 1.07247e+06 3.93431e-14 266774)
(4.05616e+07 -914508 -6.31514e-12 102553 7.32077e-12 1.00896e+07)
(-5.24265e+07 -125283 0 -430545 0 -1.31149e+07)
(707.444 -4917.16 0 42123.1 0 10627.1)
(-70924.5 -1.77072e+06 -1.56365e-11 176074 2.85058e-11 26089.6)
(258192 -1.49605e+06 -8.54549e-12 -49818.7 6.2271e-12 51701.7)
(63574.3 -516318 1.36767e-13 3.44588e+06 -1.29914e-13 870767)
(361270 -1.99178e+06 -3.56694e-12 1.51956e+06 1.68098e-12 466671)
(2.04029e+07 -3.97296e+06 7.20374e-14 3.1152e+06 2.89649e-13 5.83532e+06)
(84783.2 -221389 -2.79208e-16 212834 1.09547e-14 73844.9)
(-3.69098e+07 -732864 2.33052e-12 45702.2 -1.21795e-12 -9.14672e+06)
(6.11044e+07 -1.66933e+07 4.03864e-13 6.62655e+06 -3.28672e-13 1.68054e+07)
(-2.25443e+07 765387 0 1.67483e+06 0 -5.17815e+06)
(6.40251e+06 -1.61229e+06 2.93324e-12 176317 1.52366e-11 1.63234e+06)
(-4.50626e+07 750426 -4.75666e-12 333229 -3.54386e-12 -1.10983e+07)
(-1.54091e+07 -1.60088e+06 2.04601e-12 116565 -4.2842e-12 -3.79438e+06)
(-1.09665e+07 1.61149e+06 1.83391e-12 2.88122e+06 2.99735e-12 -2.00612e+06)
(-1.97237e+07 -274206 -1.27216e-11 -578664 -3.89427e-13 -5.03743e+06)
(1.96674e+07 -275456 -5.62159e-12 585460 -2.59843e-12 5.02516e+06)
(3.13957e+07 -1.46082e+06 2.95205e-12 -52969.5 -5.03923e-12 7.77677e+06)
(429.954 -2294.69 3.89346e-17 10628.8 3.0495e-18 2743.91)
(13215.4 -36430.7 1.50382e-17 46327.5 1.58969e-15 14773.8)
(-2.02389e+07 -2.06815e+06 5.71464e-12 -54409.4 -2.86788e-12 -5.03519e+06)
(2.46508e+07 -1.65693e+06 5.02093e-12 85793.9 7.70667e-13 6.13765e+06)
(-2.47449e+07 -1.95404e+06 -1.87471e-12 -84539.3 -1.35334e-11 -6.16069e+06)
(1.96529e+07 -1.24771e+06 -4.96857e-12 200463 -2.37664e-11 4.92602e+06)
(-1.95585e+07 -1.16869e+06 1.31625e-11 -166744 1.36255e-11 -4.89423e+06)
(1.88055e+07 -4.09333e+06 -6.00834e-13 3.10105e+06 2.28844e-13 5.43545e+06)
(157.125 -731.15 -4.78159e-19 1514.91 -3.36789e-17 414.866)
(3.78529e+06 -1.92242e+06 -9.94307e-12 -40574.8 2.23639e-11 929139)
(3.1972e+07 -1.44568e+06 -1.93059e-12 30087.1 1.35645e-11 7.94036e+06)
(1.38764e+07 -1.72405e+06 8.51093e-12 2.56746e+06 -3.15576e-12 4.08005e+06)
(6.61246e+06 -1.5692e+06 1.71909e-11 43642.8 -1.41795e-12 1.65151e+06)
(1.2562e+07 -1.50428e+06 3.53028e-12 -162360 1.25183e-11 3.07659e+06)
(-730851 -1.47173e+06 1.60265e-11 19525.5 -1.18722e-12 -176494)
(-13.4666 -204.35 6.96956e-18 1035.38 7.53471e-18 253.557)
(3.11945e+07 -1.57176e+06 -1.36064e-11 -33314.1 -4.21426e-13 7.73173e+06)
(2.23049e+07 -1.56092e+06 -6.53311e-12 13018.6 -3.91897e-12 5.53752e+06)
(-5.77403e+07 -670793 2.28229e-12 -98196.8 1.20881e-12 -1.43509e+07)
(-1.97381e+07 -2.00824e+06 -3.44933e-12 23426.6 -3.7113e-13 -4.89161e+06)
(112485 -202011 2.04448e-15 75540.9 -1.24116e-14 46653)
(4.45434e+07 -1.98997e+07 1.06283e-12 1.15207e+07 -1.63893e-12 1.39107e+07)
(4.84659e+06 -2.11695e+06 4.18023e-12 -4678.68 4.15346e-12 1.20138e+06)
(-2.44518e+07 -1.66158e+06 4.793e-12 -78900.2 -3.0503e-12 -6.08657e+06)
(4.82278e+07 -322190 -2.37016e-12 -56941.7 -8.66001e-13 1.19522e+07)
(2.82153e+07 -1.0455e+06 -5.39354e-12 9163.11 -3.03867e-12 7.00306e+06)
(69924.5 -238712 -1.64859e-16 307070 -1.80606e-14 93539.9)
(-3195.49 -73565.6 2.28793e-15 819148 4.05607e-15 202454)
(-3.05013e+07 -1.879e+06 2.35893e-12 52952.9 5.39849e-12 -7.55486e+06)
(-2.68014e+07 -316169 -2.36906e-11 -577688 -3.52167e-12 -6.79332e+06)
(2.67776e+07 -313900 -1.30532e-11 561771 9.42698e-12 6.78346e+06)
(-4.24313e+07 3.15145e+06 -6.24315e-14 204340 -8.34901e-14 -1.04774e+07)
(1.28709e+07 352521 1.62759e-12 5.68616e+06 -2.77302e-12 4.60438e+06)
(1.43983e+07 -2.46707e+06 -2.91709e-12 1.44268e+06 -1.71861e-12 3.93048e+06)
(-3.12467e+07 -589712 -7.70118e-12 -27416.1 4.04552e-12 -7.75973e+06)
(3.13342e+07 -616615 0 3021.62 0 7.7754e+06)
(-3.06631e+06 -2.52112e+06 -1.31247e-11 93660.4 7.50696e-12 -737575)
(-2.12593e+07 -2.10687e+06 -3.99885e-12 182300 -4.52099e-12 -5.22964e+06)
(-4.08336e+07 -1.01246e+06 -2.19388e-12 30550.7 -3.68857e-12 -1.01241e+07)
(3.07092e+07 -3.35779e+06 5.10591e-13 6.74716e+06 1.11586e-12 9.29367e+06)
(-1747.58 -48283.2 -8.46371e-15 845247 -1.71208e-14 209289)
(4.21654e+07 -1.26381e+06 4.43774e-12 92722 -5.91702e-12 1.04851e+07)
(-1.42159e+07 6.1079e+06 -9.17286e-13 111111 -1.60564e-13 -3.49968e+06)
(6.15396e+07 -737892 1.1504e-12 267145 1.46781e-13 1.53355e+07)
(2.45186e+06 -1.7091e+06 7.75485e-12 -40232.8 5.36643e-12 598373)
(-196.503 -42807.4 -2.46424e-15 394464 -2.48115e-15 97825.8)
(1.95519e+07 -1.49757e+06 1.84654e-11 60360 -3.81756e-12 4.86621e+06)
(-405232 -2.43938e+06 -7.09912e-12 25074.1 -4.89777e-12 -94324.9)
(1.39863e+07 -1.53419e+07 -1.50729e-12 1.81506e+07 1.4415e-12 7.97382e+06)
(1.77297e+06 -2.0685e+06 -3.04782e-14 2.673e+06 4.17425e-14 1.10313e+06)
(1.06586e+07 -990622 1.92971e-13 4.64094e+06 2.0341e-12 3.79613e+06)
(-5.21343e+06 -1.28584e+06 -1.1776e-11 199460 9.38264e-13 -1.24407e+06)
(-3.96397e+07 -1.00065e+06 -1.92777e-12 24977.2 5.10098e-12 -9.82923e+06)
(2.85369e+07 -3.07142e+06 5.22515e-13 6.02638e+06 1.0687e-12 8.57584e+06)
(3.07457e+06 2.23714e+06 2.24886e-13 4.79826e+06 -3.58928e-13 1.95341e+06)
(3.07992e+07 -1.18545e+06 -1.00493e-11 -82005.8 6.65794e-12 7.62155e+06)
(-4.10884e+06 -2.06566e+06 1.56807e-12 41955.2 -4.03879e-12 -1.00908e+06)
(-4.97865e+07 512720 -3.1485e-12 241491 -1.45521e-12 -1.22931e+07)
(-1.79832e+07 -1.45178e+06 9.66259e-12 37570.3 -2.01182e-11 -4.45268e+06)
(-2.74359e+07 -1.04982e+06 -4.37353e-12 102326 -3.24863e-12 -6.78201e+06)
(-4.262e+06 -1.98269e+06 2.21941e-12 360497 3.86312e-12 -968041)
(1.37291e+07 -918476 -7.55365e-12 129820 -1.58342e-11 3.43868e+06)
(-1.71082e+06 6.13634e+06 -2.01267e-12 1.56521e+06 1.11014e-14 -36130.4)
(-1.24455e+06 -1.8604e+06 -8.60256e-12 -214006 8.96353e-12 -361897)
(-3.92973e+07 -1.12807e+06 -2.29257e-12 307797 -1.58159e-12 -9.67409e+06)
(-1.67415e+07 1.05151e+06 1.95535e-12 2.01763e+06 -8.94245e-13 -3.6533e+06)
(76798.6 -298098 1.27821e-15 491493 2.54506e-14 141005)
(5.86641e+07 -312612 0 69590 0 1.4573e+07)
(-1.7012e+07 606269 5.5792e-15 -2.5582e+06 -2.15719e-13 -4.85576e+06)
(9.77747e+06 -2.48221e+06 -4.53219e-12 -135131 -1.80314e-12 2.39246e+06)
(-3.56539e+07 -1.09822e+06 -3.09692e-12 -252353 8.85015e-12 -8.90907e+06)
(-3.1124e+07 -49241.6 -2.11063e-14 1.14848e+06 7.43555e-13 -7.43755e+06)
(-3.51035e+06 -1.73152e+06 7.08268e-12 3158.76 7.76686e-12 -870205)
(-5.21192e+07 -150043 -3.67358e-12 172644 -3.38887e-13 -1.2889e+07)
(-8.05052e+06 5.58787e+06 1.76524e-12 1.99035e+06 8.43003e-13 -1.50365e+06)
(-4.96794e+07 -962013 -3.55602e-12 142176 -4.63649e-12 -1.22912e+07)
(546151 -998937 5.2661e-14 1.96064e+06 -5.83982e-14 621986)
(-4.87314e+07 -1.22235e+06 3.46379e-12 91056.5 2.7857e-12 -1.20687e+07)
(4.87793e+07 -1.15089e+06 -3.15592e-12 -71884.4 -2.79473e-12 1.20853e+07)
(3362.51 -20466.3 -1.43428e-16 47583.7 7.3547e-17 12640.8)
(2.41275e+07 -1.57002e+06 -1.53145e-11 109789 -1.2728e-11 6.01377e+06)
(-2.41331e+07 -1.59053e+06 -1.18322e-11 -160237 -1.77714e-11 -6.02766e+06)
(420925 -1.26597e+06 1.19859e-13 3.9245e+06 -8.79078e-14 1.07819e+06)
(1.66537e+07 -1.89086e+06 -6.89006e-14 1.6281e+06 -3.23093e-13 4.53608e+06)
(8.28756e+06 -2.26906e+06 -1.04366e-12 7799.57 -5.37507e-12 2.05825e+06)
(-2.05668e+07 5.9922e+06 1.97266e-13 323009 -3.71006e-13 -5.02289e+06)
(1.73861e+07 593681 4.28267e-13 5.0005e+06 -1.35831e-12 5.55458e+06)
(2.94795e+07 -1.75685e+06 -6.38422e-13 189053 -1.06266e-11 7.36136e+06)
(3067.67 -42176 -1.64514e-15 310935 -3.41358e-15 77910.4)
(2.17319e+07 -1.22323e+06 -1.55349e-12 149193 8.46968e-12 5.42915e+06)
(7665.87 -22778.6 -1.35209e-15 1.01551e+06 8.09903e-16 253871)
(234.263 -1581.17 4.56125e-17 7467.31 1.56738e-16 1910.92)
(-4.13856e+07 973767 4.06264e-12 819443 1.91226e-12 -1.00653e+07)
(5.24249e+06 2.67502e+06 2.07785e-12 4.72257e+06 -7.40022e-13 2.47254e+06)
(1.79072e+07 -259635 1.53645e-11 173245 -1.45089e-12 4.48612e+06)
(-1.79921e+07 -260316 -2.95083e-12 -175488 -1.69752e-12 -4.50775e+06)
(-6.38541e+06 -2.1473e+06 -1.20452e-11 115547 2.53932e-12 -1.55568e+06)
(2.74421e+07 -608045 -7.70107e-12 -82740.2 -4.96857e-12 6.7884e+06)
(4.84383e+07 -510868 7.40459e-12 -16094.4 -2.18564e-12 1.20145e+07)
(-4.8385e+07 -567861 -4.47794e-12 39805.6 2.79096e-12 -1.19954e+07)
(4.95432e+07 -5.67294e+06 -1.28225e-12 5.51206e+06 3.80391e-12 1.36603e+07)
(2.48628e+07 -1.71317e+06 -3.95576e-12 -52009.8 3.59408e-12 6.15605e+06)
(-1.36976e+07 1.94771e+06 -2.78105e-12 3.1573e+06 2.24419e-12 -2.61527e+06)
(3.67102e+07 -1.28191e+06 3.88971e-12 -26050.9 -3.02882e-13 9.10209e+06)
(-2.15401e+07 -2.18216e+06 -5.91843e-12 162676 -1.34991e-11 -5.30418e+06)
(247.324 -2093.45 2.99126e-17 5554.08 6.00644e-17 1439.45)
(2.16202e+07 -1.00979e+06 1.77506e-12 6.33496e+06 6.42809e-13 6.93624e+06)
(-5.12919e+07 -390273 9.19492e-13 3734.12 -2.30544e-12 -1.27256e+07)
(1.76172e+07 -1.31955e+06 4.95452e-12 -97077.1 2.77046e-11 4.3471e+06)
(-1.78198e+07 -1.25567e+06 -1.44983e-12 -67567.8 2.09509e-11 -4.43823e+06)
(-1.51453e+07 -1.92371e+06 -1.68396e-11 -155742 5.30847e-12 -3.79649e+06)
(-4.1975e+06 -1.58275e+06 2.36104e-12 4751.15 8.2536e-14 -1.04031e+06)
(5.03414e+06 -1.80304e+06 -6.18329e-12 -218998 -1.09429e-11 1.19473e+06)
(5.55485e+07 -97527.3 -1.62612e-11 463753 -8.18606e-13 1.38978e+07)
(-4.2384e+07 -264555 -6.74235e-12 79229.7 2.07445e-12 -1.04967e+07)
(223.344 -1858.55 3.19747e-17 6989.34 3.25451e-16 1789.61)
(2.32083e+06 -2.43111e+06 0 145788 0 612017)
(-5.84139e+06 -2.00878e+06 -1.44306e-11 -24910 -1.43142e-11 -1.45555e+06)
(-1.53648e+07 6.22084e+06 6.10069e-13 -394472 5.85007e-13 -3.91021e+06)
(-1.42368e+07 -1.27541e+06 2.22402e-11 -200072 -1.75746e-11 -3.58209e+06)
(37.192 -263.384 -8.02497e-18 1812.27 3.2185e-17 458.89)
(6.3265e+07 -1.57657e+07 -9.7756e-13 6.73552e+06 1.28209e-12 1.73686e+07)
(2.10034e+07 -1.7557e+06 -3.45355e-13 77869.7 1.813e-11 5.23068e+06)
(-2.08683e+07 -1.62499e+06 1.65219e-12 64238.8 3.48972e-12 -5.1619e+06)
(3.05964e+07 -1.77919e+06 2.40281e-12 1.02229e+06 1.69952e-12 7.84523e+06)
(-2.77663e+07 3.95591e+06 -1.59626e-12 1.202e+06 -3.18086e-13 -6.59114e+06)
(1.83958e+07 -461084 -2.83406e-12 4.12196e+06 -1.48693e-13 5.58713e+06)
(-3.678e+06 -1.95048e+06 -4.17464e-11 -66279.6 5.68023e-12 -929031)
(2.79361e+07 -2.71218e+06 1.33047e-12 6.10957e+06 5.98452e-13 8.44742e+06)
(-1.25354e+07 2.70288e+06 2.70352e-12 3.12651e+06 -2.32027e-12 -2.33454e+06)