0 	27.4739 	-0.0234487 	4.02663e-14
0.000254254 	27.4739 	-0.0234132 	1.48714e-12
0.000508509 	27.4739 	-0.0233778 	2.93401e-12
0.000762763 	27.4757 	-0.0235044 	-6.19732e-06
0.00101702 	27.4788 	-0.0237538 	-1.70822e-05
0.00127127 	27.4819 	-0.0240031 	-2.79671e-05
0.00152553 	27.485 	-0.0242524 	-1.80918e-05
0.00177978 	27.4882 	-0.0245018 	-7.21574e-06
0.00203403 	27.4923 	-0.0247909 	3.03867e-12
0.00228829 	27.4985 	-0.0251586 	1.58584e-12
0.00254254 	27.5047 	-0.0255263 	1.3301e-13
0.0027968 	27.511 	-0.0252915 	1.30853e-12
0.00305105 	27.5173 	-0.024996 	2.74904e-12
0.00330531 	27.5254 	-0.0249273 	-3.64146e-06
0.00355956 	27.5354 	-0.0250999 	-1.11569e-05
0.00381381 	27.5454 	-0.0252724 	-1.86724e-05
0.00406807 	27.5554 	-0.0254449 	-1.32404e-05
0.00432232 	27.5654 	-0.0256175 	-5.73858e-06
0.00457658 	27.5763 	-0.0258727 	3.1429e-12
0.00483083 	27.59 	-0.0263973 	1.70327e-12
0.00508509 	27.6038 	-0.0269218 	2.63634e-13
0.00533934 	27.6177 	-0.0268515 	1.80038e-12
0.00559359 	27.6316 	-0.0266478 	4.00451e-12
0.00584785 	27.6459 	-0.0266752 	-6.46549e-06
0.0061021 	27.6609 	-0.02704 	-2.23731e-05
0.00635636 	27.6759 	-0.0274048 	-3.82807e-05
0.00661061 	27.6908 	-0.0277696 	-2.97186e-05
0.00686486 	27.7058 	-0.0281344 	-1.38591e-05
0.00711912 	27.7209 	-0.02854 	5.00865e-12
0.00737337 	27.7369 	-0.0292283 	2.80674e-12
0.00762763 	27.7529 	-0.0299167 	6.04835e-13
0.00788188 	27.7691 	-0.0300027 	1.56871e-12
0.00813614 	27.7854 	-0.0298606 	3.73165e-12
0.00839039 	27.8018 	-0.0299425 	-7.6887e-06
0.00864464 	27.8185 	-0.030467 	-3.05681e-05
0.0088989 	27.8352 	-0.0309915 	-5.34475e-05
0.00915315 	27.8519 	-0.0315159 	-4.53499e-05
0.00940741 	27.8686 	-0.0320404 	-2.25672e-05
0.00966166 	27.8853 	-0.0325679 	5.11071e-12
0.00991592 	27.9025 	-0.0334065 	2.95083e-12
0.0101702 	27.9196 	-0.0342452 	7.90952e-13
0.0104244 	27.937 	-0.0344722 	1.87676e-12
0.0106787 	27.9545 	-0.0343458 	4.83808e-12
0.0109329 	27.9722 	-0.0344296 	-7.66331e-06
0.0111872 	27.9903 	-0.0350722 	-3.5695e-05
0.0114414 	28.0085 	-0.0357147 	-6.37267e-05
0.0116957 	28.0267 	-0.0363573 	-5.89659e-05
0.0119499 	28.0449 	-0.0369998 	-3.10864e-05
0.0122042 	28.063 	-0.0376424 	-3.20689e-06
0.0124585 	28.0818 	-0.0385828 	4.30881e-12
0.0127127 	28.1007 	-0.0395619 	1.35287e-12
0.012967 	28.1198 	-0.0399304 	1.97933e-12
0.0132212 	28.1391 	-0.0397836 	5.62925e-12
0.0134755 	28.1585 	-0.0398282 	-6.95519e-06
0.0137297 	28.1788 	-0.0405582 	-3.87943e-05
0.013984 	28.1991 	-0.0412882 	-7.06334e-05
0.0142382 	28.2194 	-0.0420181 	-7.10803e-05
0.0144925 	28.2397 	-0.0427481 	-3.94521e-05
0.0147467 	28.26 	-0.0434781 	-7.82387e-06
0.015001 	28.281 	-0.0444975 	5.64155e-12
0.0152553 	28.3024 	-0.0456121 	1.99971e-12
0.0155095 	28.3239 	-0.0461366 	1.68012e-12
0.0157638 	28.3456 	-0.0459426 	5.40643e-12
0.016018 	28.3675 	-0.0459183 	-5.9526e-06
0.0162723 	28.3905 	-0.0467154 	-4.07041e-05
0.0165265 	28.4135 	-0.0475124 	-7.54556e-05
0.0167808 	28.4365 	-0.0483095 	-8.23254e-05
0.017035 	28.4595 	-0.0491066 	-4.78455e-05
0.0172893 	28.4825 	-0.0499037 	-1.33656e-05
0.0175435 	28.5063 	-0.0509777 	6.09682e-12
0.0177978 	28.5305 	-0.052227 	2.38025e-12
0.0180521 	28.5549 	-0.0529319 	1.35823e-12
0.0183063 	28.5796 	-0.0526669 	5.13597e-12
0.0185606 	28.6044 	-0.0525493 	-4.90075e-06
0.0188148 	28.6305 	-0.0534018 	-4.20413e-05
0.0190691 	28.6566 	-0.0542542 	-7.91818e-05
0.0193233 	28.6826 	-0.0551067 	-9.33367e-05
0.0195776 	28.7087 	-0.0559591 	-5.65304e-05
0.0198318 	28.7348 	-0.0568116 	-1.97242e-05
0.0200861 	28.7615 	-0.0579143 	6.52227e-12
0.0203403 	28.789 	-0.059306 	2.75589e-12
0.0205946 	28.8165 	-0.0602238 	1.02376e-12
0.0208488 	28.8444 	-0.0598494 	4.83996e-12
0.0211031 	28.8725 	-0.0596032 	-3.94464e-06
0.0213574 	28.9018 	-0.0605052 	-4.32017e-05
0.0216116 	28.9312 	-0.0614072 	-8.24588e-05
0.0218659 	28.9606 	-0.0623092 	-0.000104613
0.0221201 	28.99 	-0.0632112 	-6.57554e-05
0.0223744 	29.0194 	-0.0641132 	-2.6898e-05
0.0226286 	29.0492 	-0.065219 	6.93284e-12
0.0228829 	29.0801 	-0.0667829 	3.12962e-12
0.0231371 	29.111 	-0.0679859 	6.81349e-13
0.0233914 	29.1423 	-0.0675117 	4.52892e-12
0.0236456 	29.1738 	-0.0671467 	-3.16288e-06
0.0238999 	29.2067 	-0.0680923 	-4.42705e-05
0.0241542 	29.2395 	-0.0690379 	-8.53782e-05
0.0244084 	29.2724 	-0.0699834 	-0.0001161
0.0246627 	29.3053 	-0.070929 	-7.54587e-05
0.0249169 	29.3382 	-0.0718746 	-3.48175e-05
0.0251712 	29.3713 	-0.0729309 	7.33619e-12
0.0254254 	29.4058 	-0.0746492 	3.50322e-12
0.0256797 	29.4403 	-0.0761684 	3.3319e-13
0.0259339 	29.4751 	-0.0755709 	4.20732e-12
0.0261882 	29.5101 	-0.0750706 	-2.62295e-06
0.0264424 	29.5467 	-0.0760547 	-4.53463e-05
0.0266967 	29.5833 	-0.0770389 	-8.80697e-05
0.026951 	29.6198 	-0.078023 	-0.000127809
0.0272052 	29.6564 	-0.0790072 	-8.56201e-05
0.0274595 	29.693 	-0.0799913 	-4.34311e-05
0.0277137 	29.7295 	-0.0809755 	-1.24207e-06
0.027968 	29.7677 	-0.0828377 	3.87699e-12
0.0282222 	29.8059 	-0.0847266 	1.90781e-14
0.0284765 	29.8446 	-0.0839832 	3.87625e-12
0.0287307 	29.8833 	-0.0833224 	-2.38328e-06
0.028985 	29.9237 	-0.0843428 	-4.65919e-05
0.0292392 	29.9641 	-0.0853631 	-9.08005e-05
0.0294935 	30.0045 	-0.0863834 	-0.000135009
0.0297477 	30.0449 	-0.0874038 	-9.63894e-05
0.030002 	30.0854 	-0.0884241 	-5.27846e-05
0.0302563 	30.1258 	-0.0894444 	-9.1798e-06
0.0305105 	30.1675 	-0.0913099 	4.24931e-12
0.0307648 	30.2097 	-0.0934009 	3.7151e-13
0.031019 	30.2522 	-0.0927373 	4.23535e-12
0.0312733 	30.2949 	-0.0918915 	-2.48606e-06
0.0315275 	30.3393 	-0.0929457 	-4.80481e-05
0.0317818 	30.3837 	-0.0939999 	-9.36101e-05
0.032036 	30.4281 	-0.0950541 	-0.000139172
0.0322903 	30.4726 	-0.0961083 	-0.000107733
0.0325445 	30.517 	-0.0971625 	-6.28455e-05
0.0327988 	30.5614 	-0.0982167 	-1.79575e-05
0.0330531 	30.6069 	-0.100035 	5.5305e-12
0.0333073 	30.6531 	-0.102364 	8.69475e-13
0.0335616 	30.6997 	-0.10183 	3.26945e-12
0.0338158 	30.7465 	-0.100785 	-2.96657e-06
0.0340701 	30.7951 	-0.10187 	-4.97326e-05
0.0343243 	30.8437 	-0.102955 	-9.64986e-05
0.0345786 	30.8922 	-0.104041 	-0.000143265
0.0348328 	30.9408 	-0.105126 	-0.00011957
0.0350871 	30.9894 	-0.106212 	-7.35487e-05
0.0353413 	31.038 	-0.107297 	-2.75271e-05
0.0355956 	31.0873 	-0.10899 	5.10586e-12
0.0358498 	31.1378 	-0.111587 	1.10798e-12
0.0361041 	31.1886 	-0.11126 	3.51411e-12
0.0363584 	31.2397 	-0.110018 	-3.85573e-06
0.0366126 	31.2926 	-0.111133 	-5.16942e-05
0.0368669 	31.3455 	-0.112247 	-9.95326e-05
0.0371211 	31.3984 	-0.113361 	-0.000147371
0.0373754 	31.4513 	-0.114476 	-0.000131896
0.0376296 	31.5042 	-0.11559 	-8.48716e-05
0.0378839 	31.5571 	-0.116704 	-3.78477e-05
0.0381381 	31.6104 	-0.118164 	6.61074e-12
0.0383924 	31.6652 	-0.121048 	1.77691e-12
0.0386466 	31.7204 	-0.121023 	3.46281e-12
0.0389009 	31.776 	-0.119611 	-5.18333e-06
0.0391552 	31.8334 	-0.120753 	-5.40186e-05
0.0394094 	31.8908 	-0.121895 	-0.000102854
0.0396637 	31.9481 	-0.123037 	-0.000151689
0.0399179 	32.0055 	-0.124179 	-0.000144827
0.0401722 	32.0629 	-0.125321 	-9.68767e-05
0.0404264 	32.1203 	-0.126462 	-4.89261e-05
0.0406807 	32.1777 	-0.127604 	-9.7546e-07
0.0409349 	32.237 	-0.130742 	2.49225e-12
0.0411892 	32.2967 	-0.131119 	3.34097e-12
0.0414434 	32.3569 	-0.129573 	-6.971e-06
0.0416977 	32.419 	-0.130742 	-5.67219e-05
0.041952 	32.481 	-0.13191 	-0.000106473
0.0422062 	32.5431 	-0.133078 	-0.000156224
0.0424605 	32.6051 	-0.134247 	-0.000158329
0.0427147 	32.6671 	-0.135415 	-0.000109533
0.042969 	32.7292 	-0.136583 	-6.07364e-05
0.0432232 	32.7912 	-0.137751 	-1.19399e-05
0.0434775 	32.8548 	-0.140662 	3.35643e-12
0.0437317 	32.9191 	-0.141547 	2.89293e-12
0.043986 	32.9842 	-0.139918 	-9.22814e-06
0.0442402 	33.051 	-0.14111 	-5.9765e-05
0.0444945 	33.1179 	-0.142302 	-0.000110302
0.0447487 	33.1847 	-0.143494 	-0.000160839
0.045003 	33.2516 	-0.144686 	-0.00017221
0.0452573 	33.3184 	-0.145878 	-0.000122695
0.0455115 	33.3853 	-0.14707 	-7.31803e-05
0.0457658 	33.4521 	-0.148262 	-2.36656e-05
0.04602 	33.5201 	-0.150798 	4.05747e-12
0.0462743 	33.5892 	-0.152291 	2.05515e-12
0.0465285 	33.6593 	-0.150647 	-1.19626e-05
0.0467828 	33.7312 	-0.151859 	-6.31587e-05
0.047037 	33.803 	-0.153072 	-0.000114355
0.0472913 	33.8748 	-0.154285 	-0.000165551
0.0475455 	33.9466 	-0.155498 	-0.000186414
0.0477998 	34.0185 	-0.156711 	-0.000136306
0.0480541 	34.0903 	-0.157924 	-8.61971e-05
0.0483083 	34.1621 	-0.159137 	-3.60887e-05
0.0485626 	34.2345 	-0.161141 	4.10496e-12
0.0488168 	34.3087 	-0.163331 	1.39864e-12
0.0490711 	34.3841 	-0.161745 	-1.51816e-05
0.0493253 	34.461 	-0.162977 	-6.6937e-05
0.0495796 	34.538 	-0.164209 	-0.000118692
0.0498338 	34.615 	-0.16544 	-0.000170448
0.0500881 	34.692 	-0.166672 	-0.000200978
0.0503423 	34.769 	-0.167904 	-0.000150373
0.0505966 	34.8459 	-0.169135 	-9.97682e-05
0.0508509 	34.9229 	-0.170367 	-4.91634e-05
0.0511051 	34.9999 	-0.171686 	4.1732e-12
0.0513594 	35.0793 	-0.174651 	9.632e-13
0.0516136 	35.1601 	-0.173196 	-1.88805e-05
0.0518679 	35.2424 	-0.174444 	-7.10876e-05
0.0521221 	35.3247 	-0.175692 	-0.000123295
0.0523764 	35.407 	-0.17694 	-0.000175502
0.0526306 	35.4893 	-0.178188 	-0.000215813
0.0528849 	35.5716 	-0.179437 	-0.000164816
0.0531391 	35.6539 	-0.180685 	-0.000113819
0.0533934 	35.7362 	-0.181933 	-6.28224e-05
0.0536476 	35.8185 	-0.183181 	-1.18257e-05
0.0539019 	35.9026 	-0.186233 	4.24305e-13
0.0541562 	35.9891 	-0.184981 	-2.30223e-05
0.0544104 	36.0769 	-0.186241 	-7.55129e-05
0.0546647 	36.1647 	-0.187502 	-0.000128004
0.0549189 	36.2525 	-0.188763 	-0.000180494
0.0551732 	36.3403 	-0.190024 	-0.000230584
0.0554274 	36.4281 	-0.191285 	-0.000179358
0.0556817 	36.5159 	-0.192545 	-0.000128132
0.0559359 	36.6037 	-0.193806 	-7.69063e-05
0.0561902 	36.6915 	-0.195067 	-2.56805e-05
0.0564444 	36.7805 	-0.198049 	1.52993e-14
0.0566987 	36.8728 	-0.19707 	-2.75304e-05
0.056953 	36.9663 	-0.198339 	-8.00528e-05
0.0572072 	37.0598 	-0.199607 	-0.000132575
0.0574615 	37.1533 	-0.200875 	-0.000185098
0.0577157 	37.2467 	-0.202143 	-0.00023762
0.05797 	37.3402 	-0.203411 	-0.000193566
0.0582242 	37.4337 	-0.204679 	-0.000142355
0.0584785 	37.5272 	-0.205947 	-9.11435e-05
0.0587327 	37.6207 	-0.207216 	-3.99322e-05
0.058987 	37.7147 	-0.209306 	3.89766e-13
0.0592412 	37.813 	-0.209426 	-3.24105e-05
0.0594955 	37.9123 	-0.210699 	-8.48308e-05
0.0597497 	38.0117 	-0.211972 	-0.000137251
0.060004 	38.111 	-0.213245 	-0.000189671
0.0602583 	38.2103 	-0.214518 	-0.000242092
0.0605125 	38.3097 	-0.215791 	-0.000207702
0.0607668 	38.409 	-0.217064 	-0.000156633
0.061021 	38.5083 	-0.218337 	-0.000105564
0.0612753 	38.6077 	-0.219609 	-5.44949e-05
0.0615295 	38.707 	-0.220882 	-3.42595e-06
0.0617838 	38.8113 	-0.222041 	-3.76686e-05
0.062038 	38.9166 	-0.223318 	-8.99251e-05
0.0622923 	39.022 	-0.224594 	-0.000142182
0.0625465 	39.1273 	-0.225871 	-0.000194438
0.0628008 	39.2327 	-0.227147 	-0.000246695
0.0630551 	39.3379 	-0.22834 	-0.000221055
0.0633093 	39.4432 	-0.229458 	-0.000168503
0.0635636 	39.5485 	-0.230576 	-0.00011595
0.0638178 	39.6537 	-0.231695 	-6.33977e-05
0.0640721 	39.759 	-0.232813 	-1.08451e-05
0.0643263 	39.8687 	-0.23399 	-3.40598e-05
0.0645806 	39.9801 	-0.2351 	-8.43891e-05
0.0648348 	40.0915 	-0.236209 	-0.000134718
0.0650891 	40.2029 	-0.237318 	-0.000185048
0.0653433 	40.3143 	-0.238427 	-0.000235377
0.0655976 	40.4257 	-0.239537 	-0.000218148
0.0658519 	40.5371 	-0.240646 	-0.000165836
0.0661061 	40.6485 	-0.241755 	-0.000113523
0.0663604 	40.7599 	-0.242865 	-6.1211e-05
0.0666146 	40.8713 	-0.243974 	-8.89862e-06
0.0668689 	40.9867 	-0.245293 	-2.32454e-05
0.0671231 	41.1044 	-0.246408 	-7.38935e-05
0.0673774 	41.2221 	-0.247522 	-0.000124542
0.0676316 	41.3397 	-0.248636 	-0.00017519
0.0678859 	41.4574 	-0.24975 	-0.000225838
0.0681401 	41.5751 	-0.250864 	-0.000217567
0.0683944 	41.6927 	-0.251979 	-0.000164876
0.0686486 	41.8104 	-0.253093 	-0.000112185
0.0689029 	41.9281 	-0.254207 	-5.94946e-05
0.0691572 	42.0458 	-0.255321 	-6.8038e-06
0.0694114 	42.167 	-0.256832 	-1.19583e-05
0.0696657 	42.291 	-0.257944 	-6.2547e-05
0.0699199 	42.4151 	-0.259056 	-0.000113136
0.0701742 	42.5392 	-0.260169 	-0.000163724
0.0704284 	42.6633 	-0.261281 	-0.000214313
0.0706827 	42.7873 	-0.262393 	-0.000215087
0.0709369 	42.9114 	-0.263505 	-0.000162417
0.0711912 	43.0355 	-0.264617 	-0.000109747
0.0714454 	43.1595 	-0.265729 	-5.70771e-05
0.0716997 	43.2836 	-0.266842 	-4.40728e-06
0.071954 	43.4107 	-0.268557 	-4.53948e-07
0.0722082 	43.5413 	-0.269634 	-4.94859e-05
0.0724625 	43.6718 	-0.270711 	-9.85179e-05
0.0727167 	43.8023 	-0.271788 	-0.00014755
0.072971 	43.9329 	-0.272865 	-0.000196582
0.0732252 	44.0634 	-0.273942 	-0.000206068
0.0734795 	44.1939 	-0.275019 	-0.000154986
0.0737337 	44.3245 	-0.276096 	-0.000103904
0.073988 	44.455 	-0.277173 	-5.28221e-05
0.0742422 	44.5856 	-0.27825 	-1.7401e-06
0.0744965 	44.7191 	-0.279875 	5.53076e-05
0.0747508 	44.8556 	-0.281213 	-3.64915e-05
0.075005 	44.9926 	-0.282244 	-8.34016e-05
0.0752593 	45.1295 	-0.283275 	-0.000130312
0.0755135 	45.2665 	-0.284306 	-0.000177222
0.0757678 	45.4035 	-0.285337 	-0.000194638
0.076022 	45.5405 	-0.286367 	-0.000145742
0.0762763 	45.6775 	-0.287398 	-9.68464e-05
0.0765305 	45.8145 	-0.288429 	-4.79506e-05
0.0767848 	45.9515 	-0.289446 	5.35208e-06
0.077039 	46.0915 	-0.290618 	0.000122656
0.0772933 	46.2337 	-0.292611 	-2.30212e-05
0.0775475 	46.377 	-0.293543 	-6.54398e-05
0.0778018 	46.5204 	-0.294476 	-0.000107859
0.0780561 	46.6637 	-0.295409 	-0.000150277
0.0783103 	46.807 	-0.296342 	-0.000173553
0.0785646 	46.9503 	-0.297275 	-0.000129324
0.0788188 	47.0937 	-0.298208 	-8.50945e-05
0.0790731 	47.237 	-0.299141 	-4.08655e-05
0.0793273 	47.3805 	-0.299941 	2.24102e-05
0.0795816 	47.5266 	-0.300138 	0.000198608
0.0798358 	47.6745 	-0.303257 	-1.10657e-05
0.0800901 	47.8239 	-0.304058 	-4.74452e-05
0.0803443 	47.9734 	-0.304859 	-8.38248e-05
0.0805986 	48.1228 	-0.30566 	-0.000120204
0.0808529 	48.2723 	-0.306461 	-0.00014661
0.0811071 	48.4217 	-0.307262 	-0.000108672
0.0813614 	48.5712 	-0.308063 	-7.07339e-05
0.0816156 	48.7206 	-0.308864 	-3.27959e-05
0.0818699 	48.8704 	-0.309283 	4.16223e-05
0.0821241 	49.0224 	-0.308082 	0.00027873
0.0823784 	49.1756 	-0.312852 	-1.96409e-06
0.0826326 	49.3308 	-0.313544 	-3.32029e-05
0.0828869 	49.4861 	-0.314236 	-6.44416e-05
0.0831411 	49.6413 	-0.314927 	-9.56804e-05
0.0833954 	49.7966 	-0.315619 	-0.00012388
0.0836496 	49.9518 	-0.316311 	-9.13044e-05
0.0839039 	50.1071 	-0.317003 	-5.87289e-05
0.0841582 	50.2624 	-0.317695 	-2.61533e-05
0.0844124 	50.4181 	-0.3176 	6.29415e-05
0.0846667 	50.5756 	-0.314549 	0.000365072
0.0849209 	50.7342 	-0.320332 	5.58196e-05
0.0851752 	50.8945 	-0.321856 	-2.15713e-05
0.0854294 	51.0552 	-0.322441 	-4.78938e-05
0.0856837 	51.2159 	-0.323027 	-7.42163e-05
0.0859379 	51.3766 	-0.323612 	-0.000100539
0.0861922 	51.5372 	-0.324198 	-7.51868e-05
0.0864464 	51.6979 	-0.324784 	-4.77451e-05
0.0867007 	51.8586 	-0.325369 	-2.03034e-05
0.086955 	52.0198 	-0.324653 	8.6461e-05
0.0872092 	52.1826 	-0.320233 	0.000418843
0.0874635 	52.3463 	-0.325964 	0.000136916
0.0877177 	52.5111 	-0.328956 	-1.22395e-05
0.087972 	52.6767 	-0.32943 	-3.35306e-05
0.0882262 	52.8423 	-0.329905 	-5.48216e-05
0.0884805 	53.0079 	-0.33038 	-7.61126e-05
0.0887347 	53.1735 	-0.330855 	-5.93766e-05
0.088989 	53.3391 	-0.331329 	-3.71914e-05
0.0892432 	53.5046 	-0.331804 	-1.50062e-05
0.0894975 	53.6709 	-0.33039 	0.000111266
0.0897518 	53.8384 	-0.325028 	0.00045511
0.090006 	54.0066 	-0.330116 	0.000223354
0.0902603 	54.1754 	-0.334851 	-4.06154e-06
0.0905145 	54.3452 	-0.335124 	-1.63726e-05
0.0907688 	54.515 	-0.335397 	-2.86836e-05
0.091023 	54.6848 	-0.33567 	-4.09946e-05
0.0912773 	54.8547 	-0.335943 	-3.35e-05
0.0915315 	55.0245 	-0.336215 	-2.06816e-05
0.0917858 	55.1943 	-0.336488 	-7.86319e-06
0.09204 	55.3648 	-0.334186 	0.000134595
0.0922943 	55.5362 	-0.327799 	0.000482774
0.0925485 	55.7082 	-0.331673 	0.000308808
0.0928028 	55.8804 	-0.338157 	5.26558e-08
0.0930571 	56.0536 	-0.338135 	6.66931e-07
0.0933113 	56.2268 	-0.338113 	1.28121e-06
0.0935656 	56.4 	-0.338091 	1.89548e-06
0.0938198 	56.5733 	-0.338069 	1.63062e-06
0.0940741 	56.7465 	-0.338046 	9.91687e-07
0.0943283 	56.9197 	-0.338024 	3.52752e-07
0.0945826 	57.0935 	-0.334734 	0.000154707
0.0948368 	57.268 	-0.327415 	0.000500084
0.0950911 	57.4428 	-0.329695 	0.000387843
0.0953453 	57.6177 	-0.336655 	5.2513e-05
0.0955996 	57.7932 	-0.337486 	1.09792e-05
0.0958539 	57.9688 	-0.337179 	2.3997e-05
0.0961081 	58.1443 	-0.336872 	3.70148e-05
0.0963624 	58.3199 	-0.336566 	3.37191e-05
0.0966166 	58.4954 	-0.336259 	2.01965e-05
0.0968709 	58.671 	-0.335952 	6.67389e-06
0.0971251 	58.847 	-0.331722 	0.000173046
0.0973794 	59.0234 	-0.323669 	0.000514719
0.0976336 	59.1998 	-0.324273 	0.000463501
0.0978879 	59.3764 	-0.331068 	0.000131397
0.0981421 	59.5529 	-0.333392 	1.56387e-05
0.0983964 	59.7294 	-0.33279 	4.15156e-05
0.0986507 	59.906 	-0.332188 	6.73925e-05
0.0989049 	60.0825 	-0.331585 	6.54604e-05
0.0991592 	60.259 	-0.330983 	3.86234e-05
0.0994134 	60.4355 	-0.330381 	1.17863e-05
0.0996677 	60.6121 	-0.325211 	0.00018813
0.0999219 	60.7888 	-0.316463 	0.000523585
0.100176 	60.9654 	-0.31529 	0.000532206
0.10043 	61.1421 	-0.321884 	0.000205706
0.100685 	61.3184 	-0.325701 	1.46072e-05
0.100939 	61.4942 	-0.324787 	5.40895e-05
0.101193 	61.67 	-0.323873 	9.35719e-05
0.101447 	61.8458 	-0.322959 	9.76939e-05
0.101702 	62.0216 	-0.322045 	5.68255e-05
0.101956 	62.1973 	-0.321131 	1.5957e-05
0.10221 	62.3727 	-0.315065 	0.000196718
0.102464 	62.5477 	-0.305698 	0.000519445
0.102719 	62.7227 	-0.302744 	0.000584615
0.102973 	62.8976 	-0.309245 	0.000270006
0.103227 	63.0723 	-0.314656 	7.33176e-06
0.103481 	63.2454 	-0.313464 	5.90458e-05
0.103736 	63.4185 	-0.312272 	0.00011076
0.10399 	63.5917 	-0.311081 	0.000125451
0.104244 	63.7648 	-0.309889 	7.20418e-05
0.104498 	63.9379 	-0.308697 	1.86322e-05
0.104753 	64.1098 	-0.301741 	0.000199372
0.105007 	64.2812 	-0.291697 	0.000505559
0.105261 	64.4525 	-0.286839 	0.000621579
0.105516 	64.6238 	-0.293301 	0.000322547
0.10577 	64.795 	-0.299764 	2.35153e-05
0.106024 	64.9636 	-0.298912 	5.92129e-05
0.106278 	65.1319 	-0.297436 	0.00012348
0.106533 	65.3003 	-0.295961 	0.000153327
0.106787 	65.4687 	-0.294485 	8.7123e-05
0.107041 	65.6371 	-0.29301 	2.09187e-05
0.107295 	65.8036 	-0.285162 	0.000195414
0.10755 	65.9692 	-0.274371 	0.000481096
0.107804 	66.1348 	-0.267436 	0.000640147
0.108058 	66.3001 	-0.273858 	0.000360564
0.108312 	66.4655 	-0.28028 	8.09801e-05
0.108567 	66.6281 	-0.280942 	5.23041e-05
0.108821 	66.7896 	-0.279256 	0.000125935
0.109075 	66.9511 	-0.27757 	0.000173458
0.109329 	67.1126 	-0.275883 	9.78241e-05
0.109584 	67.2741 	-0.274197 	2.21905e-05
0.109838 	67.433 	-0.265641 	0.000187848
0.110092 	67.5907 	-0.254233 	0.000453694
0.110346 	67.7485 	-0.245222 	0.000649219
0.110601 	67.9058 	-0.251766 	0.00038845
0.110855 	68.0631 	-0.258309 	0.00012768
0.111109 	68.218 	-0.260523 	4.33012e-05
0.111363 	68.3704 	-0.258584 	0.000128144
0.111618 	68.5228 	-0.256646 	0.000198309
0.111872 	68.6753 	-0.254707 	0.000111434
0.112126 	68.8277 	-0.252768 	2.45588e-05
0.11238 	68.9767 	-0.243428 	0.000175013
0.112635 	69.1243 	-0.231172 	0.000418998
0.112889 	69.272 	-0.219719 	0.000642296
0.113143 	69.4191 	-0.226259 	0.000402366
0.113397 	69.5662 	-0.232799 	0.000162437
0.113652 	69.7113 	-0.236498 	3.18922e-05
0.113906 	69.8524 	-0.234243 	0.000130635
0.11416 	69.9935 	-0.231988 	0.000229379
0.114414 	70.1345 	-0.229734 	0.000129516
0.114669 	70.2756 	-0.227479 	2.87538e-05
0.114923 	70.4125 	-0.217456 	0.00015583
0.115177 	70.5476 	-0.204332 	0.000373886
0.115431 	70.6828 	-0.191207 	0.000591941
0.115686 	70.8172 	-0.196957 	0.000397852
0.11594 	70.9517 	-0.203665 	0.000182838
0.116194 	71.0851 	-0.209 	1.61543e-05
0.116448 	71.2125 	-0.206537 	0.000124104
0.116703 	71.3399 	-0.204074 	0.000232053
0.116957 	71.4672 	-0.201611 	0.000142984
0.117211 	71.5946 	-0.199148 	3.32323e-05
0.117465 	71.7171 	-0.188614 	0.000137667
0.11772 	71.8375 	-0.174575 	0.000335122
0.117974 	71.9579 	-0.160535 	0.000532578
0.118228 	72.0775 	-0.164474 	0.000392154
0.118482 	72.197 	-0.171331 	0.00019689
0.118737 	72.3165 	-0.178188 	1.6258e-06
0.118991 	72.428 	-0.175659 	0.00011336
0.119245 	72.5395 	-0.17305 	0.000227671
0.119499 	72.6509 	-0.170442 	0.000154689
0.119754 	72.7624 	-0.167833 	3.89207e-05
0.120008 	72.8685 	-0.1572 	0.000119831
0.120262 	72.972 	-0.142504 	0.000300351
0.120517 	73.0755 	-0.127807 	0.000480871
0.120771 	73.1782 	-0.129913 	0.000384946
0.121025 	73.2807 	-0.137073 	0.000205888
0.121279 	73.3832 	-0.144233 	2.68295e-05
0.121534 	73.4782 	-0.14303 	9.96835e-05
0.121788 	73.5719 	-0.140353 	0.000216936
0.122042 	73.6655 	-0.137676 	0.000163984
0.122296 	73.7592 	-0.134999 	4.57164e-05
0.122551 	73.8475 	-0.124659 	0.00010002
0.122805 	73.9323 	-0.10949 	0.000263066
0.123059 	74.0172 	-0.0943206 	0.000426111
0.123313 	74.1014 	-0.0945265 	0.000368926
0.123568 	74.1852 	-0.102066 	0.000206696
0.123822 	74.2691 	-0.109605 	4.44661e-05
0.124076 	74.3462 	-0.109774 	8.30264e-05
0.12433 	74.4207 	-0.10716 	0.000197402
0.124585 	74.4953 	-0.104546 	0.000167105
0.124839 	74.5698 	-0.101932 	5.22121e-05
0.125093 	74.6393 	-0.0923716 	8.01011e-05
0.125347 	74.7046 	-0.0770255 	0.000226925
0.125602 	74.7699 	-0.0616794 	0.00037375
0.125856 	74.8345 	-0.0600335 	0.000348914
0.12611 	74.8987 	-0.0680995 	0.000202391
0.126364 	74.963 	-0.0761656 	5.58683e-05
0.126619 	75.0214 	-0.0777429 	6.54498e-05
0.126873 	75.0763 	-0.0753213 	0.000171235
0.127127 	75.1312 	-0.0728997 	0.000162896
0.127381 	75.1861 	-0.0704782 	5.70199e-05
0.127636 	75.2366 	-0.0621114 	6.15757e-05
0.12789 	75.2821 	-0.0468059 	0.000195015
0.128144 	75.3277 	-0.0315005 	0.000328455
0.128398 	75.3727 	-0.0280189 	0.000330257
0.128653 	75.4172 	-0.0366865 	0.000196798
0.128907 	75.4618 	-0.0453541 	6.3338e-05
0.129161 	75.5016 	-0.0483425 	4.90692e-05
0.129415 	75.5372 	-0.0462012 	0.00014246
0.12967 	75.5727 	-0.04406 	0.000152368
0.129924 	75.6083 	-0.0419187 	5.90951e-05
0.130178 	75.6405 	-0.0350425 	4.47832e-05
0.130432 	75.6671 	-0.0199795 	0.000166998
0.130687 	75.6936 	-0.00491653 	0.000289212
0.130941 	75.7198 	0.000357486 	0.000313283
0.131195 	75.7455 	-0.0089777 	0.000190882
0.131449 	75.7712 	-0.0183129 	6.84818e-05
0.131704 	75.7932 	-0.0227415 	3.4569e-05
0.131958 	75.8106 	-0.0209384 	0.000113044
0.132212 	75.8281 	-0.0191353 	0.000135835
0.132466 	75.8455 	-0.0173322 	5.75746e-05
0.132721 	75.8607 	-0.012111 	3.01516e-05
0.132975 	75.8698 	0.00262339 	0.000144223
0.133229 	75.8789 	0.0173578 	0.000258294
0.133483 	75.8878 	0.024461 	0.000301728
0.133738 	75.8962 	0.0145159 	0.000187359
0.133992 	75.9046 	0.00457075 	7.29902e-05
0.134246 	75.9103 	-0.0012353 	2.3464e-05
0.134501 	75.9114 	0.000259774 	8.8317e-05
0.134755 	75.9124 	0.00175485 	0.000119087
0.135009 	75.9135 	0.00324992 	5.45003e-05
0.135263 	75.9134 	0.0067619 	1.67974e-05
0.135518 	75.907 	0.021172 	0.000124358
0.135772 	75.9007 	0.0355822 	0.000231918
0.136026 	75.8942 	0.0445996 	0.000292668
0.13628 	75.8873 	0.0341821 	0.000184714
0.136535 	75.8804 	0.0237646 	7.67598e-05
0.136789 	75.8716 	0.0167214 	1.57161e-05
0.137043 	75.8583 	0.0179811 	7.01049e-05
0.137297 	75.8449 	0.0192407 	0.000105903
0.137552 	75.8316 	0.0205004 	5.18106e-05
0.137806 	75.818 	0.022303 	4.25199e-06
0.13806 	75.7982 	0.0364345 	0.00010506
0.138314 	75.7784 	0.050566 	0.000205868
0.138569 	75.7586 	0.0615751 	0.000281373
0.138823 	75.7384 	0.0507682 	0.000180094
0.139077 	75.7181 	0.0399613 	7.88141e-05
0.139331 	75.6967 	0.0317947 	1.04337e-05
0.139586 	75.6708 	0.0328905 	5.7471e-05
0.13984 	75.645 	0.0339864 	9.70571e-05
0.140094 	75.6192 	0.0350822 	5.03379e-05
0.140348 	75.5933 	0.0361781 	3.6187e-06
0.140603 	75.5623 	0.0491729 	8.66013e-05
0.140857 	75.5309 	0.0631668 	0.000180473
0.141111 	75.4995 	0.0763281 	0.000268092
0.141365 	75.4677 	0.0652538 	0.000173688
0.14162 	75.4359 	0.0541796 	7.92833e-05
0.141874 	75.4033 	0.0450385 	6.79436e-06
0.142128 	75.3665 	0.0460332 	4.92128e-05
0.142382 	75.3298 	0.0470278 	9.16312e-05
0.142637 	75.293 	0.0480224 	5.05993e-05
0.142891 	75.2563 	0.0490171 	8.52119e-06
0.143145 	75.2156 	0.0603405 	6.97759e-05
0.143399 	75.1739 	0.0742868 	0.00015727
0.143654 	75.1322 	0.088233 	0.000244764
0.143908 	75.0902 	0.0784734 	0.000167007
0.144162 	75.0482 	0.0672338 	7.89333e-05
0.144416 	75.0057 	0.0572579 	4.11857e-06
0.144671 	74.9592 	0.0581944 	4.38033e-05
0.144925 	74.9128 	0.0591308 	8.34881e-05
0.145179 	74.8663 	0.0600672 	5.24003e-05
0.145433 	74.8198 	0.0610037 	1.30817e-05
0.145688 	74.7704 	0.0706087 	5.43868e-05
0.145942 	74.7195 	0.0845359 	0.000135891
0.146196 	74.6686 	0.098463 	0.000217394
0.14645 	74.6174 	0.0909228 	0.000159936
0.146705 	74.5662 	0.079573 	7.78184e-05
0.146959 	74.5148 	0.0688643 	1.96889e-06
0.147213 	74.4596 	0.0697573 	3.95747e-05
0.147467 	74.4043 	0.0706504 	7.71805e-05
0.147722 	74.349 	0.0715435 	5.46238e-05
0.147976 	74.2937 	0.0724366 	1.74079e-05
0.14823 	74.2363 	0.080247 	4.01592e-05
0.148484 	74.177 	0.0941365 	0.000115611
0.148739 	74.1176 	0.108026 	0.000191063
0.148993 	74.0581 	0.102723 	0.000151746
0.149247 	73.9985 	0.0912708 	7.56608e-05
0.149502 	73.939 	0.0798874 	1.96163e-07
0.149756 	73.8756 	0.0807285 	3.53468e-05
0.15001 	73.8123 	0.0815695 	7.04974e-05
0.150264 	73.749 	0.0824105 	5.58514e-05
0.150519 	73.6856 	0.0832516 	2.1103e-05
0.150773 	73.6208 	0.0891888 	2.72398e-05
0.151027 	73.5537 	0.103007 	9.66062e-05
0.151281 	73.4867 	0.116826 	0.000165973
0.151536 	73.4195 	0.113753 	0.000142591
0.15179 	73.3522 	0.10219 	7.25868e-05
0.152044 	73.2849 	0.0906273 	2.58232e-06
0.152298 	73.2143 	0.0909466 	3.08767e-05
0.152553 	73.1436 	0.091721 	6.29361e-05
0.152807 	73.0729 	0.0924954 	5.54377e-05
0.153061 	73.0022 	0.0932698 	2.37772e-05
0.153315 	72.9306 	0.0972665 	1.57915e-05
0.15357 	72.8565 	0.110982 	7.92125e-05
0.153824 	72.7823 	0.124697 	0.000142633
0.154078 	72.7081 	0.123845 	0.000132934
0.154332 	72.6338 	0.112164 	6.88821e-05
0.154587 	72.5595 	0.100483 	4.83023e-06
0.154841 	72.4824 	0.100246 	2.6305e-05
0.155095 	72.405 	0.100941 	5.47554e-05
0.155349 	72.3276 	0.101637 	5.32906e-05
0.155604 	72.2502 	0.102333 	2.52204e-05
0.155858 	72.1725 	0.104338 	5.8636e-06
0.156112 	72.092 	0.117924 	6.36181e-05
0.156366 	72.0115 	0.13151 	0.000121373
0.156621 	71.9309 	0.132867 	0.00012318
0.156875 	71.8503 	0.121069 	6.48109e-05
0.157129 	71.7697 	0.10927 	6.44221e-06
0.157383 	71.6867 	0.108511 	2.18289e-05
0.157638 	71.6034 	0.109121 	4.63661e-05
0.157892 	71.52 	0.109731 	4.95701e-05
0.158146 	71.4367 	0.110342 	2.53815e-05
0.1584 	71.3534 	0.110952 	1.19288e-06
0.158655 	71.2674 	0.123756 	4.98394e-05
0.158909 	71.1813 	0.137192 	0.000102264
0.159163 	71.0952 	0.140746 	0.000113566
0.159417 	71.0091 	0.128841 	6.05514e-05
0.159672 	70.923 	0.116936 	7.53645e-06
0.159926 	70.8348 	0.115692 	1.76039e-05
0.16018 	70.7463 	0.116213 	3.81251e-05
0.160434 	70.6579 	0.116735 	4.45343e-05
0.160689 	70.5694 	0.117257 	2.43202e-05
0.160943 	70.4809 	0.117779 	4.10607e-06
0.161197 	70.3905 	0.128459 	3.7779e-05
0.161451 	70.2996 	0.141727 	8.51881e-05
0.161706 	70.2088 	0.147462 	0.00010415
0.16196 	70.1179 	0.13547 	5.61802e-05
0.162214 	70.0271 	0.123479 	8.21081e-06
0.162468 	69.9346 	0.121787 	1.37225e-05
0.162723 	69.8417 	0.122221 	3.02789e-05
0.162977 	69.7489 	0.122656 	3.84542e-05
0.163231 	69.6561 	0.12309 	2.21566e-05
0.163485 	69.5633 	0.123524 	5.85905e-06
0.16374 	69.4692 	0.132059 	2.72612e-05
0.163994 	69.3743 	0.14514 	6.98238e-05
0.164248 	69.2795 	0.153031 	9.46959e-05
0.164503 	69.1848 	0.140984 	5.16092e-05
0.164757 	69.09 	0.128936 	8.52256e-06
0.165011 	68.994 	0.126834 	1.02079e-05
0.165265 	68.8976 	0.127183 	2.29328e-05
0.16552 	68.8012 	0.127533 	3.1522e-05
0.165774 	68.7049 	0.127883 	1.90035e-05
0.166028 	68.6085 	0.128233 	6.48506e-06
0.166282 	68.5114 	0.134616 	1.81608e-05
0.166537 	68.4134 	0.147484 	5.58418e-05
0.166791 	68.3155 	0.157488 	8.48107e-05
0.167045 	68.2176 	0.145424 	4.66498e-05
0.167299 	68.1197 	0.13336 	8.48894e-06
0.167554 	68.0209 	0.130885 	7.03751e-06
0.167808 	67.9218 	0.131153 	1.60884e-05
0.168062 	67.8227 	0.131421 	2.38359e-05
0.168316 	67.7236 	0.131689 	1.49364e-05
0.168571 	67.6245 	0.131957 	6.03682e-06
0.168825 	67.525 	0.136199 	1.04917e-05
0.169079 	67.4247 	0.148822 	4.31076e-05
0.169333 	67.3244 	0.160872 	7.41985e-05
0.169588 	67.2242 	0.148837 	4.11554e-05
0.169842 	67.124 	0.136803 	8.11238e-06
0.170096 	67.0231 	0.133992 	4.19839e-06
0.17035 	66.9221 	0.134182 	9.76291e-06
0.170605 	66.821 	0.134372 	1.53274e-05
0.170859 	66.7199 	0.134562 	1.00632e-05
0.171113 	66.6189 	0.134752 	4.59401e-06
0.171367 	66.5176 	0.136888 	4.37446e-06
0.171622 	66.4157 	0.149232 	3.17114e-05
0.171876 	66.3138 	0.161576 	5.90483e-05
0.17213 	66.2119 	0.151288 	3.51093e-05
0.172384 	66.1101 	0.139338 	7.40648e-06
0.172639 	66.0079 	0.13623 	1.73384e-06
0.172893 	65.9056 	0.136348 	4.10037e-06
0.173147 	65.8033 	0.136467 	6.4669e-06
0.173401 	65.701 	0.136585 	4.6565e-06
0.173656 	65.5986 	0.136703 	2.33129e-06
0.17391 	65.4963 	0.136822 	6.08621e-09
0.174164 	65.3934 	0.148821 	2.17906e-05
0.174418 	65.2906 	0.160852 	4.36383e-05
0.174673 	65.1878 	0.152868 	2.85307e-05
0.174927 	65.0851 	0.141072 	6.38564e-06
0.175181 	64.9823 	0.137707 	-4.0823e-07
0.175435 	64.8793 	0.137759 	-9.81884e-07
0.17569 	64.7764 	0.137811 	-1.55554e-06
0.175944 	64.6735 	0.137863 	-1.22045e-06
0.176198 	64.5706 	0.137915 	-6.5695e-07
0.176452 	64.4677 	0.137967 	-9.34543e-08
0.176707 	64.3646 	0.147705 	1.34275e-05
0.176961 	64.2614 	0.15937 	2.9525e-05
0.177215 	64.1584 	0.153643 	2.13595e-05
0.177469 	64.0554 	0.14207 	5.04037e-06
0.177724 	63.9525 	0.138488 	-2.29628e-06
0.177978 	63.8496 	0.138477 	-5.61875e-06
0.178232 	63.7467 	0.138466 	-8.94122e-06