/*--------------------------------*- C++ -*----------------------------------*\
| =========                 |                                                 |
| \\      /  F ield         | OpenFOAM: The Open Source CFD Toolbox           |
|  \\    /   O peration     | Version:  v3.0+                                 |
|   \\  /    A nd           | Web:      www.OpenFOAM.com                      |
|    \\/     M anipulation  |                                                 |
\*---------------------------------------------------------------------------*/
FoamFile
{
    version     2.0;
    format      ascii;
    class       volVectorField;
    location    "4000";
    object      D;
}
// * * * * * * * * * * * * * * * * * * * * * * * * * * * * * * * * * * * * * //

dimensions      [0 1 0 0 0 0 0];

internalField   nonuniform List<vector> 
27023
(
(6.33777e-07 1.88674e-07 0)
(-6.34485e-07 1.88763e-07 0)
(-5.09122e-07 1.40322e-07 0)
(5.08557e-07 1.40204e-07 0)
(6.2494e-07 1.82211e-07 0)
(-6.25641e-07 1.82308e-07 0)
(-2.27582e-06 1.73494e-06 0)
(2.27395e-06 1.73484e-06 0)
(-2.95946e-07 8.39604e-08 0)
(2.95593e-07 8.37493e-08 0)
(-1.6323e-06 9.94323e-07 0)
(1.63067e-06 9.94305e-07 0)
(-6.94739e-08 6.03324e-08 0)
(6.93931e-08 6.00537e-08 0)
(1.20322e-06 4.07038e-06 0)
(-5.15638e-08 4.62194e-07 0)
(-6.35371e-08 4.36726e-07 0)
(2.35528e-06 3.62998e-06 0)
(-2.35767e-06 3.6301e-06 0)
(-1.66309e-06 3.17511e-06 0)
(1.66073e-06 3.17503e-06 0)
(-2.29619e-06 1.75962e-06 0)
(2.29431e-06 1.75951e-06 0)
(-1.45548e-06 1.4699e-06 0)
(1.45355e-06 1.46984e-06 0)
(-3.17733e-07 2.76839e-06 0)
(9.91409e-07 1.00221e-06 0)
(-8.82874e-07 6.90568e-05 0)
(1.0139e-06 1.02555e-06 0)
(-3.37147e-06 1.83835e-05 0)
(-6.00175e-07 2.95875e-06 0)
(-1.6991e-06 3.21077e-06 0)
(1.69674e-06 3.21068e-06 0)
(2.30064e-06 5.99132e-06 0)
(1.21874e-06 4.13445e-06 0)
(-2.29246e-06 9.28977e-06 0)
(-1.39194e-06 2.45015e-06 0)
(1.38973e-06 2.45008e-06 0)
(-3.04298e-07 8.58587e-08 0)
(3.03965e-07 8.56714e-08 0)
(4.99039e-07 1.37174e-07 0)
(-4.99592e-07 1.37294e-07 0)
(2.0892e-06 1.80935e-05 0)
(6.37446e-07 1.88089e-07 0)
(-6.38161e-07 1.88183e-07 0)
(-2.39021e-06 3.67269e-06 0)
(2.38781e-06 3.67257e-06 0)
(-1.503e-06 2.0289e-06 0)
(1.50093e-06 2.0288e-06 0)
(-2.17376e-06 9.31077e-06 0)
(-1.47097e-06 2.01151e-06 0)
(1.4689e-06 2.01141e-06 0)
(2.36068e-06 6.06967e-06 0)
(-6.00624e-08 3.02602e-08 0)
(5.99614e-08 3.00479e-08 0)
(-2.55008e-06 5.91399e-06 0)
(-2.64782e-06 2.41245e-05 0)
(-1.0856e-05 9.61993e-05 0)
(1.22478e-06 9.44836e-06 0)
(-5.04637e-07 1.39309e-07 0)
(5.04081e-07 1.39202e-07 0)
(-3.11e-06 1.82882e-05 0)
(-1.69932e-07 3.72466e-06 0)
(-1.25986e-06 6.58542e-05 0)
(2.29488e-06 1.82967e-05 0)
(-5.61739e-07 2.95127e-06 0)
(-1.59003e-06 3.64996e-06 0)
(-3.50541e-07 2.76023e-06 0)
(9.73076e-07 6.3477e-07 0)
(1.34983e-06 9.44425e-06 0)
(-1.36236e-06 2.45562e-06 0)
(1.36014e-06 2.45555e-06 0)
(-1.96028e-06 1.90331e-06 0)
(1.95829e-06 1.90321e-06 0)
(-3.3352e-06 3.48251e-06 0)
(3.3329e-06 3.48232e-06 0)
(-3.92466e-08 4.3272e-08 0)
(3.92037e-08 4.30347e-08 0)
(2.76901e-06 2.32892e-06 0)
(-2.77105e-06 2.32908e-06 0)
(8.67257e-07 1.81989e-06 0)
(-1.61985e-06 9.87521e-07 0)
(1.61821e-06 9.87504e-07 0)
(-1.94175e-06 1.91096e-06 0)
(1.93976e-06 1.91086e-06 0)
(3.64682e-06 3.70411e-06 0)
(-3.64915e-06 3.70432e-06 0)
(1.58913e-06 3.64481e-06 0)
(-1.19514e-07 6.9919e-05 0)
(1.49196e-05 0.000217246 0)
(-1.44813e-05 0.000217122 0)
(-6.96796e-07 2.04438e-07 0)
(6.96002e-07 2.04339e-07 0)
(-5.76234e-07 4.87904e-07 0)
(1.12916e-07 4.57845e-08 0)
(1.40363e-06 1.3239e-06 0)
(-1.40553e-06 1.32394e-06 0)
(8.85217e-07 1.80079e-06 0)
(1.58892e-06 1.40744e-05 0)
(-3.03432e-08 1.12845e-05 0)
(3.14262e-06 1.9998e-05 0)
(1.49959e-05 0.000220375 0)
(-1.42774e-05 0.000220459 0)
(-2.03934e-06 1.61253e-06 0)
(2.03747e-06 1.61245e-06 0)
(-1.80794e-07 1.12103e-05 0)
(-2.28124e-06 1.8623e-06 0)
(2.27931e-06 1.86219e-06 0)
(-2.56451e-06 5.84704e-06 0)
(-1.16126e-05 9.74489e-05 0)
(-2.35722e-06 2.44171e-05 0)
(-2.27376e-06 1.8721e-06 0)
(2.27182e-06 1.87199e-06 0)
(-1.42606e-06 1.44406e-06 0)
(1.42413e-06 1.44401e-06 0)
(-3.34973e-06 3.52884e-06 0)
(3.34743e-06 3.52864e-06 0)
(-5.41255e-07 2.84108e-08 0)
(9.09919e-07 3.09477e-07 0)
(1.00054e-06 2.75133e-06 0)
(-9.79244e-07 4.81248e-06 0)
(-1.25276e-07 3.71487e-06 0)
(1.56745e-06 8.93536e-07 0)
(-1.56891e-06 8.93576e-07 0)
(-2.45351e-06 1.89375e-06 0)
(2.45159e-06 1.89362e-06 0)
(-6.99199e-07 2.02029e-07 0)
(6.98397e-07 2.01927e-07 0)
(-2.01668e-06 1.58505e-06 0)
(2.01481e-06 1.58497e-06 0)
(1.39354e-06 1.39458e-05 0)
(1.06533e-08 2.17072e-08 0)
(-1.0518e-08 2.12192e-08 0)
(5.88958e-07 3.05224e-06 0)
(-9.196e-07 4.82474e-06 0)
(3.6724e-06 3.75038e-06 0)
(-3.67473e-06 3.75059e-06 0)
(-3.0311e-07 1.56163e-06 0)
(-2.29748e-06 3.27876e-06 0)
(2.29517e-06 3.27863e-06 0)
(2.06789e-06 1.48918e-06 0)
(-2.06969e-06 1.48925e-06 0)
(2.04613e-07 1.71898e-06 0)
(-2.20382e-06 1.66487e-06 0)
(2.20197e-06 1.66477e-06 0)
(5.91056e-07 3.09699e-06 0)
(2.21371e-06 2.55271e-05 0)
(-1.18529e-06 8.13554e-07 0)
(-1.63021e-06 3.6776e-06 0)
(-9.76407e-07 3.76349e-07 0)
(9.75352e-07 3.76294e-07 0)
(-1.14663e-06 4.74395e-07 0)
(1.14538e-06 4.74346e-07 0)
(2.44784e-06 1.45796e-05 0)
(1.03915e-06 2.74482e-06 0)
(1.10804e-05 0.00012946 0)
(-1.10057e-05 0.00012941 0)
(-1.26036e-06 4.17131e-06 0)
(-2.30027e-06 3.24325e-06 0)
(2.29796e-06 3.24313e-06 0)
(4.34123e-06 1.19271e-05 0)
(2.62116e-06 2.55861e-05 0)
(8.25673e-06 4.11464e-05 0)
(-3.05094e-07 1.03439e-05 0)
(1.31784e-06 6.29843e-07 0)
(-1.31921e-06 6.29884e-07 0)
(1.92327e-06 1.33716e-06 0)
(-1.92503e-06 1.33721e-06 0)
(6.43382e-07 1.88179e-06 0)
(-6.62429e-08 1.84215e-06 0)
(-1.29033e-06 6.48389e-05 0)
(2.74548e-06 2.29964e-06 0)
(-2.7475e-06 2.29981e-06 0)
(9.0872e-06 0.000129848 0)
(-9.02512e-06 0.00012977 0)
(6.55135e-06 7.05266e-05 0)
(-2.00231e-07 1.0267e-05 0)
(2.12546e-07 1.69339e-06 0)
(5.50194e-06 7.06456e-05 0)
(-3.29136e-07 1.54329e-06 0)
(1.6306e-06 3.67237e-06 0)
(2.04674e-06 1.47659e-06 0)
(-2.04854e-06 1.47667e-06 0)
(2.99828e-06 2.02924e-05 0)
(2.76651e-06 5.43672e-06 0)
(2.8444e-06 5.44165e-06 0)
(1.37587e-06 1.32162e-06 0)
(-1.37777e-06 1.32166e-06 0)
(8.01138e-06 4.1645e-05 0)
(2.36076e-06 3.43576e-05 0)
(1.90807e-06 1.31645e-06 0)
(-1.90982e-06 1.31651e-06 0)
(7.93864e-07 1.50312e-06 0)
(-2.88418e-07 6.46205e-06 0)
(-2.45085e-06 1.90314e-06 0)
(2.44893e-06 1.90301e-06 0)
(6.51813e-06 2.01313e-05 0)
(1.81147e-06 1.18781e-06 0)
(-1.81316e-06 1.18785e-06 0)
(8.89421e-07 3.02894e-07 0)
(-1.3128e-06 4.19846e-06 0)
(9.56456e-07 6.48559e-07 0)
(-3.7887e-06 4.39908e-06 0)
(3.78624e-06 4.39888e-06 0)
(6.24519e-07 1.80165e-07 0)
(-6.25224e-07 1.80266e-07 0)
(8.37233e-07 2.61484e-06 0)
(4.71289e-06 1.15146e-05 0)
(-3.72654e-06 4.35755e-06 0)
(3.72409e-06 4.35735e-06 0)
(-4.1031e-10 9.28944e-09 0)
(4.07105e-10 9.23484e-09 0)
(-5.41895e-07 4.69115e-07 0)
(8.73814e-07 2.63103e-06 0)
(3.18789e-07 9.29948e-08 0)
(-3.19153e-07 9.32758e-08 0)
(9.10345e-07 1.4581e-06 0)
(-9.06622e-08 1.82373e-06 0)
(-8.46498e-07 4.2033e-05 0)
(2.99106e-06 2.8438e-06 0)
(-2.99322e-06 2.84398e-06 0)
(2.54272e-06 3.49434e-05 0)
(1.5824e-06 9.08045e-07 0)
(-1.58388e-06 9.08085e-07 0)
(2.42452e-06 1.47921e-05 0)
(-2.68308e-06 2.77517e-06 0)
(2.68092e-06 2.77501e-06 0)
(-1.90822e-06 1.72321e-06 0)
(1.90628e-06 1.72313e-06 0)
(-1.70352e-07 6.3628e-08 0)
(1.70162e-07 6.33928e-08 0)
(-2.44101e-06 9.87108e-05 0)
(-2.77587e-06 2.83028e-06 0)
(2.7737e-06 2.83012e-06 0)
(4.19951e-06 1.17568e-05 0)
(-3.04025e-06 3.39035e-06 0)
(3.03797e-06 3.39018e-06 0)
(-5.21102e-06 7.3526e-06 0)
(-1.73352e-06 5.32898e-06 0)
(2.32884e-06 1.7548e-06 0)
(-2.33071e-06 1.75492e-06 0)
(-1.00292e-06 7.72663e-07 0)
(-7.44458e-06 2.89464e-05 0)
(-3.7036e-06 8.41074e-06 0)
(2.03777e-06 4.54032e-06 0)
(-5.70175e-07 2.99113e-07 0)
(7.42204e-08 2.42187e-05 0)
(9.09301e-07 8.95286e-07 0)
(-4.62121e-06 1.72709e-05 0)
(2.07209e-06 4.6056e-06 0)
(2.55609e-06 2.16483e-06 0)
(-2.55809e-06 2.16498e-06 0)
(1.84679e-06 1.33438e-05 0)
(4.82144e-07 7.8572e-07 0)
(6.56098e-06 2.09643e-05 0)
(4.70218e-06 1.16734e-05 0)
(-4.3881e-06 7.46039e-06 0)
(4.87159e-06 1.42105e-05 0)
(-1.89546e-06 3.31478e-06 0)
(1.89309e-06 3.31469e-06 0)
(-4.79858e-07 -1.48738e-09 0)
(-1.21585e-07 1.29637e-06 0)
(-1.03547e-05 5.38971e-05 0)
(-3.07899e-06 3.38085e-06 0)
(3.07671e-06 3.38068e-06 0)
(-2.22478e-06 1.68692e-06 0)
(2.22291e-06 1.68682e-06 0)
(-3.42205e-07 4.30126e-06 0)
(3.81449e-07 7.79331e-07 0)
(-1.55185e-06 8.69576e-07 0)
(1.55037e-06 8.69541e-07 0)
(-5.51039e-06 3.82537e-05 0)
(8.87883e-07 3.53981e-06 0)
(2.54606e-06 8.31506e-06 0)
(-8.98885e-07 1.62991e-05 0)
(-2.47697e-07 6.54833e-06 0)
(1.33191e-06 6.43253e-07 0)
(-1.33329e-06 6.43293e-07 0)
(1.9742e-06 3.62551e-06 0)
(-1.97664e-06 3.62559e-06 0)
(-5.92542e-06 2.94803e-05 0)
(3.23191e-06 8.56638e-06 0)
(-1.11353e-05 0.000234708 0)
(1.1026e-05 0.000234467 0)
(4.59602e-09 3.77015e-08 0)
(-4.57305e-09 3.79259e-08 0)
(1.17826e-06 7.35753e-06 0)
(1.92128e-06 9.77132e-06 0)
(-3.16604e-07 2.75458e-07 0)
(-1.05055e-06 4.02128e-07 0)
(-3.11211e-06 0.000194264 0)
(1.28134e-06 7.47674e-06 0)
(2.51865e-06 2.53521e-06 0)
(-2.52076e-06 2.53535e-06 0)
(3.38995e-06 3.37349e-06 0)
(-3.39222e-06 3.37369e-06 0)
(4.1519e-06 1.69951e-05 0)
(-3.6839e-06 7.682e-06 0)
(3.62517e-06 4.07898e-06 0)
(-3.62757e-06 4.07917e-06 0)
(-6.27099e-08 6.7472e-08 0)
(-2.08715e-07 5.064e-07 0)
(1.98326e-06 1.45496e-06 0)
(-1.98507e-06 1.45502e-06 0)
(2.61508e-07 -6.12853e-09 0)
(-4.55239e-07 1.09181e-07 0)
(4.547e-07 1.08992e-07 0)
(-9.31158e-07 1.45166e-06 0)
(-1.35831e-06 4.56952e-06 0)
(5.61524e-07 2.3338e-05 0)
(-6.58902e-07 5.90394e-05 0)
(-8.51733e-09 3.53188e-08 0)
(8.54537e-09 3.5095e-08 0)
(-2.0937e-07 5.09016e-08 0)
(2.09143e-07 5.07176e-08 0)
(-3.53548e-06 1.53827e-05 0)
(1.62882e-06 2.62112e-06 0)
(-1.63104e-06 2.62121e-06 0)
(-5.67581e-08 2.74248e-06 0)
(-1.51912e-06 5.66095e-06 0)
(-1.02398e-07 7.33431e-08 0)
(1.02259e-07 7.30015e-08 0)
(1.09359e-06 1.08623e-06 0)
(6.77916e-07 1.66542e-07 0)
(5.36444e-07 2.97138e-08 0)
(-1.81056e-06 7.3972e-06 0)
(6.01618e-06 1.34794e-05 0)
(-4.05409e-07 4.31877e-06 0)
(-1.15273e-06 7.94898e-07 0)
(1.29762e-06 7.54006e-07 0)
(5.2798e-07 1.1785e-06 0)
(-1.29909e-06 7.54453e-07 0)
(6.95192e-06 1.45381e-05 0)
(-1.0918e-07 4.61919e-08 0)
(-3.25914e-06 1.53391e-05 0)
(8.47042e-07 3.02354e-07 0)
(-8.47967e-07 3.02418e-07 0)
(5.99602e-07 2.8185e-06 0)
(-2.82783e-07 5.32797e-07 0)
(-2.09439e-06 1.7892e-06 0)
(2.09246e-06 1.7891e-06 0)
(9.57049e-06 3.64872e-05 0)
(-9.61353e-06 3.64956e-05 0)
(-6.69311e-10 9.08302e-09 0)
(6.64693e-10 9.02949e-09 0)
(9.1721e-07 6.32074e-07 0)
(-6.61372e-07 2.08584e-07 0)
(6.60644e-07 2.08513e-07 0)
(3.44149e-06 3.37014e-05 0)
(-5.0466e-07 3.93083e-06 0)
(6.76477e-06 3.23488e-05 0)
(-6.76858e-06 3.23489e-05 0)
(-2.82184e-06 2.84871e-06 0)
(2.81967e-06 2.84854e-06 0)
(-4.50019e-08 2.72815e-08 0)
(4.49384e-08 2.70827e-08 0)
(-1.67983e-07 1.00874e-07 0)
(2.69641e-06 2.31126e-06 0)
(-2.69845e-06 2.31141e-06 0)
(3.36425e-07 8.67124e-06 0)
(1.02367e-06 4.42308e-07 0)
(3.51671e-06 4.11872e-06 0)
(-3.51913e-06 4.11891e-06 0)
(1.95771e-06 1.31946e-06 0)
(-1.95943e-06 1.31952e-06 0)
(-4.28295e-06 9.55737e-05 0)
(3.18574e-06 1.50409e-05 0)
(1.73799e-07 6.00702e-07 0)
(7.86954e-07 2.53872e-07 0)
(-7.87835e-07 2.53952e-07 0)
(2.78136e-06 2.4095e-06 0)
(-2.78342e-06 2.40966e-06 0)
(4.7641e-07 2.75799e-07 0)
(2.69389e-06 4.97747e-06 0)
(5.24019e-07 2.05014e-08 0)
(3.48665e-06 7.50213e-06 0)
(2.69196e-06 5.04408e-06 0)
(1.10874e-06 1.61547e-06 0)
(8.01446e-06 5.61391e-05 0)
(-1.27161e-06 2.18486e-06 0)
(-1.45156e-06 5.61368e-06 0)
(1.26947e-06 2.18474e-06 0)
(-2.33611e-06 1.80952e-06 0)
(2.33421e-06 1.8094e-06 0)
(9.07106e-07 9.49257e-07 0)
(-4.1251e-07 1.80158e-06 0)
(-2.73198e-06 3.36433e-05 0)
(5.11232e-06 1.43865e-05 0)
(1.23337e-06 8.24019e-07 0)
(6.74591e-08 -1.06009e-07 0)
(8.42209e-07 7.21269e-07 0)
(-5.96847e-06 0.000194498 0)
(-1.02543e-06 4.42487e-07 0)
(-4.80799e-06 0.00021589 0)
(-3.03788e-08 4.10772e-07 0)
(5.57998e-07 9.40398e-06 0)
(-1.75387e-06 5.11323e-06 0)
(-2.32916e-06 2.19493e-05 0)
(5.85115e-06 9.89399e-06 0)
(1.91113e-06 5.12374e-06 0)
(-1.89273e-06 1.73228e-06 0)
(1.89078e-06 1.73219e-06 0)
(-6.62986e-07 3.5781e-07 0)
(8.04395e-07 1.47733e-06 0)
(-1.93067e-06 5.89829e-05 0)
(8.14362e-07 2.62974e-07 0)
(-8.15279e-07 2.63056e-07 0)
(-1.83619e-08 2.22228e-06 0)
(-8.55116e-07 4.07153e-06 0)
(1.26702e-06 1.14065e-06 0)
(-8.72002e-08 2.75131e-06 0)
(-1.26699e-06 1.14056e-06 0)
(-1.61567e-09 2.72821e-08 0)
(1.6175e-09 2.71311e-08 0)
(3.60517e-06 5.18646e-05 0)
(-2.66431e-06 6.66049e-06 0)
(-9.20745e-07 2.7067e-07 0)
(-2.7605e-06 4.7606e-06 0)
(-1.91841e-06 7.3271e-06 0)
(2.12045e-06 5.52793e-06 0)
(-5.90121e-07 1.55955e-06 0)
(3.13548e-06 7.3874e-06 0)
(-4.13097e-07 -3.11273e-08 0)
(-2.07748e-07 1.69e-06 0)
(-9.52205e-07 4.26702e-05 0)
(5.03859e-06 8.61484e-06 0)
(3.47512e-06 4.05309e-06 0)
(-3.47752e-06 4.05328e-06 0)
(6.63081e-06 1.56256e-05 0)
(-6.85693e-07 1.645e-05 0)
(-1.12465e-05 5.42577e-05 0)
(9.22341e-07 1.43309e-06 0)
(-3.19591e-06 3.67113e-06 0)
(3.19357e-06 3.67096e-06 0)
(1.82776e-06 2.00332e-06 0)
(-1.82979e-06 2.00342e-06 0)
(-3.2256e-06 6.59111e-06 0)
(-1.13224e-07 -9.87056e-08 0)
(-3.62674e-07 9.24067e-08 0)
(3.62284e-07 9.22743e-08 0)
(1.03933e-05 3.27853e-05 0)
(-1.03975e-05 3.27855e-05 0)
(-1.92869e-06 2.88844e-06 0)
(1.92643e-06 2.88834e-06 0)
(-5.72339e-10 1.55121e-08 0)
(5.75023e-10 1.5602e-08 0)
(5.81941e-07 1.50779e-06 0)
(8.5883e-07 7.93374e-06 0)
(2.31497e-06 5.14272e-06 0)
(8.83327e-08 -7.76699e-08 0)
(3.32116e-07 -1.01152e-08 0)
(1.78892e-06 1.13963e-06 0)
(-1.79058e-06 1.13967e-06 0)
(1.81249e-06 1.16419e-06 0)
(-1.81415e-06 1.16423e-06 0)
(-2.25235e-06 4.16621e-06 0)
(2.24983e-06 4.1661e-06 0)
(-1.08508e-06 4.49369e-07 0)
(1.08392e-06 4.4932e-07 0)
(3.80836e-07 1.43855e-06 0)
(-2.68561e-08 1.65896e-06 0)
(4.65446e-07 3.47592e-06 0)
(2.74821e-06 7.62716e-06 0)
(-6.67032e-07 1.20919e-06 0)
(-7.63673e-06 2.93887e-05 0)
(1.01974e-06 5.70559e-06 0)
(2.35513e-06 1.78771e-06 0)
(-2.35701e-06 1.78782e-06 0)
(3.00685e-06 7.82168e-06 0)
(-3.35295e-06 3.36202e-05 0)
(-3.90201e-06 7.50755e-05 0)
(-4.39503e-06 8.84955e-06 0)
(-3.13514e-06 6.34324e-06 0)
(1.10236e-06 1.02356e-06 0)
(5.28943e-07 2.73774e-06 0)
(-2.43365e-06 2.35924e-06 0)
(2.43158e-06 2.3591e-06 0)
(5.51073e-06 7.47824e-05 0)
(-5.33757e-06 7.47895e-05 0)
(-4.7416e-07 1.27992e-07 0)
(4.73625e-07 1.27832e-07 0)
(-2.75834e-06 2.84208e-06 0)
(2.75617e-06 2.84191e-06 0)
(-9.81216e-08 3.15789e-06 0)
(-4.03207e-07 1.22974e-06 0)
(5.4667e-07 2.71208e-06 0)
(-5.0943e-07 1.37713e-08 0)
(-8.47357e-06 2.08417e-05 0)
(-5.56353e-06 0.000156981 0)
(1.59388e-06 9.37405e-07 0)
(-1.59548e-06 9.37425e-07 0)
(1.67398e-06 5.44861e-06 0)
(-1.05108e-06 3.95997e-07 0)
(-9.40631e-08 3.20661e-06 0)
(1.63286e-06 2.6566e-06 0)
(-1.6351e-06 2.65669e-06 0)
(-7.34774e-07 2.38593e-07 0)
(7.33961e-07 2.38518e-07 0)
(-8.43708e-07 7.11082e-07 0)
(6.41359e-06 1.56282e-05 0)
(2.05167e-06 5.5528e-06 0)
(7.66779e-07 1.89698e-07 0)
(-7.6775e-07 1.89819e-07 0)
(5.76814e-06 3.00843e-05 0)
(2.17101e-07 5.61798e-07 0)
(-1.34113e-06 2.06953e-06 0)
(1.33903e-06 2.06944e-06 0)
(1.08413e-06 1.58581e-06 0)
(-1.98807e-06 1.33411e-06 0)
(1.98637e-06 1.33404e-06 0)
(-1.67183e-06 1.03692e-06 0)
(1.67018e-06 1.0369e-06 0)
(1.24407e-06 9.20127e-07 0)
(1.40897e-06 7.34936e-07 0)
(-1.41035e-06 7.34979e-07 0)
(1.18787e-06 5.37051e-06 0)
(2.79318e-06 1.30729e-05 0)
(-3.02018e-06 3.6521e-06 0)
(3.01783e-06 3.65193e-06 0)
(2.75856e-06 4.76194e-06 0)
(3.4187e-06 3.85578e-06 0)
(-3.42106e-06 3.85597e-06 0)
(-6.46594e-06 2.93886e-05 0)
(2.2838e-06 2.16974e-06 0)
(-2.28582e-06 2.16987e-06 0)
(2.01703e-06 3.65507e-06 0)
(-2.01946e-06 3.65516e-06 0)
(4.98169e-07 3.11334e-06 0)
(-1.18582e-06 5.63791e-07 0)
(1.18462e-06 5.63744e-07 0)
(1.02334e-05 6.85955e-05 0)
(5.71304e-07 9.55723e-06 0)
(3.67497e-07 3.0944e-06 0)
(4.3385e-07 1.81341e-06 0)
(-1.58434e-06 1.35144e-06 0)
(1.58247e-06 1.35139e-06 0)
(2.66814e-06 2.31359e-06 0)
(-2.67018e-06 2.31375e-06 0)
(1.77382e-06 5.4639e-06 0)
(6.52545e-06 1.98564e-05 0)
(-1.11077e-06 1.6157e-06 0)
(-3.60534e-07 3.46031e-05 0)
(1.13263e-06 8.17431e-07 0)
(1.11192e-06 9.99389e-07 0)
(-5.53456e-06 7.32833e-05 0)
(3.5514e-07 8.97722e-08 0)
(-3.55522e-07 8.99053e-08 0)
(7.70722e-06 2.03439e-05 0)
(3.41076e-06 3.41839e-06 0)
(-3.41304e-06 3.41859e-06 0)
(-6.05485e-06 3.87374e-05 0)
(-1.24893e-07 3.06223e-06 0)
(2.097e-06 1.814e-06 0)
(-2.09894e-06 1.81409e-06 0)
(1.01596e-06 4.25418e-07 0)
(6.66699e-06 3.2776e-05 0)
(-6.67082e-06 3.27762e-05 0)
(-3.6328e-08 2.24798e-06 0)
(-9.12479e-08 -1.17228e-07 0)
(1.48224e-06 1.57574e-05 0)
(9.41678e-07 9.62533e-07 0)
(1.51229e-06 5.27115e-06 0)
(-1.34968e-06 2.03903e-06 0)
(1.34759e-06 2.03894e-06 0)
(4.33078e-06 1.7222e-05 0)
(1.43251e-08 3.57066e-07 0)
(-2.41316e-06 2.92877e-06 0)
(2.41095e-06 2.92863e-06 0)
(-7.24302e-07 4.7017e-06 0)
(1.6746e-06 3.29418e-06 0)
(-1.67698e-06 3.29426e-06 0)
(5.93335e-07 4.50616e-06 0)
(-7.96911e-07 2.82425e-07 0)
(7.96044e-07 2.82364e-07 0)
(1.80012e-06 1.18499e-06 0)
(-1.80182e-06 1.18503e-06 0)
(8.91944e-07 3.49762e-07 0)
(-8.92897e-07 3.49812e-07 0)
(-3.93984e-06 1.36616e-05 0)
(9.88936e-07 1.43834e-06 0)
(-9.93353e-07 1.43886e-06 0)
(-4.59802e-06 1.6993e-05 0)
(1.00994e-06 4.02889e-07 0)
(-1.01102e-06 4.0294e-07 0)
(2.23771e-06 9.76197e-06 0)
(-4.54693e-07 6.69414e-07 0)
(6.18346e-07 1.90038e-06 0)
(2.80763e-06 6.68147e-06 0)
(-8.64701e-08 2.85585e-07 0)
(1.39593e-07 3.26309e-08 0)
(4.77949e-07 3.0163e-07 0)
(5.09449e-06 8.52406e-06 0)
(-1.39433e-06 1.44669e-06 0)
(1.3924e-06 1.44663e-06 0)
(-8.41348e-06 6.41288e-05 0)
(-1.38973e-06 1.48246e-06 0)
(1.38778e-06 1.4824e-06 0)
(1.16208e-05 0.000103125 0)
(1.8843e-06 1.85997e-06 0)
(-1.88629e-06 1.86007e-06 0)
(5.11351e-07 3.50007e-06 0)
(2.38346e-07 8.72276e-06 0)
(1.70703e-06 3.26347e-06 0)
(-1.70941e-06 3.26355e-06 0)
(-3.08588e-06 3.57485e-06 0)
(3.08356e-06 3.57468e-06 0)
(-3.68389e-06 7.78677e-06 0)
(-7.30318e-07 1.42862e-06 0)
(-1.04611e-06 8.35101e-07 0)
(-2.13707e-06 2.38603e-06 0)
(2.13497e-06 2.38591e-06 0)
(-2.98026e-06 2.94099e-06 0)
(2.97808e-06 2.94081e-06 0)
(-3.49358e-06 2.43669e-05 0)
(1.12344e-06 5.41566e-06 0)
(-1.06672e-05 0.000238757 0)
(1.04866e-05 0.000238444 0)
(-1.13519e-06 2.13729e-06 0)
(1.13296e-06 2.13713e-06 0)
(1.17499e-05 9.64796e-05 0)
(2.78646e-09 3.06584e-09 0)
(8.68154e-10 1.2607e-09 0)
(-8.73258e-10 1.26824e-09 0)
(-2.80266e-09 3.08404e-09 0)
(1.77495e-06 1.3559e-05 0)
(-6.72556e-08 6.19979e-08 0)
(6.7157e-08 6.17149e-08 0)
(9.95973e-07 3.77666e-07 0)
(-9.97062e-07 3.77722e-07 0)
(6.83336e-07 2.01097e-07 0)
(-6.84112e-07 2.01195e-07 0)
(-8.0282e-07 2.87508e-07 0)
(8.01949e-07 2.87449e-07 0)
(-2.02227e-07 9.96561e-07 0)
(-1.71739e-06 1.65621e-06 0)
(1.71544e-06 1.65614e-06 0)
(2.41337e-06 5.86069e-06 0)
(6.24613e-06 8.02531e-05 0)
(1.62453e-06 1.59637e-06 0)
(-1.62648e-06 1.59645e-06 0)
(1.43854e-06 5.25246e-06 0)
(-1.99426e-06 2.22147e-06 0)
(1.99219e-06 2.22135e-06 0)
(1.94774e-06 6.05823e-06 0)
(1.12996e-06 3.36026e-06 0)
(-3.13892e-06 6.43109e-06 0)
(8.55832e-07 3.26275e-07 0)
(-8.56751e-07 3.26327e-07 0)
(-2.80097e-06 5.40779e-06 0)
(-2.28035e-07 6.71977e-06 0)
(7.24286e-09 1.86158e-06 0)
(4.00855e-06 3.41923e-05 0)
(2.30473e-06 2.16539e-06 0)
(-2.30676e-06 2.16552e-06 0)
(2.1326e-07 4.97358e-09 0)
(-1.22045e-06 8.74177e-07 0)
(2.74497e-06 2.38082e-06 0)
(-2.74702e-06 2.38099e-06 0)
(-1.74951e-10 1.32746e-08 0)
(1.75635e-10 1.33504e-08 0)
(-2.21199e-06 4.1968e-06 0)
(2.20946e-06 4.1967e-06 0)
(-5.69569e-06 3.00697e-05 0)
(9.39719e-07 2.29726e-05 0)
(-3.15064e-06 2.82578e-06 0)
(3.14849e-06 2.82559e-06 0)
(9.59014e-07 1.61759e-06 0)
(1.24095e-06 8.07808e-07 0)
(-1.65341e-07 -1.12475e-07 0)
(-1.17652e-05 0.000181438 0)
(-1.01958e-06 4.27102e-07 0)
(-1.43809e-06 3.99143e-06 0)
(-1.26903e-06 9.1483e-06 0)
(6.90512e-08 7.03898e-08 0)
(4.57934e-07 1.79444e-06 0)
(3.25581e-06 7.44588e-06 0)
(-9.42215e-07 3.06606e-07 0)
(-2.66433e-06 5.85471e-06 0)
(3.30325e-06 8.71836e-06 0)
(6.60539e-07 1.70974e-07 0)
(5.73184e-06 7.33621e-05 0)
(-1.00079e-08 3.71206e-08 0)
(1.00337e-08 3.6891e-08 0)
(-1.91061e-06 1.88914e-06 0)
(1.90862e-06 1.88904e-06 0)
(-9.95457e-07 4.48909e-07 0)
(1.21772e-07 2.47198e-06 0)
(1.11157e-06 5.71307e-06 0)
(2.11538e-06 6.86187e-05 0)
(-1.13989e-05 6.83005e-05 0)
(-2.51338e-06 5.64358e-06 0)
(1.25207e-06 9.05262e-07 0)
(2.42196e-07 4.99833e-06 0)
(-1.08016e-05 0.000104991 0)
(1.15625e-05 0.000104803 0)
(3.89993e-07 1.6365e-06 0)
(-6.63095e-07 1.8118e-07 0)
(6.62322e-07 1.81065e-07 0)
(-1.15574e-06 9.93664e-07 0)
(-6.69979e-06 1.86466e-05 0)
(3.19541e-07 5.0443e-06 0)
(4.85372e-06 3.90465e-05 0)
(-2.46141e-06 2.38188e-06 0)
(2.45933e-06 2.38173e-06 0)
(3.64188e-06 4.1438e-06 0)
(-3.6443e-06 4.144e-06 0)
(1.00999e-09 3.12165e-08 0)
(-9.85394e-10 3.10287e-08 0)
(3.50068e-07 2.69602e-05 0)
(1.73794e-07 5.73698e-07 0)
(1.10227e-06 3.8088e-06 0)
(1.17772e-07 1.35293e-06 0)
(1.28886e-06 1.59665e-06 0)
(-1.29084e-06 1.59672e-06 0)
(-6.43107e-06 5.97012e-05 0)
(-3.1029e-07 7.95802e-08 0)
(3.09954e-07 7.94233e-08 0)
(3.01344e-06 2.88e-06 0)
(-3.01561e-06 2.88018e-06 0)
(6.83297e-06 1.58434e-05 0)
(-2.16531e-06 2.10641e-06 0)
(2.16329e-06 2.10629e-06 0)
(3.76359e-07 2.56389e-08 0)
(-3.28953e-06 6.66939e-06 0)
(1.97487e-06 6.57258e-06 0)
(2.33372e-06 1.95459e-05 0)
(-4.27213e-06 1.08443e-05 0)
(-3.74263e-07 7.0059e-06 0)
(-2.99346e-06 3.67079e-06 0)
(2.99111e-06 3.67063e-06 0)
(-7.57626e-06 8.076e-05 0)
(3.32699e-07 2.20087e-06 0)
(-1.98051e-06 1.34459e-06 0)
(1.97878e-06 1.34453e-06 0)
(2.51531e-06 1.22689e-05 0)
(4.24645e-06 5.96623e-06 0)
(7.5516e-07 1.0288e-06 0)
(-4.24919e-06 5.96628e-06 0)
(-5.72461e-07 6.48432e-08 0)
(5.7145e-07 6.44292e-08 0)
(-2.48899e-06 7.8681e-06 0)
(-7.76653e-07 2.06247e-07 0)
(3.48587e-06 1.18899e-05 0)
(2.28126e-08 -3.5378e-08 0)
(2.33109e-06 5.87461e-06 0)
(6.67362e-07 1.70042e-06 0)
(-9.54965e-06 2.69768e-05 0)
(5.30558e-07 2.77489e-06 0)
(-7.52947e-07 1.78409e-07 0)
(7.51977e-07 1.78283e-07 0)
(3.45742e-06 3.84024e-06 0)
(-3.45979e-06 3.84042e-06 0)
(-1.14894e-06 5.85645e-06 0)
(-4.96904e-07 2.24169e-05 0)
(2.33421e-06 2.25286e-06 0)
(-2.33625e-06 2.25299e-06 0)
(2.30621e-06 5.20858e-06 0)
(-3.2812e-06 1.3885e-05 0)
(-1.05376e-05 0.000103134 0)
(-5.94196e-07 3.07567e-06 0)
(-3.62651e-06 1.89038e-05 0)
(-6.48335e-07 2.02204e-07 0)
(6.47621e-07 2.02132e-07 0)
(6.14573e-07 4.63667e-06 0)
(-1.36331e-06 1.68761e-06 0)
(1.36131e-06 1.68753e-06 0)
(3.25551e-06 3.51622e-06 0)
(-3.25782e-06 3.51641e-06 0)
(-5.16687e-08 3.21354e-06 0)
(1.86404e-06 6.58258e-06 0)
(1.13806e-07 6.73009e-08 0)
(9.54592e-06 2.69776e-05 0)
(-1.49557e-06 8.32215e-07 0)
(1.49402e-06 8.32202e-07 0)
(-2.09193e-06 7.82932e-06 0)
(-1.09139e-07 1.26511e-06 0)
(1.62348e-06 1.05328e-05 0)
(3.80702e-06 1.11099e-05 0)
(2.01403e-06 1.43108e-05 0)
(9.05926e-07 8.6771e-07 0)
(3.94747e-07 1.53119e-06 0)
(8.27167e-07 3.66401e-07 0)
(-1.80418e-06 5.35873e-06 0)
(-3.25781e-06 3.39225e-06 0)
(3.25553e-06 3.39207e-06 0)
(-1.64737e-06 9.94707e-07 0)
(1.64575e-06 9.94684e-07 0)
(-9.5557e-06 4.2818e-05 0)
(9.39786e-06 4.2775e-05 0)
(4.66483e-07 3.07551e-06 0)
(-1.08843e-07 -1.13464e-07 0)
(-3.14664e-06 3.35045e-06 0)
(3.14437e-06 3.35026e-06 0)
(3.35092e-06 6.49932e-06 0)
(3.25006e-06 7.66875e-06 0)
(-6.4889e-08 4.00719e-06 0)
(2.25719e-06 1.86816e-05 0)
(-3.88549e-06 0.000219748 0)
(-1.42905e-07 8.41464e-08 0)
(1.42756e-07 8.38241e-08 0)
(9.29096e-07 3.54244e-06 0)
(4.42543e-07 4.37118e-06 0)
(-2.18598e-06 1.6148e-06 0)
(2.18415e-06 1.6147e-06 0)
(9.47072e-08 1.81516e-06 0)
(-3.86782e-06 3.41523e-05 0)
(7.00292e-08 -1.1674e-07 0)
(-2.90516e-06 2.52222e-06 0)
(2.90307e-06 2.52205e-06 0)
(8.0354e-07 1.91016e-07 0)
(-8.04613e-07 1.91144e-07 0)
(1.09858e-06 1.27413e-06 0)
(6.31479e-07 1.72365e-07 0)
(-6.32211e-07 1.72483e-07 0)
(1.80879e-06 4.27397e-05 0)
(2.84048e-07 7.94435e-06 0)
(-9.12137e-07 6.79246e-05 0)
(-8.30954e-07 3.49638e-05 0)
(-3.06596e-06 3.60391e-06 0)
(3.06363e-06 3.60374e-06 0)
(1.29805e-06 2.31317e-05 0)
(1.61217e-06 2.74463e-06 0)
(-1.61443e-06 2.74472e-06 0)
(-3.83729e-06 4.2672e-06 0)
(3.83485e-06 4.26699e-06 0)
(9.57287e-07 1.42477e-06 0)
(-9.59137e-07 1.42518e-06 0)
(-1.09664e-06 4.62627e-07 0)
(1.09548e-06 4.62578e-07 0)
(2.03436e-06 1.42396e-06 0)
(-2.03613e-06 1.42403e-06 0)
(-3.85426e-07 2.78433e-06 0)
(4.83336e-06 1.34098e-05 0)
(-2.12092e-06 1.52428e-06 0)
(2.11912e-06 1.52419e-06 0)
(6.32017e-06 1.92777e-05 0)
(1.54942e-07 1.91952e-06 0)
(-1.09878e-06 4.38607e-07 0)
(1.09758e-06 4.38557e-07 0)
(-2.8597e-06 3.88742e-06 0)
(2.85729e-06 3.88728e-06 0)
(1.29257e-06 6.89988e-07 0)
(2.36285e-06 2.26648e-06 0)
(-2.36489e-06 2.26661e-06 0)
(3.27444e-06 3.0076e-06 0)
(-3.27663e-06 3.0078e-06 0)
(-1.29413e-06 6.89978e-07 0)
(-1.39552e-06 7.20387e-06 0)
(-1.81661e-06 5.68632e-06 0)
(-3.50099e-06 7.61869e-05 0)
(-2.42528e-06 3.41449e-06 0)
(2.42294e-06 3.41436e-06 0)
(4.14925e-06 5.94807e-06 0)
(-1.46286e-07 1.63479e-06 0)
(-1.14717e-07 6.77386e-08 0)
(-4.15194e-06 5.94811e-06 0)
(-8.61257e-07 1.86043e-06 0)
(-1.15154e-06 9.66539e-07 0)
(1.8667e-06 6.10305e-06 0)
(-1.37388e-06 1.71691e-06 0)
(1.37188e-06 1.71683e-06 0)
(-1.49202e-08 1.62394e-06 0)
(-3.94347e-07 1.56861e-06 0)
(2.58687e-06 7.35546e-06 0)
(-9.30873e-06 3.26233e-05 0)
(9.30462e-06 3.26231e-05 0)
(-2.01397e-06 1.30627e-05 0)
(9.71271e-08 2.48662e-06 0)
(-2.61108e-08 4.07304e-08 0)
(2.61078e-08 4.04926e-08 0)
(9.00934e-07 8.04269e-07 0)
(1.06391e-06 1.065e-06 0)
(2.06729e-06 9.83998e-06 0)
(-2.17283e-06 1.61315e-06 0)
(2.171e-06 1.61306e-06 0)
(1.32372e-06 7.6818e-07 0)
(9.81071e-06 6.97115e-05 0)
(1.29441e-06 7.02025e-07 0)
(-3.10468e-06 2.40837e-05 0)
(-1.05591e-06 4.44359e-07 0)
(1.0548e-06 4.44312e-07 0)
(5.1539e-06 1.51551e-05 0)
(-6.46736e-07 1.17842e-06 0)
(-1.32496e-06 7.68259e-07 0)
(1.74676e-05 0.000169206 0)
(-1.74258e-05 0.000169199 0)
(-1.29598e-06 7.02016e-07 0)
(3.74835e-06 1.07437e-05 0)
(-1.11315e-06 4.48573e-07 0)
(1.11193e-06 4.48523e-07 0)
(3.29763e-06 4.10647e-06 0)
(-3.30006e-06 4.10664e-06 0)
(-3.12733e-06 8.14041e-06 0)
(6.19613e-07 1.93557e-06 0)
(-1.99689e-06 7.7197e-06 0)
(-1.71665e-06 1.08313e-06 0)
(1.71499e-06 1.08311e-06 0)
(2.39357e-06 2.74003e-06 0)
(-2.39574e-06 2.74017e-06 0)
(7.87368e-09 6.37317e-07 0)
(2.68003e-06 1.94326e-05 0)
(-2.4065e-06 3.44026e-06 0)
(2.40416e-06 3.44014e-06 0)
(2.29787e-06 8.20064e-06 0)
(-2.97927e-07 9.92805e-08 0)
(2.976e-07 9.90351e-08 0)
(1.41393e-06 4.9387e-06 0)
(7.96409e-07 1.78804e-07 0)
(-4.52069e-06 7.15323e-06 0)
(3.62032e-06 1.1147e-05 0)
(3.12575e-06 7.92516e-06 0)
(6.56759e-06 2.06419e-05 0)
(-1.38635e-06 3.95952e-06 0)
(1.44506e-06 3.86819e-06 0)
(6.35215e-07 6.57505e-06 0)
(-3.01904e-06 2.97179e-06 0)
(3.01685e-06 2.97161e-06 0)
(4.22511e-07 4.34162e-05 0)
(-5.56944e-08 9.18453e-07 0)
(-6.26049e-07 3.04823e-06 0)
(2.06769e-06 6.86973e-06 0)
(1.25839e-06 1.60184e-05 0)
(2.2701e-07 3.54161e-07 0)
(1.78125e-07 1.94435e-06 0)
(-3.15894e-06 1.67418e-05 0)
(2.87411e-06 2.23327e-05 0)
(-8.32331e-08 6.62748e-07 0)
(-4.31416e-07 1.31333e-06 0)
(9.08441e-07 8.27805e-07 0)
(-8.59023e-07 1.89124e-06 0)
(7.69363e-06 2.06669e-05 0)
(-1.18527e-06 9.25094e-06 0)
(1.03736e-06 6.03556e-06 0)
(3.64429e-07 9.14424e-08 0)
(-3.64822e-07 9.15686e-08 0)
(-8.61299e-07 7.74929e-07 0)
(2.98314e-07 9.28526e-08 0)
(-2.98659e-07 9.31439e-08 0)
(1.05794e-06 3.84201e-06 0)
(5.52511e-07 2.8058e-06 0)
(-1.60425e-06 1.34577e-06 0)
(1.60239e-06 1.34572e-06 0)
(-8.10806e-07 2.51409e-07 0)
(-2.0461e-07 8.80732e-08 0)
(2.04357e-07 8.7749e-08 0)
(7.43989e-07 6.75883e-07 0)
(2.72109e-06 3.37999e-05 0)
(-7.97514e-07 1.78952e-07 0)
(1.01512e-06 3.50712e-07 0)
(-1.21634e-06 8.50884e-07 0)
(-8.05471e-07 6.2497e-07 0)
(5.86565e-06 1.00505e-05 0)
(-1.08609e-06 1.58609e-06 0)
(-2.51238e-06 1.39406e-05 0)
(-3.24998e-06 9.08253e-06 0)
(-6.78718e-07 2.0933e-07 0)
(6.77963e-07 2.09247e-07 0)
(-5.13203e-07 3.8805e-06 0)
(3.67031e-07 1.41023e-06 0)
(-1.27089e-07 4.35487e-08 0)
(1.2693e-07 4.33204e-08 0)
(-1.20027e-06 6.96704e-07 0)
(8.49437e-06 0.000320609 0)
(-7.46215e-06 6.34642e-05 0)
(-1.3662e-06 5.6281e-06 0)
(1.30832e-06 2.97587e-06 0)
(-1.31064e-06 2.97595e-06 0)
(3.4674e-06 7.60756e-06 0)
(3.64832e-07 2.19897e-06 0)
(-6.02812e-06 6.04414e-05 0)
(9.53753e-08 3.25227e-08 0)
(-9.55149e-08 3.27484e-08 0)
(6.7754e-06 5.44747e-05 0)
(4.94749e-06 7.22383e-05 0)
(3.72308e-08 -7.81852e-08 0)
(-2.4048e-07 6.82792e-06 0)
(4.8327e-07 9.40448e-07 0)
(-3.80772e-06 9.10204e-06 0)
(-8.42127e-07 6.8057e-07 0)
(4.81492e-06 2.26309e-05 0)
(1.34258e-06 2.95873e-06 0)
(-1.34494e-06 2.95881e-06 0)
(4.90664e-06 1.07176e-05 0)
(2.69811e-06 5.7205e-06 0)
(-5.62537e-08 9.88795e-07 0)
(-1.81207e-07 9.71456e-07 0)
(7.6674e-06 5.50006e-05 0)
(1.45876e-06 7.84478e-07 0)
(-1.46027e-06 7.84495e-07 0)
(-1.04698e-07 1.62644e-06 0)
(1.05042e-06 3.06208e-06 0)
(5.07589e-06 1.24323e-05 0)
(3.73566e-07 9.36649e-08 0)
(-3.73968e-07 9.37861e-08 0)
(2.71331e-06 1.28229e-05 0)
(-4.54957e-07 4.63796e-07 0)
(-3.0243e-06 1.3999e-05 0)
(2.5287e-06 2.5697e-06 0)
(-2.53081e-06 2.56985e-06 0)
(5.57435e-07 3.01495e-06 0)
(1.23561e-06 1.25856e-06 0)
(-1.23715e-06 1.25812e-06 0)
(-1.30656e-06 6.16315e-07 0)
(1.30516e-06 6.16282e-07 0)
(-6.50154e-06 6.36103e-05 0)
(1.50877e-06 3.92586e-06 0)
(-2.87547e-08 4.36367e-08 0)
(2.87467e-08 4.33914e-08 0)
(9.22771e-07 1.59783e-06 0)
(-5.91246e-08 6.75767e-08 0)
(-1.06795e-05 0.000246803 0)
(-3.0962e-06 3.22402e-06 0)
(3.09395e-06 3.22384e-06 0)
(6.60249e-06 0.000155572 0)
(-2.04587e-06 1.39553e-06 0)
(2.04414e-06 1.39545e-06 0)
(-2.16278e-06 0.00012901 0)
(-4.77179e-06 2.26292e-05 0)
(5.62248e-07 2.88935e-06 0)
(1.52129e-06 8.94061e-07 0)
(8.47373e-07 1.56079e-06 0)
(5.20037e-07 6.62891e-06 0)
(-1.5229e-06 8.94067e-07 0)
(-5.07378e-06 1.26425e-05 0)
(-2.63511e-07 2.60764e-06 0)
(1.06129e-06 3.15513e-06 0)
(1.42911e-06 2.95088e-06 0)
(-1.43145e-06 2.95096e-06 0)
(-9.62101e-07 4.43425e-07 0)
(9.96004e-07 4.93368e-07 0)