/*--------------------------------*- C++ -*----------------------------------*\
| =========                 |                                                 |
| \\      /  F ield         | OpenFOAM: The Open Source CFD Toolbox           |
|  \\    /   O peration     | Version:  v3.0+                                 |
|   \\  /    A nd           | Web:      www.OpenFOAM.com                      |
|    \\/     M anipulation  |                                                 |
\*---------------------------------------------------------------------------*/
FoamFile
{
    version     2.0;
    format      ascii;
    class       volScalarField;
    location    "4000";
    object      sigmayz;
}
// * * * * * * * * * * * * * * * * * * * * * * * * * * * * * * * * * * * * * //

dimensions      [1 -1 -2 0 0 0 0];

internalField   nonuniform List<scalar> 
27023
(
-2.05367e-14
-1.61308e-13
-1.82765e-13
1.41555e-13
0
1.44197e-13
-3.75098e-12
-9.04839e-13
6.15534e-14
-1.22287e-13
1.05842e-12
-4.81569e-13
-1.20736e-13
-3.227e-14
2.9514e-12
-6.6702e-13
-3.39117e-13
0
-1.66586e-12
0
8.9603e-13
-9.32126e-13
-2.77552e-12
-1.28764e-12
-2.14669e-13
-4.78859e-13
2.47696e-13
1.88461e-11
6.36838e-13
5.60878e-12
-4.62623e-12
-1.83197e-12
3.633e-12
1.98832e-12
3.6151e-12
1.80213e-12
-1.28602e-12
2.57189e-12
-1.56236e-13
-1.13361e-13
-6.42996e-14
1.89899e-14
-4.78311e-12
-1.26921e-13
-1.26711e-13
-1.27599e-12
-1.94507e-12
1.60367e-12
1.60353e-12
1.06437e-12
-9.58112e-13
-1.62459e-13
9.49434e-13
2.13699e-14
7.52926e-14
3.12912e-12
6.76529e-12
2.90609e-12
1.75387e-12
3.23862e-13
-2.05342e-13
6.19907e-12
-1.53308e-12
1.97436e-11
-1.51966e-11
9.13587e-13
-4.88294e-12
1.71446e-13
-8.18555e-13
-2.1438e-12
0
-4.45051e-12
2.43087e-12
3.24133e-12
6.40065e-12
3.12996e-12
6.00454e-14
5.31092e-14
6.10439e-12
4.04856e-12
1.63702e-12
-2.51336e-12
-1.97303e-12
1.01714e-12
3.40879e-12
-1.49374e-12
1.26699e-12
-5.0051e-13
-3.7145e-13
2.39312e-12
3.98094e-11
1.19552e-13
-1.4221e-13
6.15139e-13
-9.94511e-14
-2.69326e-12
5.42483e-13
6.41812e-13
-3.37232e-12
6.13153e-12
-6.52313e-12
1.64627e-11
3.04518e-11
1.33286e-12
1.0059e-12
-2.21445e-13
1.67001e-14
-1.07196e-12
-1.4625e-12
-7.6671e-12
-3.78934e-12
1.43156e-12
3.38496e-13
4.55307e-12
1.93195e-12
2.50679e-12
3.95848e-12
1.69875e-13
5.53541e-14
-6.50356e-13
-4.95993e-13
-1.28529e-12
-6.67874e-13
-2.05594e-12
2.79935e-12
5.55683e-13
2.16242e-13
2.41288e-13
4.43593e-13
2.51617e-12
7.93974e-12
5.52791e-14
3.00876e-14
-1.29735e-13
-3.7868e-12
-9.53732e-12
2.17169e-12
1.50428e-12
-5.00612e-12
-3.19334e-12
-1.24073e-12
3.11757e-12
-2.01988e-12
2.16726e-12
-5.04114e-13
3.82829e-12
-1.1581e-12
3.19049e-12
2.78291e-12
3.72935e-13
-1.33643e-13
-1.0649e-12
-3.55507e-13
-4.67861e-12
-5.42619e-13
8.38397e-13
7.43372e-12
-4.62063e-12
-8.00113e-12
-2.19157e-12
3.56292e-12
-1.27743e-12
3.07441e-12
-9.89146e-12
-4.18283e-13
3.8356e-13
-7.10765e-13
-1.99095e-12
-1.47544e-12
2.72751e-12
4.19632e-11
5.31396e-12
3.98605e-13
3.61777e-11
0
2.97028e-12
-8.44577e-12
-1.51177e-12
6.05957e-12
1.35147e-13
2.8745e-12
-3.07604e-12
2.40587e-12
-5.89871e-12
2.00901e-12
-3.62465e-14
1.98412e-12
2.65014e-12
1.1773e-11
-6.23685e-12
-3.04364e-12
-8.74534e-13
2.23446e-12
-1.02376e-11
-1.08415e-12
2.55394e-12
7.1494e-14
8.15151e-13
-6.49852e-13
2.52021e-13
3.463e-12
1.52691e-13
-6.52517e-13
6.12502e-12
0
2.06164e-13
1.08679e-12
-3.02358e-12
-5.53766e-12
4.58271e-12
0
1.28595e-15
4.81169e-14
-6.27243e-13
1.7476e-14
7.45568e-14
-1.85252e-12
-3.48913e-13
2.76732e-12
1.63274e-12
-4.86428e-12
-4.83355e-12
1.06076e-12
-7.23199e-14
-1.23812e-11
-1.57408e-12
3.48896e-12
-2.34122e-12
-2.74283e-12
-1.23594e-13
1.17031e-13
-1.3955e-11
-4.77538e-12
-8.5088e-13
-2.2715e-12
3.58321e-12
3.07386e-12
-1.04316e-11
-4.10252e-12
4.39514e-12
4.39573e-12
-1.18901e-12
1.89559e-12
8.76694e-12
1.51339e-12
-4.17822e-13
-1.05153e-11
-5.70786e-13
8.18877e-12
-2.88591e-12
-2.08544e-12
-4.38044e-12
3.27419e-13
2.64924e-13
9.79945e-13
-2.58065e-12
0
-3.91048e-12
-3.0206e-13
-1.95068e-12
-3.22838e-13
8.82056e-13
5.61904e-12
-3.52996e-13
-4.23866e-12
5.83375e-12
-1.34477e-12
3.33444e-12
-6.46922e-13
1.50073e-13
-1.77602e-13
-1.01322e-12
2.89027e-12
3.08416e-12
1.38864e-12
-8.97259e-12
-1.30364e-13
1.00849e-13
-6.20428e-12
-7.84404e-12
-3.36583e-12
4.24999e-12
-2.34579e-11
-6.45722e-13
-2.0103e-14
1.97164e-14
-4.06566e-12
9.30315e-12
1.18214e-13
-2.14448e-13
-7.86392e-12
-4.42896e-13
-3.64559e-12
-1.29302e-12
0
2.9005e-12
5.92125e-12
1.07527e-12
-2.98771e-13
0
4.01656e-14
-1.73654e-15
2.70542e-13
0
1.78254e-14
-2.31744e-14
1.44838e-13
1.99399e-12
-6.04213e-13
-9.45534e-12
7.42066e-12
-5.77519e-14
-5.75632e-14
1.49985e-13
1.76195e-13
-2.01977e-12
-5.8791e-12
7.84147e-14
-3.94135e-12
-4.34206e-12
-2.42466e-14
-6.49488e-14
-1.81304e-12
6.58959e-13
-3.83526e-13
1.26779e-12
-6.42349e-13
-6.58254e-12
3.3535e-12
7.27557e-13
4.37621e-13
1.74146e-12
-1.54866e-13
1.63046e-13
-2.78377e-12
-1.53211e-13
4.71072e-13
2.45354e-12
7.39702e-14
6.33313e-13
-7.04989e-13
1.60527e-12
1.78114e-11
0
1.49686e-14
-1.54694e-12
2.26086e-13
7.13286e-13
1.35733e-11
5.94271e-12
-5.76522e-12
6.71432e-12
-1.66327e-12
-9.44795e-13
-1.10616e-13
-3.99285e-14
-3.8477e-13
1.12027e-12
8.33667e-12
-3.56133e-12
7.8455e-13
2.58987e-12
6.47449e-12
-9.78664e-14
-1.16823e-12
1.87013e-11
2.33217e-12
-4.62438e-13
-2.94281e-13
-2.94189e-13
-2.5048e-12
5.44636e-13
-3.02217e-13
0
-1.00011e-13
-3.28335e-12
-7.5841e-12
-1.34018e-12
-4.77916e-12
-2.47027e-12
-4.68323e-12
1.16472e-12
-1.81038e-12
5.34472e-13
1.43985e-12
1.08483e-12
1.94027e-11
-2.93309e-12
-7.27545e-13
-8.08737e-14
-3.58122e-13
-1.9856e-11
-1.1566e-12
-1.80236e-11
4.75076e-13
-1.08289e-11
3.41063e-12
-2.46983e-13
-1.12172e-11
0
-1.51026e-12
-1.30749e-12
5.58448e-13
3.98676e-12
-2.20249e-13
8.78436e-14
3.35214e-13
-1.07542e-13
-5.23255e-13
3.1838e-12
-9.51201e-13
-7.66527e-13
9.52743e-15
-2.46592e-14
-1.22981e-11
-5.5323e-12
4.12321e-13
1.40603e-12
-5.82228e-12
-3.96344e-12
0
-3.92486e-12
-1.27582e-13
2.82021e-12
1.44041e-11
-2.10739e-12
0
2.86814e-12
-4.06586e-12
-9.69578e-14
-5.47623e-13
0
-3.25605e-12
7.74503e-12
-1.62347e-12
-1.95708e-12
8.57014e-12
-1.87358e-14
-1.68577e-13
-1.79559e-13
-1.00746e-11
-3.97741e-13
7.03011e-13
-4.58412e-12
-1.18489e-14
-1.68392e-15
-1.76916e-12
3.90822e-12
-6.80895e-13
-2.51378e-13
-2.07399e-13
-3.39703e-13
-3.39599e-13
-1.00779e-12
-8.6547e-13
-3.00655e-12
2.61151e-12
-9.24849e-13
8.82238e-13
2.56786e-13
-8.42676e-14
2.12132e-13
-6.27284e-12
2.73172e-12
1.1057e-11
-6.25466e-13
-3.67444e-12
-1.26478e-12
4.02549e-12
7.96827e-12
1.74656e-11
0
-1.9396e-12
-1.4509e-12
-6.79102e-12
0
-2.19345e-13
1.71779e-11
-1.06784e-11
4.21463e-14
1.34878e-13
5.03259e-12
3.56364e-12
2.88088e-14
-3.69753e-12
-3.12211e-12
3.8159e-13
2.44212e-12
1.14078e-11
-4.98069e-12
-1.81495e-12
5.36082e-13
-4.10778e-13
3.20802e-12
4.14043e-12
1.09269e-12
9.76284e-13
-7.68996e-14
-2.35986e-13
4.25688e-12
4.12454e-13
1.49629e-13
2.89586e-14
7.84725e-12
-5.12834e-13
-2.95882e-13
3.11336e-12
1.37915e-12
-1.8447e-12
1.86118e-12
1.33849e-12
-1.33718e-12
-1.60125e-12
-3.67865e-13
-1.57785e-12
-1.88686e-12
1.97728e-12
4.25198e-12
1.35874e-12
-2.04715e-12
2.22528e-12
1.11243e-12
-2.18059e-12
-2.98532e-12
-1.85074e-12
-2.40692e-12
5.96779e-14
1.16172e-12
1.55464e-12
7.63604e-14
-1.831e-11
-1.74519e-12
-2.82119e-12
-2.52588e-13
-9.93158e-13
-8.95685e-13
-2.64394e-12
2.36651e-12
5.08166e-12
-8.18162e-13
-9.14352e-13
8.39713e-12
6.70698e-13
-4.74675e-14
-2.73705e-11
1.383e-13
-2.98515e-13
5.51735e-12
-1.99869e-12
4.53278e-12
9.87265e-14
-3.574e-12
1.49507e-12
1.69288e-12
-6.44261e-13
9.94073e-12
1.39831e-11
3.12827e-12
4.33411e-14
2.10768e-12
5.42118e-13
-6.28377e-13
-8.52201e-14
1.64421e-12
-5.43568e-12
-2.18963e-13
0
0
-3.98569e-13
4.99691e-14
-1.14585e-12
-1.0469e-11
1.33856e-13
0
1.30894e-12
-2.16172e-12
-1.38714e-13
4.67624e-13
7.26666e-12
-4.05281e-12
1.21779e-12
6.70359e-12
1.24788e-12
0
7.07538e-12
6.45531e-13
1.99734e-12
-1.06259e-11
1.84782e-12
-4.90091e-14
0
9.23291e-12
-2.32116e-12
-3.12852e-12
-5.56169e-12
7.40308e-13
-3.19009e-13
-2.11434e-11
-3.1927e-12
-1.81106e-12
2.21031e-12
2.54328e-12
4.5563e-12
-2.95707e-12
1.48881e-12
3.30486e-13
3.75498e-12
7.99702e-13
1.63256e-12
-2.05051e-14
-2.03123e-14
1.77183e-12
1.41711e-12
5.32865e-12
-1.55958e-12
-2.74923e-11
-2.83096e-11
1.36014e-12
2.01614e-12
-4.45479e-12
-8.20777e-16
-1.18913e-14
1.89777e-15
1.35993e-15
2.84688e-12
-2.93996e-14
5.80842e-14
0
1.85048e-13
-1.42124e-13
-1.41939e-13
2.69947e-14
-2.79591e-13
1.34105e-12
-8.6187e-13
-7.31257e-13
-4.6031e-13
-3.1183e-11
1.4468e-12
1.3958e-13
-6.75904e-12
-1.00143e-12
-3.01976e-12
1.19437e-12
2.03114e-12
4.19917e-12
-7.71154e-13
2.78891e-13
-9.26982e-13
0
-4.41981e-12
-2.39261e-12
2.79939e-12
0
4.37783e-13
-1.17771e-12
-2.5572e-12
2.48068e-13
6.62865e-15
1.75521e-14
3.50949e-12
-5.11042e-12
3.32248e-12
-2.83632e-12
4.5715e-12
4.27803e-12
-1.15348e-12
-1.61441e-12
0
-1.19232e-11
1.63948e-14
-1.87683e-12
2.83694e-12
-6.5666e-15
1.46532e-12
-7.766e-12
1.26704e-12
7.11832e-12
4.96918e-12
0
-1.55519e-11
-2.53675e-14
-1.40637e-14
-3.27742e-13
2.02661e-12
-3.62676e-13
-1.35147e-12
-6.72536e-12
-8.96177e-12
-1.03455e-11
-4.2865e-12
8.71152e-14
-2.69756e-12
1.485e-11
6.89203e-12
-2.04174e-13
2.38598e-13
8.06959e-15
2.17292e-12
-1.89836e-13
5.47894e-13
-8.22401e-12
-4.18557e-12
2.0927e-12
9.98689e-14
6.55091e-13
8.31804e-16
1.04336e-14
-5.01045e-12
-9.99529e-13
-4.13932e-12
-1.05919e-12
-4.15391e-13
6.74049e-13
2.76195e-11
-6.0536e-14
-1.05039e-13
0
-4.28662e-12
-6.8129e-12
5.08888e-13
3.83976e-13
8.15403e-14
5.49867e-12
4.15922e-12
-4.29138e-12
-1.29615e-11
-2.75118e-12
0
-1.86711e-12
-7.45352e-12
-7.86148e-13
3.7258e-12
2.28978e-12
1.53238e-12
1.7341e-12
5.20544e-15
1.73514e-12
1.25421e-13
-4.28187e-15
4.85792e-12
-8.39286e-13
-3.74107e-12
-1.93058e-14
-1.17284e-12
-1.33148e-13
9.39388e-12
1.69964e-12
-3.66191e-13
-5.65769e-13
-7.73191e-13
2.13391e-12
4.48689e-12
8.83481e-12
3.76858e-12
0
-5.64176e-12
1.99437e-12
-1.69944e-11
2.11035e-12
-7.36227e-12
2.15328e-13
-2.96832e-13
-4.70498e-12
3.3901e-12
-1.19567e-12
2.60021e-13
3.32637e-12
-1.49532e-12
-6.01099e-12
-2.53941e-15
-6.12127e-12
-1.18111e-12
2.87198e-13
5.67085e-13
2.3319e-12
-6.43802e-12
4.57052e-12
3.70348e-12
0
2.4102e-12
-8.962e-13
1.84221e-13
0
4.00327e-12
-1.94909e-13
-3.61264e-12
-2.95653e-12
8.19881e-12
1.87645e-12
1.44088e-13
0
0
6.97497e-12
3.92845e-12
2.69015e-12
-1.80061e-12
-2.69364e-11
-1.03932e-14
0
2.49155e-12
-3.98834e-12
-1.14685e-12
-2.04759e-12
4.0053e-12
-1.62874e-11
2.07492e-14
-2.97898e-12
2.78552e-12
2.96393e-13
-3.60026e-13
-1.57465e-12
2.99089e-13
4.62894e-14
-8.74481e-12
4.91427e-12
2.3615e-13
2.63759e-12
6.40287e-13
1.63981e-12
-1.44384e-12
-4.40097e-12
-4.5538e-12
0
-5.67238e-12
2.57232e-12
8.46511e-13
-2.50007e-13
-4.71374e-13
-5.2518e-12
4.60899e-13
5.5082e-12
4.83677e-12
8.58261e-13
3.0175e-12
1.44313e-11
-1.417e-12
-9.50702e-14
5.68428e-13
-1.74695e-12
-7.87542e-13
2.6081e-12
5.85182e-12
0
-4.0566e-13
3.54011e-13
2.36287e-12
-7.96898e-13
3.53747e-12
2.65302e-12
-2.49723e-12
-6.72e-13
-1.67152e-13
-8.87418e-13
3.9707e-14
5.63807e-12
7.62533e-13
-5.92969e-13
-7.56497e-12
3.91521e-12
-3.65806e-12
-3.06282e-12
0
5.1033e-13
2.43181e-12
1.51194e-11
-7.74634e-12
-2.97214e-12
-8.24149e-15
-2.58019e-14
-8.29042e-13
2.63837e-12
-3.35799e-12
9.96162e-14
1.94336e-12
3.20836e-13
-4.12248e-11
1.51921e-12
-5.80209e-13
7.62397e-13
1.59321e-13
3.98362e-12
1.7299e-12
-1.04907e-12
1.61294e-12
7.18598e-12
-2.5234e-14
-1.03958e-11
-3.28507e-14
-9.39453e-13
0
-5.90573e-12
5.72399e-12
-7.66284e-13
1.42935e-12
-8.65844e-13
8.10696e-13
2.75549e-12
6.22067e-13
5.65077e-13
3.18184e-12
-5.59934e-12
1.44856e-12
-7.19416e-13
-1.86514e-14
-1.9353e-14
9.63329e-13
-1.79066e-13
-2.67286e-12
7.99053e-13
3.56312e-12
2.17248e-12
1.0415e-11
1.48496e-12
-9.87572e-12
-2.53413e-12
2.53019e-13
2.59859e-11
8.70905e-13
3.10437e-12
0
-3.21527e-12
9.92848e-14
-5.18299e-13
2.43525e-12
-6.74205e-12
-3.49729e-13
-6.35171e-14
-4.55238e-13
-2.8982e-12
-9.18132e-12
-8.2927e-12
-1.44006e-12
0
-7.63425e-14
-7.2948e-13
-3.38032e-14
-6.03238e-15
-1.3255e-12
4.95284e-12
-2.9375e-12
-9.94843e-13
0
-3.19802e-14
5.69965e-15
2.11118e-12
7.91945e-12
-1.28325e-13
0
-2.41899e-12
-4.81662e-13
-8.44969e-12
-3.07989e-12
-7.07476e-13
-1.20766e-12
-7.74927e-13
-6.01589e-13
1.06492e-11
-1.77563e-13
7.59116e-14
7.80819e-14
-7.42935e-13
6.81475e-12
-6.13604e-12
-3.23116e-12
3.95534e-12
3.85904e-12
-2.73377e-12
-2.57952e-12
-1.07312e-11
7.45578e-14
1.77007e-13
0
-9.84861e-12
-1.42013e-13
2.88181e-12
1.06422e-12
-1.78235e-12
-9.46803e-13
-1.16321e-11
-3.89404e-12
-9.43153e-13
6.18379e-15
7.61822e-12
-1.20901e-13
-1.18707e-12
-1.42979e-11
-7.68978e-13
5.96827e-13
-9.92922e-13
-2.57718e-12
2.23958e-12
-3.69033e-13
1.02784e-13
8.13466e-12
-1.32404e-13
5.84798e-12
0
-2.76738e-12
-1.91746e-12
4.91498e-13
2.85322e-12
-8.45063e-13
1.52499e-13
-1.51843e-11
-2.15657e-12
1.44125e-14
7.82933e-15
7.73022e-13
-1.20687e-14
-8.17556e-12
2.83313e-13
7.64356e-13
-1.3434e-12
2.18073e-13
1.26081e-12
-9.25373e-12
1.71687e-12
4.52842e-12
0
9.50809e-15
1.05444e-14
-9.08804e-14
4.04905e-12
5.18233e-12
1.37206e-13
-2.01764e-12
-4.18966e-12
-2.39394e-13
-3.33654e-13
-5.22653e-12
3.25813e-13
2.11536e-12
1.80231e-14
2.41865e-12
-5.31362e-12
-2.05728e-12
1.93104e-12
-4.05626e-12
-1.77815e-13
-2.54649e-12
1.19099e-12
1.44929e-11
6.10083e-12
3.57216e-12
-9.39845e-12
1.55308e-12
4.1858e-12
-4.5835e-12
2.0459e-13
-8.80878e-13
8.59185e-13
2.91833e-12
-4.95092e-13
1.30138e-12
3.01242e-12
1.90567e-12
-2.97991e-11
-1.01669e-11
8.15439e-12
3.23508e-15
9.70998e-15
5.2477e-12
3.39769e-12
-2.77634e-12
2.85167e-14
-7.57066e-12
4.53803e-13
3.37784e-12
-4.23112e-13
-1.47895e-12
3.27011e-14
-4.99175e-12
8.93238e-13
9.74393e-13
-5.14907e-14
-4.31989e-12
3.08404e-12
2.69535e-12
-3.69887e-12
-5.8341e-12
5.12145e-13
-3.47217e-12
-2.61714e-12
-1.52547e-13
1.30623e-12
3.93949e-12
-7.06324e-12
2.56601e-12
1.06549e-12
-4.10331e-12
6.56632e-13
-1.06811e-11
-1.63341e-12
1.05408e-12
-4.3473e-12
9.74958e-13
-3.94786e-13
-1.61753e-12
-8.87729e-12
1.66396e-12
-1.66606e-12
2.90315e-12
-8.35037e-12
2.5851e-13
-3.29413e-15
-1.74597e-13
-1.47987e-13
-4.51488e-13
-5.12185e-12
4.63672e-12
-2.12905e-12
2.94077e-13
-1.31171e-12
-7.36356e-14
-2.52131e-14
3.30972e-14
-9.98338e-13
-3.2285e-12
-7.3115e-12
-1.32625e-12
-1.81923e-12
-9.11739e-15
-5.69737e-15
-5.15994e-13
-1.58926e-12
-1.78209e-11
1.788e-11
1.6575e-12
4.40195e-12
-1.48575e-13
-3.92295e-12
-2.71028e-11
2.44763e-12
8.86754e-12
-1.71053e-12
2.93705e-12
2.27068e-12
-4.52849e-12
8.463e-13
-3.12237e-12
9.76536e-13
0
1.59189e-12
8.20215e-14
-2.5855e-12
3.91037e-12
-4.80531e-12
2.40739e-12
-4.57798e-13
6.68282e-13
-9.1261e-14
-8.674e-14
6.17761e-12
-1.10819e-11
-4.84035e-14
4.84692e-14
9.48509e-12
2.27836e-12
5.24139e-14
1.76609e-12
-3.88334e-13
6.54461e-13
-2.90577e-13
4.46796e-12
2.22536e-11
1.22103e-12
8.37799e-13
1.70592e-12
3.11945e-12
2.50304e-12
3.61157e-12
-6.13248e-13
2.46467e-11
-1.63939e-11
-8.80164e-14
2.47947e-12
-6.78028e-12
2.44469e-11
-1.38566e-12
-2.50989e-12
1.37289e-12
-5.15032e-14
-5.1356e-14
1.40427e-11
2.71648e-16
-9.95018e-14
-6.50094e-13
-2.83605e-13
-3.75237e-12
1.36736e-12
3.04388e-12
-9.48609e-13
-1.46065e-12
-4.50157e-13
3.33297e-13
-5.40308e-12
-3.48034e-12
-5.73242e-13
1.07915e-11
-7.75002e-12
3.121e-14
1.47086e-12
1.9607e-11
1.3034e-11
5.15319e-12
2.70645e-12
-1.93548e-13
1.49217e-13
-3.16852e-12
3.17931e-12
-4.50404e-12
8.92616e-12
8.07755e-12
-3.68319e-12
-3.13635e-12
-2.83687e-13
-5.97271e-13
-7.36602e-14
1.55254e-14
-3.37872e-12
-2.02835e-12
-4.93243e-12
-1.87862e-12
4.90229e-13
4.01613e-14
5.01501e-13
-1.42513e-12
7.86561e-13
2.38e-12
2.36325e-11
-1.67962e-12
1.80091e-11
3.19136e-13
-4.38664e-12
-7.96378e-14
-2.38485e-12
-3.25388e-12
4.73029e-14
2.80476e-12
-7.20599e-13
1.74753e-13
-2.65488e-12
3.9641e-13
-8.97426e-13
-1.05115e-11
-1.31686e-12
8.17942e-13
2.85826e-13
-2.40849e-12
3.56301e-12
-4.79844e-12
-1.01585e-12
-4.94245e-12
6.57212e-12
-7.00059e-13
-3.32146e-12
-4.68783e-12
1.60791e-12
-1.17467e-11
0
1.55154e-12
3.91687e-12
-2.43576e-12
8.04853e-13
6.9639e-12
5.49852e-12
-4.85332e-12
5.31342e-12
8.05473e-13
-4.05924e-12
-6.93143e-12
-1.95643e-12
0
7.77822e-12
0
-1.5636e-12
-4.58922e-14
-1.30217e-13
-5.04536e-12
-5.59052e-14
-2.29382e-12
-1.5642e-12
1.41233e-12
0
0
-3.00513e-13
-3.17525e-13
-5.74623e-12
7.56405e-13
1.31863e-11
-2.02515e-13
2.49979e-12
2.21052e-12
3.31473e-13
2.99787e-13
-6.22571e-14
8.79073e-14
-2.54729e-12
9.59002e-13
0
-1.59365e-12
2.94169e-12
-1.0861e-12
0
2.60254e-14
1.70926e-14
3.56783e-13
-1.37417e-12
1.62116e-13
-1.68152e-13
-5.77052e-14
1.2704e-12
-3.32162e-12
1.25802e-12
-2.29354e-12
-8.68122e-13
-1.08827e-12
3.35346e-12
3.5629e-14
3.07883e-14
0
-2.76659e-12
1.09333e-12
2.87926e-12
0
2.4685e-12
1.49551e-12
7.95938e-13
1.32662e-12
8.65801e-12
1.83432e-11
-2.95575e-12
6.32137e-12
-5.23724e-13
-1.9987e-13
2.74244e-12
1.27654e-12
-1.26702e-12
0
-5.48099e-12
-2.7831e-12
-6.28036e-12
2.1029e-12
-1.66264e-12
1.10012e-12
1.56859e-12
-2.2339e-12
4.7219e-12
-4.60395e-14
8.36521e-13
1.78488e-12
-4.22091e-12
3.90187e-12
-5.24244e-12
-1.69273e-12
1.65124e-12
0
4.64113e-12
-1.92569e-12
-2.12354e-13
-2.79881e-12
4.5398e-12
-2.00731e-13
2.2723e-12
-1.95966e-13
4.15761e-12
1.38248e-12
-3.50507e-13
3.09834e-12
4.53248e-16
-5.83431e-15
-2.23456e-12
-1.30807e-13
-2.71048e-11
1.1248e-12
-1.42024e-12
-3.18517e-13
-4.71691e-12
-4.3994e-13
-1.69832e-11
-4.45014e-12
-9.0107e-13
-7.76296e-13
-1.40143e-12
1.53762e-12
-3.01857e-13
-3.50362e-12
-6.40586e-13
-2.50386e-12
-2.58244e-12
1.95583e-12
5.10507e-13
-2.654e-14
9.16812e-15
-3.10075e-13
-4.10194e-12
8.31557e-12
-5.14702e-12
-2.81479e-12
1.08056e-12
-3.47632e-14
1.7482e-13
1.0833e-11
-8.35924e-12
8.53833e-13
5.99878e-13
6.5647e-13
4.93953e-13
1.13298e-11
-1.06771e-11
-2.99538e-12
1.51079e-12
1.36098e-12
-4.90573e-13
7.47053e-13
3.6903e-12
8.73129e-13
-1.23641e-12
8.62886e-14
-3.34769e-12
3.12631e-12
2.98809e-12
1.39294e-12
-3.26774e-13
2.16595e-13
-3.0445e-12
2.52145e-12
-1.46516e-12
0
6.79147e-12
-5.33298e-13
-5.33401e-13
-2.89636e-12
-4.58328e-13
3.91005e-13
-1.46102e-13
2.40952e-13
4.35313e-12
-2.68626e-13
8.15673e-14
-1.53801e-12
8.88156e-13
-9.99467e-12
-2.19989e-12
-7.19864e-12
6.7657e-14
5.23895e-14
1.97921e-12
-7.17102e-12
0
2.38688e-12
3.22959e-12
5.21023e-14
1.24261e-12
2.40083e-12
3.64698e-12
-1.36805e-12
-1.79694e-12
-3.44443e-14
0
7.83828e-14
1.36466e-12
2.0827e-12
-2.91947e-11
3.63601e-12
4.57142e-12
-1.66156e-13
-1.60635e-13
9.10023e-14
1.26497e-12
-1.73543e-12
-3.76896e-13
2.19636e-12
-2.00608e-12
3.43636e-13
-2.43423e-13
-2.80332e-13
-2.8073e-13
-1.11793e-12
-4.19907e-15
5.9805e-15
7.06384e-12
-3.56732e-13
2.34406e-12
0
2.42702e-14
2.33507e-13
-1.87705e-12
-7.86629e-13
3.37125e-12
6.21235e-13
3.37116e-12
-1.40504e-13
-5.87851e-13
5.87814e-13
0
3.94787e-13
3.6482e-13
-1.98959e-12
-4.04091e-12
4.25132e-12
1.04321e-13
1.1748e-12
6.98815e-12
1.10361e-11
-2.07834e-12
-3.72715e-12
-2.35908e-12
2.35889e-12
-1.52161e-11
-1.42464e-12
8.33708e-13
9.68394e-13
-8.27796e-12
-1.9115e-11
6.62563e-12
-5.76562e-12
5.43591e-12
1.9498e-12
4.85075e-13
1.22436e-14
-2.88296e-13
0
-1.02185e-11
-6.32152e-13
2.10061e-12
-3.98857e-14
-2.10445e-12
1.31046e-12
-3.75545e-11
-3.0867e-12
1.06364e-12
-6.74714e-13
-3.82491e-12
-2.15855e-12
2.1301e-12
2.46882e-13
-2.82489e-13
1.81844e-12
-6.80367e-13
7.16389e-14
2.08135e-13
1.79537e-12
9.41809e-13
-2.56147e-12
-9.51201e-13
-1.29554e-12
-4.88018e-13
-4.04524e-13
-1.21584e-12
-3.54127e-12
-5.79358e-12
3.98889e-12
-7.86259e-14
-7.64451e-14
-4.67395e-13
1.16849e-12
-1.19644e-11
1.62466e-11
0
6.95614e-13
-6.95493e-13
3.76408e-12
1.1569e-12
-1.39622e-11
-3.34418e-13
-2.75805e-12
-1.43181e-11
1.00362e-11
6.47771e-15
2.30344e-12
-7.71841e-12
-5.56833e-12
6.92321e-12
-6.45737e-15
9.61814e-14
1.74884e-12
2.53614e-12
9.66396e-13
0
-1.68118e-12
-8.27529e-13
2.05808e-12
6.67109e-14
1.81438e-13
-2.83027e-12
-1.06553e-13
-1.88101e-13
-6.58438e-13
-2.85919e-12
1.55599e-12
8.69634e-12
3.36619e-13
-1.37047e-12
2.38072e-12
5.76318e-12
-5.96567e-12
-1.13855e-12
-1.49191e-12
-1.49188e-12
-2.83973e-14
4.6282e-14
2.84274e-12
-3.96232e-13
1.0283e-12
-4.10238e-13
1.95914e-13
2.63478e-13
7.56356e-13
7.72844e-14
-5.51447e-12
-3.12865e-11
-1.82237e-11
2.17785e-12
9.52074e-12
-1.45273e-12
-9.39272e-12
-7.27371e-12
-2.25026e-12
-6.06066e-12
5.28938e-13
5.29068e-13
2.24379e-11
0
-2.79747e-12
-1.65221e-12
-2.7826e-12
-2.95699e-12
7.09141e-14
-8.42842e-13
-2.9828e-13
-1.14889e-12
-1.5011e-12
-1.83014e-12
-4.50125e-12
-4.47075e-13
4.9721e-13
-1.26165e-12
-8.99506e-13
6.04052e-13
2.5899e-13
1.86179e-13
8.17792e-14
-2.42671e-11
2.59298e-13
-8.33184e-14
1.40108e-12
1.56821e-13
-2.10255e-13
-5.2126e-13
-1.07075e-12
-2.44701e-12
0
5.66528e-12
-8.18629e-12
-2.08292e-13
-5.02312e-13
3.95262e-12
-4.70338e-12
-2.69837e-12
1.0493e-11
-5.63219e-15
-6.96112e-13
-2.57532e-12
1.85436e-12
1.79208e-12
6.23919e-13
9.31805e-15
-1.60144e-12
-2.16909e-14
1.31767e-12
3.03936e-12
-1.31795e-12
8.50493e-13
-1.06998e-12
0
4.81279e-12
-3.23612e-12
-1.03052e-13
-4.61528e-13
3.21053e-12
-8.07222e-12
-2.60784e-13
1.29772e-12
-6.20615e-14
-1.15411e-14
-3.17891e-14
1.15569e-12
-2.22021e-12
5.9678e-14
-1.63972e-12
-3.47269e-12
-2.58164e-12
1.08602e-11
8.68772e-13
2.6291e-11
-2.85119e-12
-3.11496e-13
1.04008e-11
1.38562e-12
4.26239e-13
1.90409e-12
-5.61474e-13
4.49531e-14
-1.69355e-13
-3.55863e-12
7.15097e-14
-4.70914e-12
-4.04108e-13
1.03422e-12
-9.65791e-12
5.71021e-12
7.80235e-12
-1.05364e-13
-7.07186e-14
-8.53343e-13
2.05525e-12
-5.79613e-13
-1.11643e-12
6.64518e-12
-1.34466e-12
-2.9689e-13
1.69708e-12
-5.83791e-12
-1.84357e-13
-3.09893e-13
1.2541e-14
3.88823e-13
-5.2401e-12
-1.3122e-12
4.22579e-13
-1.34467e-12
-2.593e-12
1.46227e-11
1.21522e-14
3.52625e-14
-2.31463e-11
-1.55422e-13
-2.59705e-12
-1.44753e-12
-1.98484e-12
0
-4.65368e-12
-5.05954e-12
2.38522e-12
2.3854e-12
-7.81469e-14
0
-1.50388e-13
-2.37692e-11
-7.33601e-13
-2.75349e-12
-1.54443e-11
2.66918e-11
2.74935e-14
8.53198e-13
2.08363e-12
-1.5787e-12
1.8686e-12
-1.1004e-13
-4.32246e-14
-7.98973e-13
-3.30589e-12
2.65562e-14
-8.96936e-12
-2.81392e-12
1.64943e-13
-8.50808e-13
2.30392e-12
0
-1.3293e-12
6.9647e-12
-1.77118e-13
2.07352e-12
0
-1.23965e-11
-3.21312e-13
3.07179e-12
9.01965e-13
5.16937e-13
2.90489e-12
-2.08625e-12
-2.77582e-13
-2.51621e-13
1.71379e-12
-2.08519e-11
9.17673e-12
0
-2.13306e-12
-7.76032e-13
-1.93264e-12
9.14434e-12
3.0846e-13
-1.27868e-12
4.87996e-12
-3.82582e-15
-9.18042e-15
-1.33067e-12
4.70571e-12
3.27979e-12
6.14077e-13
-7.38954e-12
4.04592e-13
-1.07154e-12
2.77298e-12
3.33658e-12
-4.57425e-13
-5.76471e-12
2.90982e-12
1.74853e-12
0
1.37326e-12
-6.45792e-12
-2.38636e-13
-3.12233e-12
-2.66736e-12
7.37272e-12
7.59959e-12
7.96213e-13
-5.45627e-12
1.75798e-12
8.54204e-13
2.16351e-13
9.6093e-13
-4.54864e-13
-5.03124e-14
-5.31991e-12
0
-1.07059e-12
1.24182e-11
-1.16371e-11
-1.77722e-12
1.07767e-12
5.9657e-12
-8.30296e-13
-8.47233e-13
0
0
-1.40609e-12
2.59618e-12
3.67958e-12
-6.43346e-12
2.92168e-12
-6.05415e-14
4.80011e-12
-5.12038e-13
3.11776e-13
1.07399e-12
3.59987e-12
3.68362e-12
3.68419e-12
7.70624e-13
3.04958e-12
-2.79148e-12
-3.57085e-13
3.62365e-12
1.47111e-12
4.9423e-12
7.0896e-12
-5.23722e-12
-5.02244e-12
-3.14256e-12
-2.69186e-12
-4.1867e-12
-5.92625e-13
1.57875e-13
4.26482e-12
9.77842e-13
0
-3.20341e-12
-2.48594e-12
-3.72096e-12
-2.66329e-12
-6.68833e-12
-1.28761e-12
-2.99404e-12
4.31336e-12
4.04864e-13
-7.80445e-13
0
-2.21479e-12
-2.23853e-14
-5.05413e-12
7.69724e-14
1.70728e-12
-4.62929e-12
-5.79204e-12
-1.97872e-12
5.52595e-13
0
7.98965e-13
1.77051e-12
-8.50184e-13
-3.27205e-13
4.33261e-15
5.04721e-14
4.06758e-13
5.38248e-13
-7.94683e-13
1.70499e-11
8.65863e-13
7.33549e-13
-1.1142e-12
1.81076e-11
-4.88929e-12
-6.5408e-13
2.19959e-14
-1.34843e-14
-8.06248e-12
1.03564e-11
-1.83857e-12
-1.44511e-14
3.07064e-14
-1.91806e-13
9.88399e-14
-3.86011e-12
-2.37971e-13
1.41055e-12
-3.04181e-13
2.60576e-13
-2.2329e-12
3.07127e-14
-2.66698e-14
-2.15946e-12
-2.89688e-12
1.67386e-12
8.15603e-12
-1.47647e-13
-1.68882e-12
-2.95184e-12
0
2.61118e-12
5.43719e-13
-1.02432e-11
-7.03186e-13
2.80325e-12
3.36163e-12
-9.99061e-12
-4.57592e-13
-2.08825e-12
-2.88666e-12
-1.10736e-12
-2.15394e-12
-1.51231e-12
-1.49797e-11
-1.62947e-12
-3.50859e-12
1.2557e-11
-5.22855e-12
-1.28876e-12
7.77317e-15
-2.0973e-15
-3.31249e-16
-5.63986e-12
-2.84251e-14
-2.91389e-14
1.45469e-13
0
0
-3.03451e-11
-2.20527e-12
-4.04568e-12
0
-9.81649e-12
1.16978e-11
-2.81633e-12
4.55528e-13
-1.2406e-11
-1.53325e-12
1.03051e-12
6.70668e-13
-6.36669e-12
1.57409e-12
1.16135e-11
-1.16792e-11
-1.18236e-12
-2.30775e-12
2.46667e-13
9.59185e-14
1.09464e-12
-1.3908e-11
-1.65426e-11
0
-2.13722e-13
7.53754e-13
2.20876e-12
9.14954e-13
-7.70734e-12
-5.40858e-13
6.37063e-12
1.56946e-14
-5.90296e-12
-1.05223e-12
-1.13872e-12
3.05907e-12
5.25909e-12
-2.81749e-13
-5.49899e-12
6.98388e-12
4.47167e-13
-3.61526e-13
3.67334e-12
-2.88403e-12
1.43869e-12
-1.07613e-12
0
-1.63613e-14
1.19066e-12
-8.92212e-13
-3.43707e-12
8.07902e-13
-1.62761e-12
-8.4343e-13
7.4505e-13
3.35045e-13
-4.30255e-12
5.42181e-13
6.38723e-12
-1.6347e-12
-8.22421e-13
-5.03096e-12
-5.77029e-13
1.47339e-13
2.93965e-12
2.69589e-12
-1.51997e-13
7.9623e-15
1.1637e-14
-1.79501e-12
-5.8111e-12
-6.35541e-12
3.44334e-12
2.97036e-12
7.13683e-14
-1.12155e-13
0
2.31457e-12
6.05746e-13
-2.48449e-12
2.81611e-12
1.87852e-11
-2.42721e-12
-1.01101e-12
-3.10384e-12
-1.8665e-11
3.64647e-12
3.18038e-12
-3.2215e-13
6.2591e-14
-4.12034e-14
3.30434e-12
1.59672e-12
1.49151e-13
-2.51924e-12
-1.02713e-12
3.78547e-12
-1.3885e-12
-3.53185e-12
3.00417e-13
5.76497e-14
-7.79962e-14
-1.55816e-13
0
-3.66053e-12
2.1466e-14
2.71169e-14
-3.76581e-12
-2.06234e-12
0
0
3.71433e-13
-4.46893e-12
-6.26254e-12
-1.44087e-12
8.55562e-13
8.55493e-13
-1.70514e-12
9.63763e-13
1.13146e-12
-2.08888e-12
-1.74685e-11
-6.21408e-13
1.31333e-12
-1.93132e-12
2.22821e-12
-1.41767e-12
2.69287e-14
5.29989e-15
-1.12106e-11
7.47437e-12
-1.73293e-12
-8.5072e-13
8.72086e-12
4.32071e-12
1.25942e-12
2.41e-12
-2.8942e-12
7.02416e-13
2.07324e-12
1.40676e-12
1.30748e-11
-3.2428e-12
-1.25504e-11
-4.55353e-12
-3.69062e-13
-1.42928e-12
7.82485e-12
-2.68851e-12
1.63933e-12
-1.13984e-12
1.3875e-13
1.53625e-12
3.69628e-12
-3.74728e-12
1.60257e-11
1.06379e-12
1.14897e-12
-3.46626e-12
2.96749e-13
-2.80796e-12
-3.50455e-12
-4.0685e-12
-6.19915e-13
5.07437e-12
1.32821e-11
-2.16499e-12
-2.00258e-12
-2.48296e-14
6.81391e-15
4.37148e-15
-7.99962e-14
2.18167e-13
-1.40525e-12
-1.23573e-13
-3.45802e-12
-5.23755e-11
2.25322e-13
1.41874e-12
-1.81557e-12
8.44093e-12
2.33675e-13
1.18849e-13
-2.50267e-14
-5.73491e-12
-7.41784e-12
5.72796e-12
-7.86381e-12
3.83276e-13
-9.7095e-12
-2.06469e-12
-2.21255e-12
1.06533e-12
1.47207e-12
1.71893e-12
-1.9464e-12
3.05846e-14
3.10709e-14
-6.00755e-12
-1.68834e-13
5.55677e-13
-2.20009e-12
2.9124e-12
-2.80043e-13
2.65725e-12
2.62253e-12
0
2.78987e-12
-1.51878e-12
8.63465e-14
4.06165e-12
0
-1.44188e-12
6.97933e-12
1.71912e-12
-4.71468e-12
2.73175e-12
3.31458e-12
2.35675e-12
-7.57645e-13
3.35435e-12
1.2645e-13
-3.2802e-14
1.49555e-12
-2.36358e-12
-3.18544e-14
1.50213e-14
2.82374e-12
7.98392e-14
-1.89689e-13
8.68654e-13
2.43025e-12
2.29564e-13
-6.64624e-14
4.85851e-13
-2.04173e-12
1.65292e-12
8.71285e-13
-4.27036e-13
1.97875e-12
-1.05431e-12
-6.29602e-12
-2.04837e-12
7.21322e-12
-9.12877e-13
-2.52055e-12
0
3.07787e-14
2.95697e-12
6.96377e-12
4.06673e-12
5.59038e-12
3.89428e-12
-5.31626e-12
1.03654e-11
-1.19385e-11
-9.45667e-13
-1.07084e-12
1.16305e-13
8.4871e-13
4.97896e-13
-9.66377e-12
-6.86885e-13
9.77885e-13
8.03037e-13
-1.08891e-12
3.57909e-12
1.60085e-11
7.97529e-14
1.01604e-13
6.62642e-13
-6.81835e-13
9.23983e-14
8.26242e-14
3.38264e-12
5.59117e-13
-9.81753e-13
-8.906e-14
-6.23687e-12
-1.97296e-12
4.18974e-12
-2.10333e-12
8.84554e-14
-1.24269e-11
-5.65764e-13
-1.59638e-12
1.95655e-12
-8.16472e-13
-1.79923e-11
1.76801e-13
-3.23467e-12
-7.09175e-14
-2.98806e-12
3.52513e-12
0
-3.45796e-12
-5.45705e-12
1.94644e-12
8.15232e-12
1.28676e-12
0
-3.13766e-12
2.77112e-12
-7.98797e-12
-4.00353e-12
-1.34498e-13
-1.2195e-11
-3.69123e-12
2.22952e-12
7.05142e-13
-3.81421e-14
-4.2282e-14
-1.74802e-12
-6.30437e-13
-9.03836e-13
-4.46636e-13
-1.03981e-12
-2.28796e-12
-1.45151e-12
1.49335e-12
3.6076e-12
0
1.45783e-14
-1.78195e-11
-1.87779e-13
1.58238e-12
-2.26689e-12
-7.80798e-12
3.48373e-13
4.54165e-14
4.83852e-12
-7.01155e-13
5.72651e-12
3.416e-12
-2.61015e-12
2.87412e-13
7.07785e-13
1.64231e-12
-3.72951e-13
1.91826e-12
9.18287e-13
1.50847e-12
3.05209e-12
-7.19552e-13
1.61195e-12
2.21515e-13
5.38903e-13
2.54106e-12
-1.72885e-14
9.35524e-12
-3.22126e-13
1.01515e-12
2.75513e-14
2.47033e-14
3.42407e-12
6.99411e-13
-5.70438e-13
-2.4733e-13
-9.61798e-14
1.30819e-14
2.74565e-12
1.04195e-13
3.12491e-14
5.33587e-12
-6.46799e-12
-8.33201e-13
-4.40339e-12
0
2.12962e-13
-2.60114e-12
2.14522e-12
-8.40903e-13
-4.38317e-13
3.14773e-13
6.67459e-14
-6.14372e-12
4.02713e-11
-2.8479e-12
-4.73964e-12
-4.46216e-12
-5.56638e-12
-4.2829e-12
8.38745e-12
-1.64736e-12
-1.47202e-12
-3.12785e-14
2.10763e-14
2.08175e-12
-1.84197e-13
-2.30914e-12
-4.59673e-12
4.96488e-13
-6.06336e-13
1.28527e-12
-1.35426e-12
8.6026e-13
1.17068e-12
3.15129e-13
2.59471e-12
-2.94454e-12
4.6539e-12
-6.67485e-12
1.23462e-12
-9.39145e-12
4.75282e-12
-2.32587e-12
-4.17395e-12
-9.64383e-13
1.45386e-12
-1.65054e-12
6.36509e-13
-1.41751e-11
3.15605e-12
5.45726e-14
-2.98078e-13
-1.41134e-13
1.36173e-13
-1.35743e-11
1.19558e-12
-1.9538e-12
-3.61544e-12
-1.38746e-11
3.57285e-12
-1.67596e-12
-2.43178e-12
-2.6123e-12
-1.48007e-12
0
-5.61971e-12
-8.28304e-12
0
6.67498e-12
2.49499e-12
3.8002e-12
-7.89611e-12
1.21926e-12
1.1769e-11
4.46341e-14
4.27404e-11
1.18198e-13
5.93125e-14
2.17794e-12
-9.77887e-12
-9.43155e-13
-2.25672e-12
2.15465e-12
-2.04964e-12
-4.26456e-13
1.20543e-13
-3.76332e-12
8.91068e-13
8.0414e-12
-2.59208e-12
-5.55897e-12
-3.16352e-12
6.1511e-12
5.96888e-13
4.55994e-12
-7.18711e-12
9.89041e-13
3.58613e-13
1.0928e-13
4.3327e-14
-2.92208e-12
-1.14162e-12
0
-4.41283e-13
9.78e-14
9.75955e-14
-1.56824e-13
-1.56873e-13
-5.70849e-14
-5.25584e-12