/*--------------------------------*- C++ -*----------------------------------*\
| =========                 |                                                 |
| \\      /  F ield         | OpenFOAM: The Open Source CFD Toolbox           |
|  \\    /   O peration     | Version:  v3.0+                                 |
|   \\  /    A nd           | Web:      www.OpenFOAM.com                      |
|    \\/     M anipulation  |                                                 |
\*---------------------------------------------------------------------------*/
FoamFile
{
    version     2.0;
    format      ascii;
    class       volSymmTensorField;
    location    "4000";
    object      sigma;
}
// * * * * * * * * * * * * * * * * * * * * * * * * * * * * * * * * * * * * * //

dimensions      [1 -1 -2 0 0 0 0];

internalField   nonuniform List<symmTensor> 
27023
(
(-1.71167e+07 -1.41454e+07 1.42155e-13 -1.37836e+07 -2.05367e-14 -7.66699e+06)
(1.71274e+07 -1.41551e+07 9.5048e-14 1.37923e+07 -1.61308e-13 7.67181e+06)
(1.10408e+07 -1.04695e+07 6.21333e-13 1.09825e+07 -1.82765e-13 5.46444e+06)
(-1.10338e+07 -1.04626e+07 4.76564e-13 -1.09772e+07 1.41555e-13 -5.46137e+06)
(-1.72881e+07 -1.3477e+07 0 -1.29557e+07 0 -7.5041e+06)
(1.72989e+07 -1.34865e+07 -4.72947e-13 1.29638e+07 1.44197e-13 7.50879e+06)
(9.27538e+07 -1.31468e+07 3.93107e-12 4.91114e+06 -3.75098e-12 2.42327e+07)
(-9.27199e+07 -1.31398e+07 -9.70959e-13 -4.9087e+06 -9.04839e-13 -2.42236e+07)
(4.15757e+06 -5.28808e+06 -9.21821e-14 7.72863e+06 6.15534e-14 2.94921e+06)
(-4.15125e+06 -5.28508e+06 -4.3387e-13 -7.73003e+06 -1.22287e-13 -2.94799e+06)
(6.71619e+07 -1.29131e+07 -5.86439e-13 7.64412e+06 1.05842e-12 1.85609e+07)
(-6.713e+07 -1.29036e+07 -8.39402e-13 -7.64144e+06 -4.81569e-13 -1.85523e+07)
(752716 -1.24098e+06 -5.97121e-14 2.06404e+06 -1.20736e-13 698893)
(-768970 -1.247e+06 3.185e-14 -2.06298e+06 -3.227e-14 -702666)
(-2.68045e+07 -2.38798e+06 7.17697e-13 -718299 2.9514e-12 -6.82897e+06)
(2.19899e+06 1.00453e+07 8.80709e-13 115433 -6.6702e-13 574256)
(1.49086e+06 9.59764e+06 -7.97476e-13 421500 -3.39117e-13 474496)
(-5.74649e+07 -2.35561e+06 0 -1.25442e+06 0 -1.45695e+07)
(5.74994e+07 -2.36039e+06 2.91618e-12 1.2537e+06 -1.66586e-12 1.45778e+07)
(4.21522e+07 -1.92437e+06 0 1.95351e+06 0 1.09435e+07)
(-4.21203e+07 -1.91949e+06 -6.36051e-14 -1.94825e+06 8.9603e-13 -1.09343e+07)
(9.2223e+07 -1.18294e+07 -1.96702e-15 4.199e+06 -9.32126e-13 2.39243e+07)
(-9.21888e+07 -1.18228e+07 -2.2791e-12 -4.19676e+06 -2.77552e-12 -2.39152e+07)
(4.71607e+07 -1.31337e+06 -8.09051e-13 6.29297e+06 -1.28764e-12 1.32629e+07)
(-4.71356e+07 -1.30624e+06 2.06999e-12 -6.2867e+06 -2.14669e-13 -1.32552e+07)
(7.42639e+06 -438303 3.32819e-12 712795 -4.78859e-13 2.0195e+06)
(-3.29676e+07 3.32766e+06 1.54698e-12 -4.50225e+06 2.47696e-13 -9.29704e+06)
(3.49199e+06 -1.34412e+06 7.25845e-12 -23223.4 1.88461e-11 860671)
(-3.25344e+07 3.05023e+06 -1.20901e-12 -4.92643e+06 6.36838e-13 -9.29479e+06)
(3.19033e+07 -2.86778e+06 -4.47168e-12 -131357 5.60878e-12 7.88327e+06)
(1.53963e+07 -773312 8.59741e-12 911515 -4.62623e-12 4.04629e+06)
(4.21897e+07 -2.32493e+06 3.58263e-13 1.93977e+06 -1.83197e-12 1.09494e+07)
(-4.21593e+07 -2.32105e+06 4.42163e-12 -1.93654e+06 3.633e-12 -1.09411e+07)
(-4.28509e+07 -2.02121e+06 -4.27058e-13 -93979.2 1.98832e-12 -1.06555e+07)
(-2.65355e+07 -1.59025e+06 8.74429e-13 -780280 3.6151e-12 -6.77761e+06)
(3.3309e+07 -1.77262e+06 -9.45028e-12 114428 1.80213e-12 8.29304e+06)
(3.84221e+07 -1.09628e+06 1.51169e-12 3.31762e+06 -1.28602e-12 1.03565e+07)
(-3.83854e+07 -1.0893e+06 3.02312e-12 -3.31563e+06 2.57189e-12 -1.03469e+07)
(3.98659e+06 -5.27774e+06 1.70257e-13 7.22243e+06 -1.56236e-13 2.78118e+06)
(-3.98331e+06 -5.27552e+06 -2.4636e-13 -7.22258e+06 -1.13361e-13 -2.78041e+06)
(-1.10088e+07 -1.04776e+07 -1.8265e-13 -1.16291e+07 -6.42996e-14 -5.61692e+06)
(1.10161e+07 -1.04846e+07 -8.01909e-14 1.1635e+07 1.89899e-14 5.6202e+06)
(-2.16358e+07 -1.89114e+06 -9.55566e-12 -173846 -4.78311e-12 -5.41142e+06)
(-1.64802e+07 -1.36507e+07 -9.97357e-14 -1.27102e+07 -1.26921e-13 -7.24271e+06)
(1.64907e+07 -1.36603e+07 9.97191e-14 1.27185e+07 -1.26711e-13 7.24738e+06)
(5.67386e+07 -2.28688e+06 4.5004e-12 1.17374e+06 -1.27599e-12 1.43692e+07)
(-5.67039e+07 -2.28211e+06 -3.24714e-12 -1.17399e+06 -1.94507e-12 -1.43607e+07)
(4.46077e+07 -1.55947e+06 -4.23123e-12 4.87912e+06 1.60367e-12 1.22787e+07)
(-4.45766e+07 -1.55473e+06 4.23121e-12 -4.87191e+06 1.60353e-12 -1.22692e+07)
(2.95002e+07 -2.50948e+06 -2.85641e-12 -146621 1.06437e-12 7.28321e+06)
(4.3046e+07 -816755 3.19552e-12 4.5952e+06 -9.58112e-13 1.18207e+07)
(-4.30149e+07 -811755 -1.24776e-12 -4.5882e+06 -1.62459e-13 -1.18113e+07)
(-4.17978e+07 -2.20419e+06 7.44258e-12 -70852.2 9.49434e-13 -1.03885e+07)
(495.373 -79328.3 4.01552e-15 557532 2.13699e-14 138458)
(-498.363 -79119.6 9.0588e-14 -554290 7.52926e-14 -137654)
(4.71047e+07 -2.0406e+06 1.55548e-12 170013 3.12912e-12 1.17298e+07)
(1.96556e+07 -1.68946e+06 2.51672e-12 242889 6.76529e-12 4.93722e+06)
(3.48637e+07 -1.47862e+06 1.17449e-11 -47335.9 2.90609e-12 8.63865e+06)
(-1.59453e+07 -2.77284e+06 -2.11192e-12 32090.7 1.75387e-12 -3.9484e+06)
(1.05224e+07 -1.08274e+07 -9.67234e-13 1.20733e+07 3.23862e-13 5.60645e+06)
(-1.05159e+07 -1.08205e+07 -6.48422e-13 -1.20672e+07 -2.05342e-13 -5.60334e+06)
(2.89758e+07 -1.59526e+06 -1.71485e-11 61228.8 6.19907e-12 7.20467e+06)
(4.4974e+06 -1.95577e+06 6.93237e-12 229351 -1.53308e-12 1.1728e+06)
(5.17866e+06 -880796 3.93271e-12 -140006 1.97436e-11 1.25019e+06)
(-2.10122e+07 -2.96986e+06 -1.02147e-11 -76094.5 -1.51966e-11 -5.23242e+06)
(1.367e+07 -431557 -2.02509e-12 986938 9.13587e-13 3.63669e+06)
(3.75129e+07 -1.73063e+06 1.05444e-12 1.26847e+06 -4.88294e-12 9.62244e+06)
(9.19886e+06 -79287.3 -4.56486e-12 772998 1.71446e-13 2.47422e+06)
(-3.34371e+07 3.5092e+06 1.00071e-12 -3.80308e+06 -8.18555e-13 -9.24004e+06)
(-2.01874e+07 -2.68618e+06 -1.00014e-11 -193103 -2.1438e-12 -5.05681e+06)
(3.67907e+07 -1.42564e+06 0 3.48558e+06 0 9.99336e+06)
(-3.67537e+07 -1.41857e+06 -3.05422e-12 -3.48353e+06 -4.45051e-12 -9.98367e+06)
(6.42546e+07 -3.93102e+06 -2.90951e-13 5.9558e+06 2.43087e-12 1.74206e+07)
(-6.4226e+07 -3.924e+06 -1.70792e-12 -5.95041e+06 3.24133e-12 -1.74122e+07)
(8.54873e+07 -1.3843e+06 -1.82205e-12 119118 6.40065e-12 2.12407e+07)
(-8.54552e+07 -1.38392e+06 -1.1006e-12 -119165 3.12996e-12 -2.12327e+07)
(157739 -323761 1.08574e-14 911803 6.00454e-14 265375)
(-155883 -321709 -5.85828e-14 -910314 5.31092e-14 -264545)
(-1.00786e+08 -5.36584e+06 6.79301e-12 -1.42223e+06 6.10439e-12 -2.53599e+07)
(1.0082e+08 -5.36824e+06 -3.10262e-12 1.42268e+06 4.04856e-12 2.53685e+07)
(-2.50215e+07 1.19633e+06 1.08604e-12 -3.32319e+06 1.63702e-12 -7.03288e+06)
(6.48935e+07 -1.22483e+07 3.67345e-12 7.248e+06 -2.51336e-12 1.78998e+07)
(-6.48617e+07 -1.22387e+07 -2.88916e-12 -7.24514e+06 -1.97303e-12 -1.78912e+07)
(6.25918e+07 -4.33427e+06 -5.39534e-13 6.29384e+06 1.01714e-12 1.70919e+07)
(-6.25634e+07 -4.32731e+06 1.35597e-12 -6.28828e+06 3.40879e-12 -1.70835e+07)
(-9.07307e+07 -702845 -4.34178e-12 13956.5 -1.49374e-12 -2.25087e+07)
(9.07627e+07 -702703 -2.33232e-12 -13876.4 1.26699e-12 2.25166e+07)
(-3.73668e+07 -1.72575e+06 2.55276e-12 -1.23663e+06 -5.0051e-13 -9.5783e+06)
(3.59833e+06 -2.78008e+06 4.8045e-12 174712 -3.7145e-13 936168)
(-1.68544e+07 -2.64898e+06 -4.16548e-12 59528.8 2.39312e-12 -4.16714e+06)
(1.61643e+07 -2.55814e+06 2.45427e-12 161975 3.98094e-11 4.05088e+06)
(2.14341e+07 -1.38349e+07 1.2267e-13 1.14204e+07 1.19552e-13 8.15185e+06)
(-2.14209e+07 -1.38247e+07 -2.47584e-13 -1.14124e+07 -1.4221e-13 -8.14662e+06)
(1.87423e+07 7.44062e+06 -3.4801e-13 2.06799e+06 6.15139e-13 5.16345e+06)
(-7.66162e+06 -1.95188e+06 -7.6369e-14 -446404 -9.94511e-14 -2.01177e+06)
(-4.7275e+07 -490437 -3.34165e-12 -5.90583e+06 -2.69326e-12 -1.31952e+07)
(4.72948e+07 -494408 -3.52102e-12 5.91066e+06 5.42483e-13 1.32014e+07)
(-2.49623e+07 1.7118e+06 3.18292e-12 -3.44293e+06 6.41812e-13 -7.04791e+06)
(-1.67948e+07 -2.99231e+06 -5.0998e-12 -167763 -3.37232e-12 -4.20876e+06)
(817349 -3.23948e+06 2.76608e-12 -36830.8 6.13153e-12 193662)
(-2.74686e+07 -1.7973e+06 -1.88959e-12 -4520.33 -6.52313e-12 -6.81664e+06)
(-1.72034e+07 -247123 -7.94268e-12 -113188 1.64627e-11 -4.2966e+06)
(1.75135e+07 -181932 -3.04104e-12 385777 3.04518e-11 4.44116e+06)
(7.5299e+07 -8.25332e+06 -3.03244e-14 6.18244e+06 1.33286e-12 2.02172e+07)
(-7.52692e+07 -8.2452e+06 1.88039e-12 -6.17829e+06 1.0059e-12 -2.02088e+07)
(3.04488e+06 -1.99742e+06 1.20315e-11 -138951 -2.21445e-13 721019)
(8.41769e+07 -8.41856e+06 -1.15919e-12 4.68573e+06 1.67001e-14 2.20486e+07)
(-8.41449e+07 -8.41214e+06 8.33733e-13 -4.68302e+06 -1.07196e-12 -2.204e+07)
(4.64958e+07 -2.14301e+06 -4.4564e-12 380309 -1.4625e-12 1.16309e+07)
(3.26059e+07 -1.7335e+06 2.47578e-11 337508 -7.6671e-12 8.17393e+06)
(1.99675e+07 -3.32707e+06 -1.12355e-11 -152398 -3.78934e-12 4.91654e+06)
(8.44424e+07 -8.81236e+06 -8.24501e-14 5.53908e+06 1.43156e-12 2.23262e+07)
(-8.44106e+07 -8.80581e+06 9.05556e-13 -5.53608e+06 3.38496e-13 -2.23176e+07)
(4.66666e+07 -478280 -4.26085e-12 5.81611e+06 4.55307e-12 1.3022e+07)
(-4.66425e+07 -472092 6.49992e-13 -5.81134e+06 1.93195e-12 -1.30149e+07)
(8.62293e+07 -831039 1.92084e-12 151760 2.50679e-12 2.14329e+07)
(-8.61971e+07 -830553 4.63026e-12 -151588 3.95848e-12 -2.14249e+07)
(2.07835e+07 2.55919e+06 -3.11365e-13 -1.12651e+06 1.69875e-13 4.8773e+06)
(-3.40781e+07 368703 -1.38087e-12 -2.289e+06 5.53541e-14 -9.02341e+06)
(-2.53709e+07 -1.25358e+06 2.16519e-12 -2.12217e+06 -6.50356e-13 -6.82158e+06)
(2.06208e+07 -1.98636e+06 -1.21468e-11 316233 -4.95993e-13 5.1949e+06)
(2.17233e+06 -1.46165e+06 7.20377e-12 30599.7 -1.28529e-12 546592)
(-6.99564e+07 -2.65903e+07 -6.79963e-13 -1.14362e+07 -6.67874e-13 -2.01952e+07)
(6.99886e+07 -2.66024e+07 1.85096e-12 1.14413e+07 -2.05594e-12 2.02044e+07)
(9.991e+07 -1.26084e+07 -3.36945e-12 2.11948e+06 2.79935e-12 2.53156e+07)
(-9.98746e+07 -1.26032e+07 1.57087e-12 -2.11847e+06 5.55683e-13 -2.53065e+07)
(2.10601e+07 -1.33487e+07 -5.05397e-14 1.0717e+07 2.16242e-13 7.88455e+06)
(-2.10469e+07 -1.33386e+07 2.894e-13 -1.07091e+07 2.41288e-13 -7.87933e+06)
(7.65388e+07 -8.91275e+06 2.98882e-13 6.68483e+06 4.43593e-13 2.06495e+07)
(-7.65088e+07 -8.9043e+06 2.08886e-12 -6.68023e+06 2.51617e-12 -2.06409e+07)
(-1.54273e+07 -1.69218e+06 -9.61126e-13 -151616 7.93974e-12 -3.86545e+06)
(-1.84874e+06 -1.39607e+06 2.22283e-14 -1.10636e+06 5.52791e-14 -733219)
(1.87996e+06 -1.39211e+06 -1.09386e-14 1.01619e+06 3.00876e-14 718593)
(-1.44263e+07 -1.18104e+06 1.27059e-13 -1.08653e+06 -1.29735e-13 -3.84904e+06)
(1.78049e+07 -2.413e+06 -8.7171e-12 197930 -3.7868e-12 4.46688e+06)
(-9.098e+07 37546.9 -6.76585e-12 -162775 -9.53732e-12 -2.26144e+07)
(9.10121e+07 37656.6 -1.72601e-13 162796 2.17169e-12 2.26224e+07)
(8.78032e+06 3.15719e+06 2.11632e-12 1.21791e+06 1.50428e-12 2.48076e+06)
(5.89882e+07 -2.67377e+06 2.1978e-12 1.83851e+06 -5.00612e-12 1.50923e+07)
(-5.89537e+07 -2.66984e+06 2.48875e-13 -1.8382e+06 -3.19334e-12 -1.50837e+07)
(-8.6726e+07 -1.45714e+07 -6.24727e-13 -6.34234e+06 -1.24073e-12 -2.30921e+07)
(8.67595e+07 -1.45804e+07 -4.86192e-12 6.34598e+06 3.11757e-12 2.31014e+07)
(-6.10262e+06 3.0535e+06 -2.15216e-12 -712558 -2.01988e-12 -1.69098e+06)
(8.97134e+07 -1.28505e+07 -2.06547e-12 5.22301e+06 2.16726e-12 2.35557e+07)
(-8.96801e+07 -1.28429e+07 -1.40439e-12 -5.22016e+06 -5.04114e-13 -2.35467e+07)
(-1.45038e+07 -666628 1.61787e-12 -796177 3.82829e-12 -3.79624e+06)
(-1.58715e+07 -2.01628e+06 -8.13055e-12 11850.5 -1.1581e-12 -3.93509e+06)
(4.29127e+07 68472.8 -2.89355e-12 5.38499e+06 3.19049e-12 1.19836e+07)
(3.82051e+07 -2.38802e+06 1.04375e-12 1.27639e+06 2.78291e-12 9.79615e+06)
(3.62125e+07 -2.09688e+07 1.88314e-13 1.4962e+07 3.72935e-13 1.26974e+07)
(-3.61915e+07 -2.09564e+07 -2.69247e-13 -1.49531e+07 -1.33643e-13 -1.269e+07)
(4.53554e+07 -1.78257e+07 1.0318e-12 1.09635e+07 -1.0649e-12 1.39739e+07)
(-4.53334e+07 -1.78151e+07 -5.90063e-13 -1.09555e+07 -3.55507e-13 -1.39664e+07)
(-2.58732e+07 -2.90098e+06 2.58341e-12 -7804.52 -4.67861e-12 -6.4216e+06)
(-2.73269e+07 -911969 2.528e-12 -2.00923e+06 -5.42619e-13 -7.27889e+06)
(-2.82757e+07 -659296 1.82727e-11 -326514 8.38397e-13 -7.09678e+06)
(2.82488e+07 -651153 -7.78399e-12 559358 7.43372e-12 7.14788e+06)
(2.69638e+07 -1.94343e+06 5.27153e-12 810707 -4.62063e-12 6.89141e+06)
(5.82852e+07 -2.75105e+06 5.46325e-12 1.85465e+06 -8.00113e-12 1.49219e+07)
(-5.82507e+07 -2.74727e+06 -2.3962e-12 -1.85417e+06 -2.19157e-12 -1.49132e+07)
(-5.2773e+07 -1.70798e+06 3.88907e-12 186426 3.56292e-12 -1.30478e+07)
(-2.18395e+07 -2.71202e+06 -8.67292e-12 -22235.8 -1.27743e-12 -5.42435e+06)
(-4.54983e+07 -1.34215e+06 8.30253e-12 -39151.6 3.07441e-12 -1.12988e+07)
(3.15677e+06 -3.05024e+06 8.90344e-12 367316 -9.89146e-12 874397)
(-5.40658e+07 -1.87851e+07 -4.8191e-13 -1.01796e+07 -4.18283e-13 -1.59406e+07)
(5.40932e+07 -1.87934e+07 -5.06248e-13 1.01853e+07 3.8356e-13 1.59488e+07)
(-7.87532e+07 -1.31118e+07 -3.49496e-13 -6.27265e+06 -7.10765e-13 -2.10967e+07)
(7.87856e+07 -1.31215e+07 1.88187e-12 6.27686e+06 -1.99095e-12 2.11057e+07)
(-1.78974e+07 2.12548e+06 -2.9918e-13 -2.45865e+06 -1.47544e-12 -5.05075e+06)
(1.87484e+06 2.3029e+06 -1.45517e-12 217960 2.72751e-12 519267)
(5.09082e+06 -3.6257e+06 1.26545e-12 156424 4.19632e-11 1.30195e+06)
(-1.01386e+08 -6.67926e+06 6.14641e-12 -1.65056e+06 5.31396e-12 -2.55654e+07)
(1.01419e+08 -6.68193e+06 2.11319e-13 1.65105e+06 3.98605e-13 2.55739e+07)
(-1.85394e+07 -2.77773e+06 -2.01721e-12 142967 3.61777e-11 -4.56452e+06)
(1.84686e+07 -2.55347e+06 0 271617 0 4.64983e+06)
(-2.88428e+07 -2.38427e+06 1.10253e-11 -442766 2.97028e-12 -7.26635e+06)
(2.35138e+06 -1.97309e+06 1.15674e-11 138064 -8.44577e-12 617681)
(-5.69246e+06 2.83877e+06 -2.87172e-12 -1.09366e+06 -1.51177e-12 -1.68377e+06)
(-1.89305e+07 -2.96992e+06 -2.11588e-12 131459 6.05957e-12 -4.66442e+06)
(9.23762e+06 3.97536e+06 3.37299e-13 1.61915e+06 1.35147e-13 2.69378e+06)
(-3.83207e+07 -2.3877e+06 8.96162e-13 -1.29142e+06 2.8745e-12 -9.82856e+06)
(-8.27887e+07 -1.35922e+07 -3.48426e-12 -5.567e+06 -3.07604e-12 -2.19228e+07)
(8.28212e+07 -1.36011e+07 -2.24167e-12 5.57046e+06 2.40587e-12 2.19318e+07)
(-2.87238e+07 -2.01501e+06 -2.5968e-12 199345 -5.89871e-12 -7.07749e+06)
(-5.24567e+07 -1.99168e+06 -5.97743e-12 -224985 2.00901e-12 -1.30714e+07)
(-5.5851e+07 -1.61931e+06 1.69367e-12 -333244 -3.62465e-14 -1.39405e+07)
(-4.47828e+07 -475497 1.59703e-12 -6.04241e+06 1.98412e-12 -1.26108e+07)
(4.48031e+07 -478597 -1.08816e-12 6.0491e+06 2.65014e-12 1.26175e+07)
(-4.77873e+07 -1.48565e+06 -5.77124e-12 -27792.6 1.1773e-11 -1.18639e+07)
(-1.70561e+07 -2.89495e+06 4.01354e-12 15985 -6.23685e-12 -4.22799e+06)
(-7.87281e+07 -1.43171e+07 -2.73217e-12 -7.13922e+06 -3.04364e-12 -2.13054e+07)
(7.87599e+07 -1.43271e+07 1.80136e-13 7.14335e+06 -8.74534e-13 2.13144e+07)
(-2.40359e+07 2.79238e+06 -7.40693e-13 -3.23547e+06 2.23446e-12 -6.76658e+06)
(4.05531e+06 -2.57419e+06 -2.05457e-12 9983.19 -1.02376e-11 1.00868e+06)
(1.00541e+08 -1.28023e+07 1.57262e-12 3.30368e+06 -1.08415e-12 2.57661e+07)
(-1.00507e+08 -1.2797e+07 2.61831e-12 -3.30246e+06 2.55394e-12 -2.57571e+07)
(-5.91527e+07 -610625 -1.03135e-11 -23901.7 7.1494e-14 -1.46829e+07)
(-7.6114e+07 -1.49524e+07 9.763e-13 -6.9861e+06 8.15151e-13 -2.06188e+07)
(7.61467e+07 -1.49625e+07 5.91225e-13 6.99001e+06 -6.49852e-13 2.06279e+07)
(-3.20029e+07 700048 5.50563e-13 -2.39792e+06 2.52021e-13 -8.53554e+06)
(2.85307e+07 -2.47573e+06 4.56389e-12 759374 3.463e-12 7.26745e+06)
(-3.39336e+07 3.16092e+06 1.04411e-12 -4.02086e+06 1.52691e-13 -9.41727e+06)
(8.38231e+07 -921532 3.33186e-12 -13152.2 -6.52517e-13 2.07949e+07)
(-8.379e+07 -919570 6.44025e-12 13381.8 6.12502e-12 -2.07867e+07)
(-1.63119e+07 -1.28409e+07 0 -1.13625e+07 0 -6.86657e+06)
(1.63223e+07 -1.28503e+07 -6.60394e-13 1.13699e+07 2.06164e-13 6.87099e+06)
(-2.14784e+07 -99485.6 2.47127e-12 -1.86417e+06 1.08679e-12 -5.79177e+06)
(-5.83525e+07 -1.75503e+06 -1.4912e-12 -124813 -3.02358e-12 -1.45094e+07)
(8.36509e+07 -386632 2.93312e-12 100993 -5.53766e-12 2.07805e+07)
(-8.36177e+07 -384852 3.60546e-12 -100901 4.58271e-12 -2.07723e+07)
(23609.7 -171700 0 101025 0 30924.5)
(-23425.1 -170663 1.18172e-15 -100448 1.28595e-15 -30735.5)
(1.8217e+07 8.36936e+06 -6.26669e-13 1.52001e+06 4.81169e-14 4.89716e+06)
(-2.29054e+07 -790531 2.43947e-12 -2.04938e+06 -6.27243e-13 -6.1918e+06)
(-9.76086e+06 -5.05058e+06 -2.84165e-13 -1.65103e+06 1.7476e-14 -2.83152e+06)
(9.76887e+06 -5.05013e+06 1.6674e-13 1.65133e+06 7.45568e-14 2.83358e+06)
(-2.81697e+07 2.42542e+06 -1.49863e-12 -3.67073e+06 -1.85252e-12 -7.90027e+06)
(2.18929e+06 2.95743e+06 1.56705e-12 461218 -3.48913e-13 657644)
(5.9776e+06 -3.37009e+06 2.98085e-12 45278.7 2.76732e-12 1.4944e+06)
(-8.93785e+07 -2.84724e+06 2.32553e-12 -619839 1.63274e-12 -2.23304e+07)
(8.94108e+07 -2.84857e+06 3.19449e-12 620016 -4.86428e-12 2.23385e+07)
(-1.55094e+07 -1.46906e+06 1.01026e-11 -62186.3 -4.83355e-12 -3.86364e+06)
(-7.03819e+07 -2.58399e+07 8.97669e-13 -1.0177e+07 1.06076e-12 -1.99883e+07)
(7.0414e+07 -2.58516e+07 8.68705e-14 1.01814e+07 -7.23199e-14 1.99974e+07)
(-2.68883e+07 -1.45076e+06 -2.69515e-12 -46099.9 -1.23812e-11 -6.68298e+06)
(7.87794e+07 -3.94513e+06 -1.88789e-12 2.1167e+06 -1.57408e-12 2.0072e+07)
(-7.87467e+07 -3.94247e+06 4.18198e-12 -2.11569e+06 3.48896e-12 -2.00636e+07)
(6.48225e+07 -4.44152e+06 -6.3184e-13 6.30225e+06 -2.34122e-12 1.76475e+07)
(-6.47945e+07 -4.43366e+06 -2.41932e-12 -6.29669e+06 -2.74283e-12 -1.76392e+07)
(1.69434e+06 -2.54771e+06 2.33871e-14 4.2208e+06 -1.23594e-13 1.46767e+06)
(-1.69417e+06 -2.54781e+06 1.58953e-13 -4.22188e+06 1.17031e-13 -1.46789e+06)
(4.2298e+06 -2.61376e+06 -7.57977e-12 -394399 -1.3955e-11 951641)
(8.1126e+07 -3.11618e+06 -1.28173e-12 1.75621e+06 -4.77538e-12 2.05648e+07)
(-8.10933e+07 -3.11377e+06 -2.1375e-12 -1.75554e+06 -8.5088e-13 -2.05565e+07)
(-5.38459e+07 -1.55914e+06 -2.84864e-12 -74917 -2.2715e-12 -1.33789e+07)
(7.86666e+07 -2.25959e+06 3.55998e-12 576342 3.58321e-12 1.96618e+07)
(-7.8634e+07 -2.25813e+06 -1.5194e-12 -576273 3.07386e-12 -1.96537e+07)
(8.66987e+07 -219580 5.58644e-12 104826 -1.04316e-11 2.15377e+07)
(3.25097e+07 -1.97294e+06 2.57054e-13 266764 -4.10252e-12 8.13252e+06)
(-9.75464e+07 -1.50576e+07 4.38102e-12 -3.91635e+06 4.39514e-12 -2.5175e+07)
(9.75814e+07 -1.5064e+07 -4.38222e-12 3.91783e+06 4.39573e-12 2.5184e+07)
(3.46268e+07 2.66949e+06 2.83573e-12 4.70115e+06 -1.18901e-12 9.75805e+06)
(5.5551e+07 -1.8854e+06 -3.12857e-13 72323.1 1.89559e-12 1.38013e+07)
(5.51516e+07 -1.968e+06 -1.0297e-11 142234 8.76694e-12 1.37195e+07)
(-4.38871e+07 -2.43938e+06 -9.55663e-13 -556526 1.51339e-12 -1.10274e+07)
(2.03254e+07 7.33635e+06 1.11366e-12 1.32333e+06 -4.17822e-13 5.3715e+06)
(258446 -3.57922e+06 9.6082e-12 467220 -1.05153e-11 180053)
(-3.00839e+07 4.5416e+06 8.92121e-13 -4.00956e+06 -5.70786e-13 -8.45928e+06)
(4.5913e+07 -853743 -6.82185e-13 -84380.3 8.18877e-12 1.1371e+07)
(-4.29609e+07 -1.97599e+06 6.62455e-13 -438846 -2.88591e-12 -1.07684e+07)
(-9.31842e+07 -6.668e+06 -2.69033e-12 -3.44969e+06 -2.08544e-12 -2.39768e+07)
(9.32177e+07 -6.67217e+06 4.08835e-12 3.45134e+06 -4.38044e-12 2.39855e+07)
(-1.99696e+07 -2.76339e+06 -6.79586e-12 123119 3.27419e-13 -4.92431e+06)
(-1.48591e+07 6.84748e+06 -1.07248e-12 -2.21462e+06 2.64924e-13 -4.23633e+06)
(-5.86558e+07 -394633 2.72978e-12 -2795 9.79945e-13 -1.45544e+07)
(-5.93917e+07 -1.09417e+06 -6.9091e-12 -143806 -2.58065e-12 -1.4772e+07)
(7.15045e+07 -1.42656e+06 0 8414.38 0 1.77438e+07)
(-5.44022e+07 -622547 -5.81498e-12 -139973 -3.91048e-12 -1.3533e+07)
(4.73218e+07 -2.60583e+06 -5.7398e-12 1.89379e+06 -3.0206e-13 1.22114e+07)
(-4.72878e+07 -2.60246e+06 2.17146e-12 -1.89264e+06 -1.95068e-12 -1.22027e+07)
(1.87048e+07 3.4278e+06 7.15221e-13 -1.5166e+06 -3.22838e-13 4.26475e+06)
(3.20486e+06 5.39185e+06 -1.85407e-12 737118 8.82056e-13 978085)
(5.01152e+07 388492 -8.6068e-12 391976 5.61904e-12 1.25319e+07)
(8.08659e+07 -1.64736e+06 2.67929e-12 564914 -3.52996e-13 2.02046e+07)
(-8.08331e+07 -1.64595e+06 -5.16274e-12 -564702 -4.23866e-12 -2.01965e+07)
(8.89522e+07 -1.26536e+07 -4.93812e-12 4.6269e+06 5.83375e-12 2.32189e+07)
(-8.89189e+07 -1.26464e+07 -2.37148e-13 -4.62443e+06 -1.34477e-12 -2.321e+07)
(6.72902e+06 -1.69294e+06 -9.40404e-13 206519 3.33444e-12 1.72085e+06)
(-1.27815e+07 7.40212e+06 -4.21011e-12 -1.44067e+06 -6.46922e-13 -3.52881e+06)
(6.92483e+07 -2.33477e+07 -1.7189e-13 1.07309e+07 1.50073e-13 1.98445e+07)
(-6.9216e+07 -2.33372e+07 1.03098e-13 -1.07265e+07 -1.77602e-13 -1.98354e+07)
(3.4813e+07 -1.13283e+06 1.97169e-11 595826 -1.01322e-12 8.78565e+06)
(-2.02194e+07 -1.75769e+06 7.42573e-12 -883524 2.89027e-12 -5.23606e+06)
(-3.78127e+07 -1.55817e+06 9.91582e-13 58184.5 3.08416e-12 -9.36766e+06)
(8.87631e+06 -1.79091e+06 -5.14798e-12 169593 1.38864e-12 2.24447e+06)
(5.21729e+06 -2.44591e+06 -1.91748e-12 -101570 -8.97259e-12 1.26931e+06)
(-5.4774e+07 -1.81421e+07 -4.96384e-14 -9.50462e+06 -1.30364e-13 -1.59488e+07)
(5.48016e+07 -1.81501e+07 -3.19641e-14 9.50982e+06 1.00849e-13 1.5957e+07)
(-4.72303e+07 -1.92116e+06 -6.22959e-12 -1.30659e+06 -6.20428e-12 -1.2043e+07)
(4.72663e+07 -1.92601e+06 1.0251e-12 1.3003e+06 -7.84404e-12 1.20504e+07)
(3.97605e+07 -2.44445e+06 -1.94571e-11 -250288 -3.36583e-12 9.80328e+06)
(-4.90266e+07 -2.02971e+06 2.00381e-12 -12624.9 4.24999e-12 -1.21676e+07)
(9.80857e+06 -2.93459e+06 2.63952e-11 -154684 -2.34579e-11 2.39532e+06)
(-9.58817e+06 -2.80156e+06 -3.97913e-12 34842.5 -6.45722e-13 -2.37037e+06)
(-21518.1 -72081.3 -1.81033e-14 -760357 -2.0103e-14 -193999)
(21051.4 -71620.4 -1.92384e-14 764463 1.97164e-14 194902)
(-2.031e+07 -2.22639e+06 -5.29574e-12 -62309.4 -4.06566e-12 -5.05478e+06)
(-2.53065e+07 -1.91979e+06 1.26115e-11 -158092 9.30315e-12 -6.31828e+06)
(1.16779e+07 9.91719e+06 -2.63775e-12 414954 1.18214e-13 3.00049e+06)
(4.03294e+07 -4.01869e+06 -2.48041e-14 4.33601e+06 -2.14448e-13 1.10824e+07)
(2.25926e+06 -1.44205e+06 -7.62806e-12 -282477 -7.86392e-12 490480)
(-1.95126e+07 -2.79147e+06 3.40776e-12 -176118 -4.42896e-13 -4.88516e+06)
(-7.70309e+07 -4.71033e+06 -5.33017e-13 -3.61842e+06 -3.64559e-12 -2.00107e+07)
(7.70631e+07 -4.71385e+06 2.42046e-12 3.62032e+06 -1.29302e-12 2.00192e+07)
(-8.94217e+07 -1.01324e+06 0 14075 0 -2.21838e+07)
(8.94534e+07 -1.01343e+06 -1.34611e-12 -14140.2 2.9005e-12 2.21917e+07)
(-4.33392e+07 -2.031e+06 -4.53574e-12 76164.8 5.92125e-12 -1.07344e+07)
(5.78035e+07 -1.96495e+06 2.57105e-12 86666.9 1.07527e-12 1.43637e+07)
(-8.37222e+07 -911729 2.70588e-12 76206.6 -2.98771e-13 -2.07543e+07)
(8.37545e+07 -912383 0 -75501.3 0 2.07624e+07)
(1.317e+06 -1.50655e+06 -1.10654e-13 2.09896e+06 4.01656e-14 847570)
(7.49562e+06 9.37953e+06 -1.13588e-12 541193 -1.73654e-15 1.9941e+06)
(-7.73114e+07 -1.12587e+07 8.41415e-13 -6.16514e+06 2.70542e-13 -2.07122e+07)
(7.73421e+07 -1.12678e+07 0 6.16923e+06 0 2.07209e+07)
(-1.1788e+07 -351107 -1.72972e-13 2.30556e+06 1.78254e-14 -2.35279e+06)
(1.33147e+07 -6.42676e+06 3.19127e-14 2.44642e+06 -2.31744e-14 3.91066e+06)
(-1.33022e+07 -6.41969e+06 -1.1448e-14 -2.4504e+06 1.44838e-13 -3.90853e+06)
(2.84404e+07 2.0542e+06 -4.33869e-12 4.214e+06 1.99399e-12 8.10223e+06)
(2.91231e+07 -2.49483e+06 -8.68e-12 273455 -6.04213e-13 7.29389e+06)
(-5.61843e+06 -3.52981e+06 -3.46949e-12 364400 -9.45534e-12 -1.30363e+06)
(-185015 -1.83614e+06 2.34382e-11 511049 7.42066e-12 80895.7)
(-844.899 15909.5 4.45173e-14 459013 -5.77519e-14 113681)
(868.607 15029.5 -4.44547e-14 -456797 -5.75632e-14 -113125)
(833195 -2.23748e+06 1.50091e-13 5.94263e+06 1.49985e-13 1.68122e+06)
(-833492 -2.23804e+06 3.62891e-13 -5.94458e+06 1.76195e-13 -1.68178e+06)
(3.91568e+07 -2.40259e+06 4.24399e-12 145020 -2.01977e-12 9.75158e+06)
(-4.38225e+07 -2.2435e+06 -1.65228e-12 -3.28373e+06 -5.8791e-12 -1.1688e+07)
(4.38567e+07 -2.25001e+06 4.81412e-13 3.28646e+06 7.84147e-14 1.16972e+07)
(1.25079e+06 40344.7 -4.72257e-12 125439 -3.94135e-12 341471)
(2.84462e+07 -2.71794e+06 1.85922e-12 117861 -4.34206e-12 7.08731e+06)
(1.72036e+06 -2.15761e+06 -4.84438e-14 2.56637e+06 -2.42466e-14 1.06362e+06)
(-1.72161e+06 -2.16553e+06 -7.5924e-14 -2.57041e+06 -6.49488e-14 -1.06494e+06)
(-3.55275e+07 1.97066e+06 9.15634e-13 -5.40523e+06 -1.81304e-12 -1.01562e+07)
(-2.39196e+07 5.07099e+06 9.65764e-13 61502.6 6.58959e-13 -5.91969e+06)
(-1.9111e+07 1.24298e+06 -6.36086e-13 2.19115e+06 -3.83526e-13 -4.19816e+06)
(2.95339e+07 -2.82709e+06 -8.19881e-13 -47394.5 1.26779e-12 7.31621e+06)
(-6.80096e+07 -440327 5.126e-12 -102598 -6.42349e-13 -1.69e+07)
(9.08582e+06 -2.3247e+06 -1.37646e-12 14061 -6.58254e-12 2.25787e+06)
(3.98368e+07 1.38771e+06 -3.47866e-12 4.7029e+06 3.3535e-12 1.10512e+07)
(-4.78021e+07 -3.15891e+06 5.03405e-13 -5.38984e+06 7.27557e-13 -1.3198e+07)
(-1.67718e+07 4.99883e+06 -1.14175e-13 -2.34073e+06 4.37621e-13 -4.7422e+06)
(4.78174e+07 -3.08863e+06 -2.34457e-12 5.30617e+06 1.74146e-12 1.3181e+07)
(-7.74216e+07 -825067 -6.3583e-12 410109 -1.54866e-13 -1.91081e+07)
(7.89999e+06 -1.91836e+06 -2.92307e-13 649964 1.63046e-13 2.12142e+06)
(3.30987e+07 -1.67136e+06 -8.62097e-12 207416 -2.78377e-12 8.26393e+06)
(-2.85578e+07 -1.98824e+07 -4.88292e-13 -1.62134e+07 -1.53211e-13 -1.11086e+07)
(2.8575e+07 -1.98944e+07 -8.15917e-13 1.62235e+07 4.71072e-13 1.11154e+07)
(-1.54087e+07 -897812 6.57096e-13 -1.26385e+06 2.45354e-12 -4.1368e+06)
(9.97016e+06 8.86338e+06 -1.84105e-12 797419 7.39702e-14 2.67166e+06)
(7.33171e+07 -6.76706e+06 -1.06961e-13 5.94399e+06 6.33313e-13 1.96663e+07)
(-7.32876e+07 -6.75974e+06 -1.40193e-12 -5.93996e+06 -7.04989e-13 -1.9658e+07)
(-5.67994e+07 -667976 2.21877e-11 444288 1.60527e-12 -1.39828e+07)
(5.70806e+07 -652284 -1.20879e-11 -464132 1.78114e-11 1.40477e+07)
(60061.8 -161149 0 119061 0 44444.1)
(-59682.4 -160178 1.96551e-15 -118388 1.49686e-14 -44182.8)
(-3.09766e+07 4.29321e+06 -1.87885e-12 -3.53043e+06 -1.54694e-12 -8.5619e+06)
(1.67562e+07 -1.60139e+07 -5.183e-13 1.57074e+07 2.26086e-13 8.05489e+06)
(-1.67455e+07 -1.60034e+07 1.10464e-12 -1.56973e+07 7.13286e-13 -8.04971e+06)
(-2.42593e+07 -1.15074e+06 -2.72104e-12 353007 1.35733e-11 -5.93164e+06)
(1.14101e+07 -1.52866e+06 2.61326e-12 310568 5.94271e-12 2.90815e+06)
(-4.38787e+07 -2.37866e+06 3.34346e-12 -351458 -5.76522e-12 -1.09744e+07)
(4.3905e+07 -2.39406e+06 -5.16254e-13 312983 6.71432e-12 1.09714e+07)
(8.3504e+07 -3.3919e+06 3.78759e-13 1.61872e+06 -1.66327e-12 2.11207e+07)
(-8.34712e+07 -3.38965e+06 -2.34114e-12 -1.61796e+06 -9.44795e-13 -2.11124e+07)
(-31790.3 -6137.94 2.51859e-14 156373 -1.10616e-13 30911.5)
(31781 -6085.88 -1.86192e-14 -154860 -3.99285e-14 -30538.5)
(5.5317e+06 1.08965e+07 -6.82676e-13 -133399 -3.8477e-13 1.33943e+06)
(-9.73083e+07 -5.82911e+06 4.30999e-12 -2.71402e+06 1.12027e-12 -2.48176e+07)
(9.7342e+07 -5.8322e+06 -4.81108e-12 2.71523e+06 8.33667e-12 2.48262e+07)
(-5.07212e+06 -2.07903e+06 7.64429e-13 -60649.5 -3.56133e-12 -1.27354e+06)
(-3.81943e+07 -192917 1.36115e-12 -3.16789e+06 7.8455e-13 -1.02628e+07)
(-8.11053e+07 -565691 1.44964e-12 -179340 2.58987e-12 -2.01684e+07)
(8.11378e+07 -567155 -4.28812e-12 180190 6.47449e-12 2.01766e+07)
(-8.56875e+07 -1.9597e+07 6.33826e-14 -7.02588e+06 -9.78664e-14 -2.30041e+07)
(8.57225e+07 -1.9607e+07 1.75466e-12 7.02946e+06 -1.16823e-12 2.30136e+07)
(1.63523e+07 -3.06897e+06 -8.15344e-12 -213772 1.87013e-11 4.00431e+06)
(-3.52622e+07 -2.6008e+06 3.68817e-12 167987 2.33217e-12 -8.70759e+06)
(-5.76562e+06 9.22628e+06 1.03791e-12 -596666 -4.62438e-13 -1.57861e+06)
(-2.47337e+07 -1.60775e+07 -4.83475e-13 -1.22672e+07 -2.94281e-13 -9.18066e+06)
(2.47487e+07 -1.60882e+07 4.83921e-13 1.22762e+07 -2.94189e-13 9.18664e+06)
(-9.62582e+07 -5.31951e+06 -3.16119e-12 -1.66362e+06 -2.5048e-12 -2.42964e+07)
(9.62913e+07 -5.32187e+06 -2.00287e-12 1.66421e+06 5.44636e-13 2.43047e+07)
(-1.61272e+07 8.14232e+06 -1.6411e-12 -902316 -3.02217e-13 -4.22538e+06)
(-5.42339e+07 -2.14571e+06 0 -405840 0 -1.35572e+07)
(-1.99919e+07 1.45553e+06 -1.53834e-13 1.20979e+06 -1.00011e-13 -4.66022e+06)
(-5.50544e+07 -1.71745e+06 8.30019e-12 154242 -3.28335e-12 -1.36218e+07)
(-5.47835e+07 -1.78546e+06 -5.29646e-12 -364243 -7.5841e-12 -1.36833e+07)
(-3.2735e+07 1.15033e+06 -2.0125e-12 -4.69965e+06 -1.34018e-12 -9.2883e+06)
(-3.58186e+07 -629851 6.22593e-12 -62511.4 -4.77916e-12 -8.90283e+06)
(3.6077e+07 -877408 3.50147e-12 3.81077e+06 -2.47027e-12 9.89696e+06)
(2.75124e+07 -1.8693e+06 3.79925e-12 57238.3 -4.68323e-12 6.8406e+06)
(-3.60373e+07 -872861 2.63773e-12 -3.80901e+06 1.16472e-12 -9.88669e+06)
(9.46302e+07 -1.19178e+07 2.91255e-12 4.54288e+06 -1.81038e-12 2.46069e+07)
(-9.45959e+07 -1.19114e+07 1.32244e-12 -4.54066e+06 5.34472e-13 -2.45978e+07)
(-2.89798e+07 4.23585e+06 -3.37353e-13 -4.1375e+06 1.43985e-12 -8.21707e+06)
(1.13436e+07 2.19817e+06 -1.45205e-12 1.80648e+06 1.08483e-12 3.2628e+06)
(1.55999e+07 -1.92124e+06 -1.13708e-12 118789 1.94027e-11 3.90013e+06)
(-5.61298e+07 -2.21841e+06 5.20935e-12 40733.2 -2.93309e-12 -1.39168e+07)
(-4.52545e+07 -767358 -1.28809e-12 -5.67498e+06 -7.27545e-13 -1.26366e+07)
(-3.17877e+06 3.59239e+06 1.26509e-13 1.03841e+06 -8.08737e-14 -531065)
(-2.84307e+07 5.39476e+06 -1.55025e-12 -3.39464e+06 -3.58122e-13 -7.8965e+06)
(1.06402e+07 -2.36836e+06 2.23135e-11 34353.5 -1.9856e-11 2.64857e+06)
(3.83155e+07 -222633 5.95957e-13 3.31896e+06 -1.1566e-12 1.03304e+07)
(3.99488e+06 -3.45589e+06 -5.91354e-12 147010 -1.80236e-11 1.02769e+06)
(1.73236e+06 9.9984e+06 -6.15376e-13 100939 4.75076e-13 454878)
(-8.34753e+06 -3.09849e+06 1.06285e-12 71433.8 -1.08289e-11 -2.05347e+06)
(3.50582e+07 -1.76228e+06 5.5789e-13 369914 3.41063e-12 8.79043e+06)
(1.89856e+07 -1.64113e+06 -1.34152e-11 382186 -2.46983e-13 4.80554e+06)
(-7.98728e+07 -635141 -8.44392e-12 -22356.3 -1.12172e-11 -1.98236e+07)
(-3.76234e+07 -1.62096e+06 0 -323438 0 -9.41539e+06)
(6.42918e+07 -4.91469e+06 6.90185e-13 6.66248e+06 -1.51026e-12 1.76052e+07)
(-6.4264e+07 -4.90678e+06 -8.03253e-13 -6.65668e+06 -1.30749e-12 -1.75969e+07)