/*--------------------------------*- C++ -*----------------------------------*\
| =========                 |                                                 |
| \\      /  F ield         | OpenFOAM: The Open Source CFD Toolbox           |
|  \\    /   O peration     | Version:  v3.0+                                 |
|   \\  /    A nd           | Web:      www.OpenFOAM.com                      |
|    \\/     M anipulation  |                                                 |
\*---------------------------------------------------------------------------*/
FoamFile
{
    version     2.0;
    format      ascii;
    class       volScalarField;
    location    "4000";
    object      sigmaxx;
}
// * * * * * * * * * * * * * * * * * * * * * * * * * * * * * * * * * * * * * //

dimensions      [1 -1 -2 0 0 0 0];

internalField   nonuniform List<scalar> 
27023
(
-1.71167e+07
1.71274e+07
1.10408e+07
-1.10338e+07
-1.72881e+07
1.72989e+07
9.27538e+07
-9.27199e+07
4.15757e+06
-4.15125e+06
6.71619e+07
-6.713e+07
752716
-768970
-2.68045e+07
2.19899e+06
1.49086e+06
-5.74649e+07
5.74994e+07
4.21522e+07
-4.21203e+07
9.2223e+07
-9.21888e+07
4.71607e+07
-4.71356e+07
7.42639e+06
-3.29676e+07
3.49199e+06
-3.25344e+07
3.19033e+07
1.53963e+07
4.21897e+07
-4.21593e+07
-4.28509e+07
-2.65355e+07
3.3309e+07
3.84221e+07
-3.83854e+07
3.98659e+06
-3.98331e+06
-1.10088e+07
1.10161e+07
-2.16358e+07
-1.64802e+07
1.64907e+07
5.67386e+07
-5.67039e+07
4.46077e+07
-4.45766e+07
2.95002e+07
4.3046e+07
-4.30149e+07
-4.17978e+07
495.373
-498.363
4.71047e+07
1.96556e+07
3.48637e+07
-1.59453e+07
1.05224e+07
-1.05159e+07
2.89758e+07
4.4974e+06
5.17866e+06
-2.10122e+07
1.367e+07
3.75129e+07
9.19886e+06
-3.34371e+07
-2.01874e+07
3.67907e+07
-3.67537e+07
6.42546e+07
-6.4226e+07
8.54873e+07
-8.54552e+07
157739
-155883
-1.00786e+08
1.0082e+08
-2.50215e+07
6.48935e+07
-6.48617e+07
6.25918e+07
-6.25634e+07
-9.07307e+07
9.07627e+07
-3.73668e+07
3.59833e+06
-1.68544e+07
1.61643e+07
2.14341e+07
-2.14209e+07
1.87423e+07
-7.66162e+06
-4.7275e+07
4.72948e+07
-2.49623e+07
-1.67948e+07
817349
-2.74686e+07
-1.72034e+07
1.75135e+07
7.5299e+07
-7.52692e+07
3.04488e+06
8.41769e+07
-8.41449e+07
4.64958e+07
3.26059e+07
1.99675e+07
8.44424e+07
-8.44106e+07
4.66666e+07
-4.66425e+07
8.62293e+07
-8.61971e+07
2.07835e+07
-3.40781e+07
-2.53709e+07
2.06208e+07
2.17233e+06
-6.99564e+07
6.99886e+07
9.991e+07
-9.98746e+07
2.10601e+07
-2.10469e+07
7.65388e+07
-7.65088e+07
-1.54273e+07
-1.84874e+06
1.87996e+06
-1.44263e+07
1.78049e+07
-9.098e+07
9.10121e+07
8.78032e+06
5.89882e+07
-5.89537e+07
-8.6726e+07
8.67595e+07
-6.10262e+06
8.97134e+07
-8.96801e+07
-1.45038e+07
-1.58715e+07
4.29127e+07
3.82051e+07
3.62125e+07
-3.61915e+07
4.53554e+07
-4.53334e+07
-2.58732e+07
-2.73269e+07
-2.82757e+07
2.82488e+07
2.69638e+07
5.82852e+07
-5.82507e+07
-5.2773e+07
-2.18395e+07
-4.54983e+07
3.15677e+06
-5.40658e+07
5.40932e+07
-7.87532e+07
7.87856e+07
-1.78974e+07
1.87484e+06
5.09082e+06
-1.01386e+08
1.01419e+08
-1.85394e+07
1.84686e+07
-2.88428e+07
2.35138e+06
-5.69246e+06
-1.89305e+07
9.23762e+06
-3.83207e+07
-8.27887e+07
8.28212e+07
-2.87238e+07
-5.24567e+07
-5.5851e+07
-4.47828e+07
4.48031e+07
-4.77873e+07
-1.70561e+07
-7.87281e+07
7.87599e+07
-2.40359e+07
4.05531e+06
1.00541e+08
-1.00507e+08
-5.91527e+07
-7.6114e+07
7.61467e+07
-3.20029e+07
2.85307e+07
-3.39336e+07
8.38231e+07
-8.379e+07
-1.63119e+07
1.63223e+07
-2.14784e+07
-5.83525e+07
8.36509e+07
-8.36177e+07
23609.7
-23425.1
1.8217e+07
-2.29054e+07
-9.76086e+06
9.76887e+06
-2.81697e+07
2.18929e+06
5.9776e+06
-8.93785e+07
8.94108e+07
-1.55094e+07
-7.03819e+07
7.0414e+07
-2.68883e+07
7.87794e+07
-7.87467e+07
6.48225e+07
-6.47945e+07
1.69434e+06
-1.69417e+06
4.2298e+06
8.1126e+07
-8.10933e+07
-5.38459e+07
7.86666e+07
-7.8634e+07
8.66987e+07
3.25097e+07
-9.75464e+07
9.75814e+07
3.46268e+07
5.5551e+07
5.51516e+07
-4.38871e+07
2.03254e+07
258446
-3.00839e+07
4.5913e+07
-4.29609e+07
-9.31842e+07
9.32177e+07
-1.99696e+07
-1.48591e+07
-5.86558e+07
-5.93917e+07
7.15045e+07
-5.44022e+07
4.73218e+07
-4.72878e+07
1.87048e+07
3.20486e+06
5.01152e+07
8.08659e+07
-8.08331e+07
8.89522e+07
-8.89189e+07
6.72902e+06
-1.27815e+07
6.92483e+07
-6.9216e+07
3.4813e+07
-2.02194e+07
-3.78127e+07
8.87631e+06
5.21729e+06
-5.4774e+07
5.48016e+07
-4.72303e+07
4.72663e+07
3.97605e+07
-4.90266e+07
9.80857e+06
-9.58817e+06
-21518.1
21051.4
-2.031e+07
-2.53065e+07
1.16779e+07
4.03294e+07
2.25926e+06
-1.95126e+07
-7.70309e+07
7.70631e+07
-8.94217e+07
8.94534e+07
-4.33392e+07
5.78035e+07
-8.37222e+07
8.37545e+07
1.317e+06
7.49562e+06
-7.73114e+07
7.73421e+07
-1.1788e+07
1.33147e+07
-1.33022e+07
2.84404e+07
2.91231e+07
-5.61843e+06
-185015
-844.899
868.607
833195
-833492
3.91568e+07
-4.38225e+07
4.38567e+07
1.25079e+06
2.84462e+07
1.72036e+06
-1.72161e+06
-3.55275e+07
-2.39196e+07
-1.9111e+07
2.95339e+07
-6.80096e+07
9.08582e+06
3.98368e+07
-4.78021e+07
-1.67718e+07
4.78174e+07
-7.74216e+07
7.89999e+06
3.30987e+07
-2.85578e+07
2.8575e+07
-1.54087e+07
9.97016e+06
7.33171e+07
-7.32876e+07
-5.67994e+07
5.70806e+07
60061.8
-59682.4
-3.09766e+07
1.67562e+07
-1.67455e+07
-2.42593e+07
1.14101e+07
-4.38787e+07
4.3905e+07
8.3504e+07
-8.34712e+07
-31790.3
31781
5.5317e+06
-9.73083e+07
9.7342e+07
-5.07212e+06
-3.81943e+07
-8.11053e+07
8.11378e+07
-8.56875e+07
8.57225e+07
1.63523e+07
-3.52622e+07
-5.76562e+06
-2.47337e+07
2.47487e+07
-9.62582e+07
9.62913e+07
-1.61272e+07
-5.42339e+07
-1.99919e+07
-5.50544e+07
-5.47835e+07
-3.2735e+07
-3.58186e+07
3.6077e+07
2.75124e+07
-3.60373e+07
9.46302e+07
-9.45959e+07
-2.89798e+07
1.13436e+07
1.55999e+07
-5.61298e+07
-4.52545e+07
-3.17877e+06
-2.84307e+07
1.06402e+07
3.83155e+07
3.99488e+06
1.73236e+06
-8.34753e+06
3.50582e+07
1.89856e+07
-7.98728e+07
-3.76234e+07
6.42918e+07
-6.4264e+07
2.40657e+07
-2.33793e+07
1.11984e+07
-2.5865e+07
2.58808e+07
963049
1.89533e+07
-4.31416e+07
2.59179e+06
4.30926e+07
89952.9
-89989.5
-1.62407e+07
4.65251e+07
3.49789e+07
5.71748e+07
3.07616e+07
-4.04619e+07
1.74353e+07
-5.05092e+07
1.45148e+07
6.32341e+06
4.25577e+06
-7.61655e+07
-8.14274e+07
8.14592e+07
-7.07362e+07
6.66968e+06
5.43934e+07
-2.74541e+07
7.85575e+07
-7.85248e+07
-5.61248e+07
5.61534e+07
5.67364e+07
5.29939e+06
4.80404e+06
-4.8021e+06
-7.14606e+07
7.14386e+07
5.04178e+07
-5.03841e+07
11465.1
-11513.4
-1.75441e+07
-1.25611e+07
-4.52176e+07
-4.69434e+06
-1.20566e+07
-7.79271e+07
7.79608e+07
-7.63449e+07
7.63783e+07
4.99208e+07
-4.98898e+07
4.21249e+07
-4.21025e+07
-1.07932e+07
295813
-1.09921e+07
-4.35472e+07
1.98854e+07
5.30695e+07
-1.81943e+07
-9.7347e+07
9.73826e+07
-4.78774e+07
2.42433e+07
1.22217e+07
6.41792e+07
5.5194e+07
-3.75245e+07
-1.35874e+07
7.80054e+07
-7.79734e+07
-2.18486e+07
2.19057e+07
1.26034e+07
-1.25939e+07
8.01939e+07
-8.01611e+07
2.09298e+06
1.15069e+07
-1.34852e+07
1.76921e+07
7.74044e+07
8.37909e+06
-6.68853e+07
6.69174e+07
-3.11162e+07
3.86409e+07
2.47777e+06
-4.42429e+07
4.42775e+07
2.18334e+07
-2.182e+07
2.85365e+07
-6.66144e+07
-3.86769e+07
-2.67316e+07
2.67473e+07
-4.27946e+07
-6.94375e+06
3.90356e+07
-3.90015e+07
-3.29323e+07
8.98824e+07
-8.98442e+07
6.81257e+07
-6.80938e+07
-4.44091e+07
-6.09598e+07
6.09889e+07
-2.24055e+07
-3.1863e+07
7.41767e+07
-7.41436e+07
-5.71298e+07
-8.21467e+07
8.21787e+07
4.76422e+07
-7.42188e+07
7.42495e+07
-4.72679e+07
4.73061e+07
-1.13145e+07
4.75513e+07
-4.75275e+07
-3.8193e+07
-7.72956e+06
-9.07621e+06
-1.24832e+07
5.47179e+07
-5.46931e+07
-9.26718e+07
9.27047e+07
-3.47761e+07
-5.85102e+07
3.27542e+07
3.55571e+06
-3.96417e+07
-3.64157e+07
1.9869e+07
-4.54987e+06
4.55181e+06
-6.78586e+07
-8.99821e+07
9.0014e+07
3.44669e+07
3.53613e+06
-7.46371e+07
7.46671e+07
-3.74094e+07
-4.58968e+07
4.59129e+07
461489
5.48989e+06
-1.35382e+07
-3.11584e+07
-2.95844e+07
3.83423e+07
-3.83089e+07
-4.11701e+07
-951356
6.57306e+07
-6.56971e+07
1.50921e+07
-4.14095e+07
4.1439e+07
-1.21004e+07
2.50516e+07
-2.50364e+07
-7.37385e+07
7.37701e+07
-2.9336e+07
2.93533e+07
4.58963e+07
-3.05529e+07
3.0518e+07
4.52041e+07
-3.70447e+07
3.70658e+07
-3.20429e+07
1.52414e+07
-1.73759e+07
-4.79379e+07
3.54144e+06
-8.98365e+06
-1.66263e+07
-7.59902e+07
4.42925e+07
-4.42656e+07
3.5126e+07
4.51431e+07
-4.51178e+07
-3.319e+07
-6.15766e+07
6.16047e+07
-1.19799e+07
-3.19781e+06
-4.22e+07
4.22306e+07
7.7136e+07
-7.7103e+07
5.88907e+07
2.16354e+07
3.51141e+07
6.44265e+07
-6.4395e+07
8.74371e+07
-8.74045e+07
2.78843e+07
-2.18196e+07
1.11819e+07
-1.14759e+07
3.12416e+07
-3.11958e+07
-3.55148e+07
-213820
-391271
393566
215086
-2.18654e+07
714809
-720991
-3.69202e+07
3.69415e+07
-1.91743e+07
1.91864e+07
2.44442e+07
-2.44294e+07
5.60909e+06
5.57066e+07
-5.56807e+07
-4.5382e+07
-2.15193e+07
-5.25648e+07
5.25903e+07
-2.7186e+07
6.09077e+07
-6.08773e+07
-3.55943e+07
-2.67307e+07
5.55457e+07
-2.71986e+07
2.72148e+07
5.45783e+07
4.0905e+06
-26363.3
-2.59447e+07
-7.63867e+07
7.64179e+07
-7.60097e+06
4.34442e+07
-9.70497e+07
9.70832e+07
11261.7
-11300.3
4.90739e+07
-4.90466e+07
4.25033e+07
-6.77468e+06
9.73413e+07
-9.73096e+07
-2.85058e+07
-4.37056e+07
8.07968e+06
1.92487e+07
3.7231e+07
3.18354e+07
1.76833e+07
-1.5533e+06
-1.25811e+07
-5.30796e+07
3.40704e+07
5.01497e+07
-4.78776e+07
-2.43516e+07
-2.00967e+07
45942.9
-46180.4
6.13714e+07
-6.13432e+07
3.65168e+07
-2.95937e+06
-2.14889e+07
-7.74821e+06
4.37702e+07
4.69829e+07
-4.37903e+07
-4.7512e+06
3.04456e+07
-3.33893e+07
-1.13574e+07
1.98165e+07
-1.98038e+07
3.92319e+07
6.163e+07
-5.85176e+06
-3.06573e+07
7.78711e+07
-7.78393e+07
-8.45567e+07
8.45898e+07
-15887
15535.3
-4.16802e+06
-5.65054e+06
-2.4407e+07
-2.98302e+06
-4.04577e+07
4.0482e+07
2.66106e+07
3.3861e+06
-3.38531e+06
-8.96836e+07
8.97161e+07
-7.03092e+07
6.90595e+07
-6.90296e+07
-1.23724e+07
5.58433e+07
-3.50303e+07
-2.03168e+07
5.53571e+07
6.17113e+06
7.35672e+07
-7.35345e+07
2.96107e+07
-8.54333e+06
8.54709e+07
-8.54355e+07
-2.95944e+07
-7.94664e+07
-2.32748e+07
7.94971e+07
2.10222e+07
-2.09769e+07
4.0053e+07
2.92432e+07
-4.19756e+07
-1.68889e+06
-4.1978e+07
-1.95379e+07
7.35956e+07
-1.36113e+07
2.58451e+07
-2.58291e+07
-8.42693e+07
8.43017e+07
2.11967e+07
5.81308e+06
-7.44848e+07
7.4516e+07
-4.62118e+07
3.81212e+07
3.09827e+07
1.47019e+07
3.44605e+07
1.69458e+07
-1.69351e+07
-1.19569e+07
4.18555e+07
-4.18282e+07
-8.33456e+07
8.33781e+07
958439
-3.17794e+07
-5.82326e+06
-7.35407e+07
6.17003e+07
-6.16685e+07
3.13923e+07
3.60859e+06
-2.23732e+07
-4.9941e+07
-2.04534e+07
-2.97933e+07
-1.15014e+07
-2.96499e+07
3.5328e+07
8.48673e+07
-8.4835e+07
6.83911e+07
-6.83589e+07
5.53401e+07
-5.44302e+07
-1.2241e+07
5.51053e+06
8.24914e+07
-8.2459e+07
-5.78785e+07
-5.24837e+07
1.54661e+06
-2.14555e+07
6.55332e+06
2.97967e+06
-2.97272e+06
-2.23661e+07
-8.85682e+06
8.99008e+07
-8.98666e+07
-2.32999e+06
2.39202e+07
-4.62588e+06
1.00025e+08
-9.99924e+07
-2.96843e+07
2.97053e+07
-3.52969e+07
-1.75346e+07
1.75464e+07
-1.23582e+07
-5.62686e+06
2.92755e+06
5.35788e+06
7.69882e+07
-7.69556e+07
-1.09704e+07
-4.34388e+07
4.34724e+07
8.63586e+07
-8.63248e+07
-2.89575e+07
2.87878e+07
4.21698e+07
-4.21476e+07
-8.60611e+07
8.60957e+07
9.94793e+06
-5.43176e+07
8.83495e+07
-8.8315e+07
-5.68235e+07
-4.17304e+06
4.20819e+07
-4.20602e+07
6.8486e+07
-6.84528e+07
-4.83204e+07
-7.67652e+07
7.67966e+07
-9.45693e+07
9.46008e+07
4.83369e+07
2.33238e+07
3.35499e+07
1.51433e+07
6.02909e+07
-6.02563e+07
-7.59134e+07
4.60381e+06
5.8338e+06
7.59418e+07
2.4181e+07
3.88424e+07
-3.36866e+07
4.16681e+07
-4.16413e+07
870371
1.11112e+07
-4.08386e+07
6.06907e+07
-6.07122e+07
2.36413e+07
-2.67103e+06
58945.9
-57649.6
-3.03397e+07
-3.48398e+07
-2.81331e+07
8.81699e+07
-8.81367e+07
-5.09131e+07
-4.18466e+07
-4.98373e+07
2.60489e+07
4.01003e+07
-4.00782e+07
-5.40587e+07
2.04195e+07
5.09705e+07
-2.98754e+07
3.01171e+07
4.98579e+07
-5.00374e+07
4.31768e+07
-4.31547e+07
-7.53826e+07
7.54152e+07
4.9017e+07
-1.73556e+07
3.17922e+07
7.02481e+07
-7.0216e+07
-6.89458e+07
6.89788e+07
103771
-2.59407e+07
6.06549e+07
-6.06204e+07
-3.5095e+07
6.54021e+06
-6.53653e+06
-2.77176e+07
-2.83123e+07
7.62036e+07
-4.57799e+07
-4.79538e+07
-5.73924e+07
3.1041e+07
-3.31027e+07
-1.11026e+07
8.68925e+07
-8.68603e+07
-4.7555e+06
1.12578e+06
1.52679e+07
-3.37112e+07
-1.43912e+07
-7.99592e+06
-4.72386e+06
3.18971e+07
-2.53136e+07
2.25973e+06
1.28508e+07
-3.00816e+07
2.47182e+07
-6.95561e+07
1.72968e+07
-1.78448e+07
-4.6654e+06
4.6675e+06
2.95368e+07
-9.12983e+06
9.13346e+06
-2.387e+07
-1.34537e+07
5.6094e+07
-5.60687e+07
3.03247e+07
6.59559e+06
-6.59385e+06
-2.52908e+07
-1.49137e+07
2.83124e+07
-3.69928e+07
4.23552e+07
2.6976e+07
-8.0877e+07
3.29342e+07
2.72774e+07
4.56536e+07
1.84704e+07
-1.84589e+07
1.10069e+07
-1.11896e+07
252218
-252649
4.50279e+07
-1.33279e+06
3.33408e+07
2.48501e+07
-3.29726e+07
3.30042e+07
-5.61323e+07
-1.02227e+07
2.84818e+07
-68136.7
67933.5
-3.17025e+07
-2.17356e+07
-659297
3.80158e+06
-1.58599e+07
5.4982e+07
2.83075e+07
-4.1133e+07
-3.42259e+07
3.42564e+07
-6.43595e+07
-5.02438e+07
1.06835e+06
6.16658e+06
-3.73179e+07
-5.84375e+07
5.84691e+07
2.4253e+06
-2.53246e+07
-6.1832e+07
-4.92833e+06
4.93057e+06
-3.28679e+07
1.50264e+07
3.33865e+07
-7.73634e+07
7.73959e+07
-1.43882e+07
-4.08009e+07
4.0835e+07
5.34097e+07
-5.33803e+07
2.50815e+07
-3.3489e+07
205240
-203227
-2.72499e+07
1.32899e+06
9.86188e+06
8.44479e+07
-8.44153e+07
-9.80361e+06
9.14166e+07
-9.13791e+07
5.17319e+06
4.03714e+07
-1.35883e+07
-5.97646e+07
-2.5173e+07
-8.5456e+06
5.97968e+07
6.07111e+07
7.11264e+06
-2.53517e+07
-3.59988e+07
3.60303e+07
3.48793e+07
-3.58639e+07
5.43428e+07
2.6878e+07
3.67842e+07
-8.13935e+06
6.1957e+06
-1.26618e+07
-2.0426e+07
2.38313e+06
7.91342e+06
-1.26031e+07
-8.37422e+06
429546
3.5321e+07
2.06594e+07
-4.58083e+07
-3.36198e+07
-1.52419e+07
-5.62311e+07
5.27021e+07
-4.93956e+07
4.94198e+07
1.03557e+07
-4.17608e+06
-3.23375e+07
3.2365e+07
6.616e+07
-6.61264e+07
-2.24161e+07
-8.78365e+06
4.53811e+07
-5.24791e+06
5.2492e+06
8.20737e+07
-8.20415e+07
5.61779e+06
1.22795e+06
-2.91665e+07
-8.20862e+06
-6.72705e+06
-1.60316e+06
-7.24145e+06
-1.79887e+06
5.60614e+07
5.43772e+07
-5.43516e+07
3.15914e+07
-3.15252e+07
1.416e+07
1.35289e+07
8.22951e+07
-8.22625e+07
7.19952e+06
1.4428e+07
3.19905e+07
-1.19767e+07
-5.13713e+07
-2.18023e+07
1.99939e+07
-1.6724e+07
6.12693e+07
-9.40151e+06
-1.90804e+07
7.27955e+07
5.64586e+07
-5.64324e+07
-6.48149e+07
1.1085e+07
3.57968e+07
-2.68772e+07
2.78995e+07
7.17852e+07
-7.17249e+07
-2.82413e+07
-7.4522e+07
-3.12702e+06
3.12924e+06
5.62125e+06
-5.61842e+06
2.07158e+07
2.96845e+07
-2.72726e+07
8.49118e+07
-7.74218e+07
7.7456e+07
1.19813e+07
-1.19704e+07
-1.37324e+07
8.69792e+07
-8.69466e+07
-3.48349e+07
3.43816e+07
-9.4314e+06
-19168.9
19107.7
-2.8645e+07
-1.35941e+07
6.90282e+07
-1.84069e+07
-7.9721e+07
7.97529e+07
3.06894e+07
6.58052e+07
-6.53172e+07
2.47757e+07
1.62811e+07
-2.24085e+06
3.26205e+07
-3.25956e+07
-8.16676e+07
8.17002e+07
-1.52699e+07
-3.81036e+07
3.81238e+07
-7.67269e+07
7.67594e+07
1.69416e+07
-4.13931e+07
3.47666e+07
-1.36827e+07
3.02345e+07
-3.02135e+07
-2.66966e+07
1.23568e+07
5.95909e+07
-588169
-2.44955e+07
2.45103e+07
-3.55011e+07
1.70885e+07
7.08474e+07
7.13645e+07
-7.13316e+07
5.30166e+07
-6.99426e+06
-2.70035e+07
2.6515e+07
8.80315e+07
-8.79954e+07
-3.77427e+07
5.98508e+07
-5.9821e+07
3.67338e+07
-5.89339e+07
-4.70501e+07
4.70487e+07
3.16214e+07
2.17285e+07
1.69193e+06
-2.59274e+06
-4.38587e+07
1.38919e+07
-1.12195e+07
32870.7
-33063.2
5.89811e+07
7.10001e+06
-7.09574e+06
7.06198e+07
-7.05879e+07
46640.8
8.62546e+07
-8.622e+07
-5.7899e+07
5.79268e+07
-9.2992e+07
9.30232e+07
2.40628e+07
8.57356e+07
-8.57032e+07
6.95197e+06
-2.88723e+07
-1.22013e+06
-2.66725e+07
1.85872e+07
-2.52626e+07
6.66693e+07
-6.66391e+07
-1.76149e+07
1.76291e+07
1.75848e+07
-2.40294e+06
1.36006e+06
5.4293e+07
9.48265e+06
3.96082e+07
-5.87842e+07
9.0022e+06
-1.17517e+07
2.5933e+06
-2.59285e+06
5.47574e+07
-3.77615e+07
5.39989e+07
-3.50811e+07
-1.70552e+07
6.9309e+06
3.641e+07
-3.63688e+07
3.573e+07
1.97888e+07
-3.17154e+07
3.17722e+07
-1.34242e+07
-4.20001e+07
-8.31801e+07
-4.44669e+07
4.44918e+07
5.85125e+07
-2.82795e+07
3.44694e+07
-3.64131e+07
4.41224e+07
8.32123e+07
3.64332e+07
4.62948e+07
3.79663e+07
2.22664e+07
3.48522e+07
-1.12896e+07
3.0457e+07
2.28601e+07
1.74191e+07
-5.43416e+06
-1.86907e+07
3.19668e+07
-3.44271e+07
-2.11146e+07
6.75917e+07
-6.75584e+07
-4.85777e+07
1.35453e+07
-1.23878e+07
-1.45319e+07
5.77456e+07
-5.607e+07
6.72507e+06
-6.91786e+07
-2.40082e+07
1.05152e+07
5.61046e+07
3.06114e+07
-4.51312e+07
1.92485e+07
-8.32648e+06
5.2659e+07
-5.18581e+07
3.57354e+07
52531.1
-53463.7
-5.86559e+07
-6.39112e+07
6.39432e+07
3.04085e+06
7.33747e+07
-7.33444e+07
8.77309e+06
1.55312e+07
-1.55213e+07
-3.82284e+07
298711
8.89082e+06
8.96705e+07
-8.96363e+07
-4.28271e+06
-6.87578e+07
7.48105e+07
-2.74356e+07
7.09304e+07
-7.08989e+07
-3.91633e+07
1.09889e+07
6.81377e+06
-6.38282e+07
3.37283e+07
-3.37022e+07
9288.5
-9361.93
4.48782e+06
2.09576e+07
4.02309e+07
-4.02089e+07
7.5718e+07
-7.56875e+07
-6.29812e+07
1.38735e+07
2.80418e+07
6.98571e+07
-6.98283e+07
3.42722e+06
-136565
135637
-6.5816e+07
6.58017e+07
-7.57084e+07
7.57391e+07
-7.00753e+07
8.19616e+07
-8.19289e+07
5.23663e+07
-5.23378e+07
3.87995e+07
-1.80218e+07
-7.63607e+07
7.47713e+07
3.17804e+07
2.10843e+06
-7.47424e+07
1.36039e+07
3.92172e+07
4.1437e+07
4.5172e+07
2.65901e+07
7.81989e+07
-7.81666e+07
-2.0201e+07
-5.98023e+07
5.98308e+07
8.44962e+07
-8.44644e+07
-2.95202e+07
-5.63846e+07
5.64126e+07
3.37015e+07
-3.36748e+07
-3.34752e+07
3.22756e+07
-3.22418e+07
3.33715e+07
-8.46349e+07
8.46675e+07
2.13773e+07
-1.47434e+07
-3.3947e+07
-6.39332e+06
2.91432e+07
-2.90593e+07
1.28822e+07
-3.2377e+07
1.55795e+07
-2.57329e+07
-3427.01
3417.16
-9.25463e+07
9.25792e+07
-1.30767e+07
2.36122e+07
8.9458e+07
-8.94219e+07
-3.56811e+07
3.10296e+07
1.70071e+07
-5.52547e+07
5.55742e+07
3.36678e+07
-2.11175e+06
-5.76852e+07
7.57342e+06
-8.85286e+07
8.85632e+07
-3.65807e+07
3.66131e+07
-5.35076e+07
5.35424e+07
1.37527e+06
-1.38767e+06
1.50575e+07
-5.27348e+07
-1.05902e+07
-2.95909e+07
-3.09808e+07
-6.37982e+06
954520
-954902
-1.51888e+07
-1.99796e+06
2.91246e+07
-3.34489e+07
3.34698e+07
2.6217e+07
-1.96236e+06
-4.04571e+07
5.86831e+07
-5.86529e+07
-3.57896e+07
5.67653e+06
-5.94623e+07
5.94965e+07
-2.47956e+07
-5.91459e+07
5.91729e+07
-4.87773e+07
-2.68473e+07
-3.35818e+07
-1.76528e+07
2.00504e+07
-2.01163e+07
7.56916e+07
1.69496e+07
4.37182e+07
-4.36964e+07
2.01845e+06
3.50978e+07
-3.50769e+07
5.9388e+06
6.4944e+07
-6.49142e+07
-2.08665e+07
2.08793e+07
-3.62707e+06
-1.96935e+07
1.9711e+07
-6.51598e+07
6.51936e+07
4.02067e+07
-2.36668e+07
-3.99773e+07
3.4431e+07
-3.44107e+07
3.97965e+07
-1.33051e+07
-3.55674e+07
3.56042e+07
8.81093e+06
7.59877e+07
-7.59533e+07
1.06214e+07
5.12916e+07
8.26508e+07
-8.26187e+07
-176443
177985
-3.33762e+06
7.3266e+07
-7.32361e+07
9.09963e+06
3.40781e+07
-3.4043e+07
3.4679e+06
-3.46657e+06
-1.02814e+06
3.337e+07
7.55596e+07
-7.55254e+07
-9.59623e+07
9.59961e+07
3.09006e+07
3.61168e+06
-4.45144e+06
4.45327e+06
2.22231e+07
-21355.1
21269.7
-8.83365e+07
8.83683e+07
-2.37341e+07
7.13149e+06
-7.12763e+06
1.06151e+07
-7.56528e+07
7.56837e+07
-1.97395e+07
-1.03174e+07
-8.33266e+07
8.33594e+07
-7.58146e+07
7.58479e+07
-2.32212e+07
2.0919e+06
-5.52425e+07
2.5922e+07
-1.7067e+07
-8.8076e+06
2.86029e+07
3.16018e+07
-3.59786e+07
3.60541e+07
-6.77023e+07
6.77358e+07
8.30467e+07
-8.3014e+07
6.61989e+07
-3.48935e+07
-7.773e+06
2.87868e+06
-7.80357e+07
-3.41267e+07
5.3963e+07
5.01842e+07
-5.44421e+07
4.55381e+07
-4.55051e+07
-2.72914e+07
2.7308e+07
6.76404e+06
-9.52642e+06
-3.33269e+07
1.61935e+06
-3.42924e+06
2.783e+07
-3.05871e+07
-1.28843e+07
3.64951e+07
-3.64609e+07
819923
-4.07987e+07
4.08342e+07
-1.68723e+07
-8.55085e+07
8.5546e+07
-8.00701e+07
8.01017e+07
-1.21271e+07
-6.00482e+07
6.00762e+07
1.01439e+08
-1.01405e+08
6.70077e+07
-6.69797e+07
3.24835e+07
-3.24644e+07
7.36614e+07
1.78907e+07
2.33076e+07
-1.08875e+07
-2.84836e+07
2.85008e+07
-6.10232e+07
6.10508e+07
-2.10297e+07
2.0649e+07
-1.78864e+07
9.55943e+07
-9.55621e+07
3.5643e+07
-4.84936e+07
4.85004e+07
-2.79457e+07
-3.48319e+07
5.09237e+07
-1.54522e+07
3.24382e+07
-3.23667e+07
4.67868e+06
-3.62083e+07
3.33778e+07
716191
-716483
6.24392e+07
1.28863e+07
1.27781e+07
-1.82973e+07
-4.42459e+07
-7.20353e+07
1.73091e+07
1.125e+07
-1.12426e+07
7.20647e+07
-7.20315e+07
3.68691e+07
-3.68476e+07
-2.015e+07
1.73097e+07
1.67412e+07
9.75431e+06
-1.77454e+07
-6.1031e+07
2.23705e+07
2.44494e+07
1.07375e+07
-6.94505e+07
6.94267e+07
1.1993e+06
-1.19971e+06
1.90348e+07
1.52967e+07
-4.74444e+07
4.74758e+07
3.29812e+07
-3.2962e+07
8.85574e+07
-8.8523e+07
-2.26942e+07
-1.15621e+07
1.1492e+07
5.72173e+06
-6.42235e+07
6.50311e+07
-7.91735e+07
7.92065e+07
3.57651e+07
-1.35753e+06
5.94387e+07
-5.94072e+07
-3.80824e+07
3.78716e+07
2.83024e+07
-1.12433e+07
-3.66378e+07
-1.80477e+07
3.02764e+07
-3.02048e+07
4.64386e+07
-4.64158e+07
-5.33204e+07
7.87455e+07
-7.87126e+07
6.76552e+07
-6.76231e+07
7.25246e+07
3.14174e+07
-3.13676e+07
-1.99424e+07
1.99555e+07
1.13301e+07
-2.08918e+07
-4.2697e+07
-3.32489e+07
3.32862e+07
-3.90899e+06
3.91036e+06
1.91693e+06
4.21927e+07
-5.43686e+07
5.43961e+07
4.29162e+07
1.87752e+07
-9.49041e+07
9.49382e+07
1.81747e+07
5.05406e+07
-6.40501e+07
1.99842e+07
-5.66824e+07
-6.5691e+07
6.57203e+07
2.27263e+07
7.00421e+07
-7.0012e+07
1.32239e+07
2.27307e+07
5.67078e+07
-5.07733e+07
5.08019e+07
-2.60742e+07
2.7737e+07
-309478
8.1635e+07
-8.16023e+07
7.2466e+06
-1.23212e+07
4.70249e+07
-4.69915e+07
2.93913e+07
-3.05442e+07
3.03579e+07
3.3444e+06
2.25002e+06
-2.10589e+06
4.50176e+07
-4.49847e+07
9.43997e+06
-1.38257e+07
-3.05905e+07
5.70561e+07
-4.31286e+06
-1.55975e+07
-5.26655e+06
2.15635e+06
2.94786e+07
6.89756e+07
-2.38148e+07
6.60828e+07
-6.60511e+07
-3.12856e+07
1.03983e+06
-1.04e+06
7.09061e+07
-7.0876e+07
2.41054e+07
-7.5382e+07
7.54141e+07
3.04497e+07
6.8149e+07
-9.64763e+06
-77586.2
77445
4.83328e+06
-6.10121e+07
6.10445e+07
-3.93065e+07
4.23737e+06
4.05634e+07
-483240
-6.61452e+07
3.11949e+07
-2.09799e+07
2.09967e+07
3.68877e+07
-3.68665e+07
-3.48101e+07
1.57608e+07
3.02113e+07
-6.8387e+07
6.84153e+07
-7.79977e+06
4.56189e+06
-4.55957e+06
-817155
-8.31747e+07
8.3207e+07
-1.17589e+07
2.03832e+07
-2.76595e+07
2.40085e+07
-2.40474e+07
3.84127e+07
-3.83782e+07
-2.77042e+07
3.02148e+07
-3.99481e+07
4.0055e+07
4.90448e+07
-3.36791e+07
-5.05266e+07
3.81919e+06
-6.24239e+07
-1.3218e+07
3.22038e+07
-3.21644e+07
-944484
1.25629e+07
-1.25548e+07
6.77186e+07
-6.76934e+07
5.59269e+07
7.63245e+07
5.07353e+06
1.20161e+07
3.27025e+07
2.6703e+06
-6.34045e+07
-6.10802e+07
4.20598e+07
2.622e+07
-3.49022e+07
-1.15798e+07
3.45812e+07
-4.39039e+07
4.39354e+07
4.46043e+07
-4.45792e+07
5.53509e+07
-5.59215e+07
2.48788e+07
-4.17523e+07
4.17868e+07
4.39871e+06
-4.62847e+07
4.63726e+07
-6.90236e+07
6.9053e+07
1.74253e+07
4.72292e+07
-1.01559e+07
-3.47075e+07
-6.22431e+07
7581.76
-7641.2
3.02238e+07
-1.63365e+07
1.98561e+07
-1.7318e+07
9.27703e+06
3.25602e+07
-3.25383e+07
-5.73122e+07
5.73382e+07
3.11493e+07
-6.61109e+07
8.54317e+07
-8.53993e+07
-5.10605e+07
5.10853e+07
2.72368e+07
1.92518e+07
2.1871e+07
2.82786e+07
4.86162e+07
-4.87185e+07
1.96267e+07
-4.3523e+07
4.35367e+07
-3.01773e+07
3.01951e+07
4.62933e+07
1.94404e+07
-1.94284e+07
3.22422e+07
-3.22014e+07
4.19221e+07
-2.48742e+07
2.48018e+07
-1.52878e+07
1.34578e+07
1.56069e+06
-1.74368e+07
-3.10372e+07
3.23296e+06
-3.22892e+06
-2.59943e+07
3.10827e+07
-5.34953e+07
5.3529e+07
2.10003e+07
2.77263e+07
2.94251e+07
3.41577e+07
2.9482e+07
-2.94641e+07
3.62917e+07
-8.21062e+07
8.21397e+07
3.56869e+07
3.47891e+07
-1.73203e+07
-5.45209e+07
4.8695e+07
-4.86678e+07
1.71421e+07
4.06919e+07
3.32336e+07
-7.61041e+07
7.61364e+07
4.96732e+07
-4.9659e+07
2.57254e+07
-2.72515e+07
-2.24766e+07
-6.02408e+06
2.31851e+07
2.01912e+07
2.69791e+07
-2.51118e+07
2.94543e+06
-3.48253e+06
-5.77507e+07
5.77775e+07
7.09713e+06
8.71392e+07
-6.2561e+07
6.25896e+07
5.59989e+07
-3.99047e+07
3.3303e+07
-2.76755e+07
3.99464e+07
-8.0585e+07
8.06169e+07
1.15439e+07
4.15964e+07
-6.02454e+07
6.02717e+07
3.45112e+07
-2.97035e+07
4.79593e+07
6982.99
-6886.48
2.96593e+07
7.22005e+07
-7.21696e+07
2.86615e+07
-1.99142e+06
2.45187e+07
5.73444e+07
-4.63739e+07
-2.08297e+06
-8.71047e+07
51166.2
-51400.5
-1.88059e+07
4.07211e+07
1.34177e+07
77490.4
-76020
3.78291e+07
-5.45443e+07
5.45739e+07
8.98848e+07
-8.98506e+07
-2.88381e+07
2.88552e+07
3.34353e+07
1.67817e+06
-1.66436e+06
-3.38808e+07
-1.66648e+07
2.38086e+07
2.54698e+06
-3.03314e+07
-2.84775e+07
6.41254e+07
-6.41102e+07
-6.11726e+07
6.12052e+07
-7.90704e+06
-3.14828e+07
-7.78547e+07
2.04849e+07
-3.88977e+07
-1.15368e+06
3.65596e+07
3.80937e+07
8.99054e+07
-8.98678e+07
-6.12157e+07
-2.2132e+07
-4.70334e+07
4.70705e+07
-1.01159e+07
-2.81863e+06
913030
2.72503e+07
11109.9
-11036.5
-1.4936e+07
7.67968e+06
-7.67664e+06
-580897
-7.92527e+07
7.92839e+07
-1.34254e+07
-3.44478e+07
4.5482e+07
3.44905e+07
-6.34688e+07
6.34418e+07
1.48533e+07
-1.78047e+07
-3.19157e+07
4.31554e+06
-7.85305e+07
7.85615e+07
4.12062e+07
-4.1261e+07
-7.93364e+07
1.27692e+07
-9.50116e+07
9.50463e+07
1.74791e+07
-1.74679e+07
-3.04355e+07
6.31849e+07
-8.61681e+06
-5.08992e+07
5.09234e+07
8.64041e+07
-8.6371e+07
-857140
-4.9023e+06
3.69263e+07
7.48085e+07
3.04744e+07
1.90471e+07
-5.83941e+07
5.8423e+07
-1.42568e+07
2.39449e+07
-3.6314e+07
-5.55733e+07
-1.41071e+07
-3.49847e+07
5.30186e+07
-5.29848e+07
7.01957e+07
-8.52056e+07
8.52379e+07
107740
-107345
4.10371e+07
3.321e+07
8.73529e+07
-4.05561e+07
-4.66286e+07
4.66607e+07
-4.728e+07
3.13281e+07
-6.51163e+07
2.97908e+07
-1.51164e+07
-9.10661e+07
9.10988e+07
-5.95613e+07
-4.44803e+07
4.45035e+07
-9.60797e+07
9.61151e+07
-8.73154e+07
-10517.7
10485.4
2.82574e+07
-9.38766e+07
9.39086e+07
-4.96917e+07
4.97251e+07
-3.35776e+06
3.35863e+06
4.59394e+07
1.49272e+07
6.84278e+07
-6.8394e+07
-1.28145e+07
-1.89978e+07
5.73666e+07
-5.73371e+07
-3.54002e+07
-2.58485e+07
7.24155e+07
-7.23862e+07
-3.01154e+07
8.58267e+06
-8.57672e+06
4.90386e+07
109097
-2.5921e+07
9.24375e+07
-9.23993e+07
6.61562e+07
4.56374e+07
-4.56042e+07
-3.4347e+07
3.437e+07
3.18316e+06
-3.18232e+06
1.53738e+07
5.8343e+07
-5.61539e+06
5.61774e+06
-5.3027e+07
5.30607e+07
-1.78959e+07
6.15947e+06
2.37244e+07
4.73097e+07
1.36939e+07
1.0362e+07
6.54574e+07
-6.54264e+07
6.62119e+07
-6.61814e+07
-1.00741e+08
1.00776e+08
-2.74259e+07
-3.11112e+07
3.08498e+07
6.40982e+07
-6.40659e+07
-2.5306e+07
-246734
247662
-1.32822e+07
-4.99657e+07
3.31587e+07
-3.3131e+07
-7.67595e+07
1.96221e+07
-4.02434e+07
-8.48666e+07
8.48987e+07
-2.65017e+07
-3.27949e+07
3.28371e+07
1.78216e+06
2.41257e+07
-2.11696e+06
-4.79882e+07
-5.96633e+07
5.96949e+07
-7.24409e+06
-2.7264e+07
8.39562e+07
-3.9012e+07
3.90336e+07
1.59481e+07
6.63203e+07
-6.629e+07
954538
-2.00319e+07
-2.02754e+07
5.5119e+06
-1.42798e+07
6.16933e+06
-6.60823e+07
6.6116e+07
6.37781e+07
-6.37427e+07
-1.11583e+07
-8.16072e+07
8.16393e+07
-5.78636e+06
1.21809e+07
5.78078e+06
-2.57253e+07
2.57386e+07
2.93836e+07
-2.55004e+07
1.48212e+07
5.17294e+06
-2.83352e+07
2.19534e+07
6.35556e+07
-6.35211e+07
-1.62712e+07
-2.93036e+07
5.27029e+07
-2.15411e+07
-7.29574e+07
-5.88295e+07
-2.07113e+07
1.3625e+07
6.2718e+06
1.16757e+07
-8.90354e+07
8.90681e+07
-8.67379e+07
8.67704e+07
2.3999e+06
2.25061e+06
-2.26337e+06
-3.62838e+07
-1.62582e+07
2.83713e+07
-3.58666e+06
7.1836e+06
-6.54177e+07
-6.21914e+06
2.83135e+06
-8.8652e+07
8.86844e+07
-1.89533e+07
5.9776e+06
6.98539e+07
1.85195e+07
-1.85077e+07
-5.98966e+07
7.27056e+07
1.69018e+07
5.11357e+07
2.12791e+07
-4.5673e+07
5.13995e+06
-5.48141e+06
-1.71069e+07
457983
-9.1887e+07
9.19188e+07
2.61815e+06
-2.60389e+06
2.40874e+07
4.22571e+06
4.66896e+07
-4.66457e+07
2.0988e+07
-1.65481e+07
2.09409e+07
-5.30336e+07
5.30647e+07
7.00812e+07
-5.28294e+06
4.28084e+07
-2.93591e+07
1.03302e+06
-5.61407e+07
1.84333e+06
-3.35313e+07
-553685
2.90077e+06
2.29759e+07
2.32933e+06
2.14438e+07
-4.1348e+07
8.80001e+07
-8.79667e+07
-3.9572e+07
3.96e+07
2.43547e+07
-2.4353e+07
9.28262e+06
-4.85846e+07
3.62782e+07
-2.79717e+07
2.79888e+07
-6.89122e+07
2.72667e+07
-2.23211e+06
3.65641e+07
-3.40671e+07
-2.21434e+07
-1.22899e+07
-2.07942e+06
2.09886e+06
-3.49581e+07
3.49959e+07
-3.31511e+06
3.31596e+06
5.19978e+07
-4.7582e+07
2.2467e+07
-1.35885e+07
-2.74696e+07
2.19981e+07
680854
-2.67052e+06
-4.7248e+06
-2.43924e+07
4.7356e+07
-1.98972e+06
1.06113e+07
4.3275e+07
6.31085e+07
-6.31135e+07
3.97441e+07
-3.09605e+06
-9.9215e+06
6.76151e+07
-6.75812e+07
6.15436e+07
-6.15131e+07
-3.12182e+07
-1.30365e+07
-2.3208e+07
-2.87934e+07
2.90178e+07
2.71702e+07
-2.59965e+07
-7.69387e+06
-2.55771e+07
-1.61817e+07
1.58519e+07
-8.47104e+06
-7.37214e+06
1.15562e+06
-1.1591e+06
1.09267e+07
-4.17534e+07
5.34363e+07
-1.24209e+07
-4.19326e+07
4.19501e+07
-7.75953e+07
4.65745e+07
-4.65417e+07
367846
-366821
2.9549e+07
6.57038e+07
-6.56736e+07
140547
-3.3599e+07
779686
1.97944e+06
-1.83844e+07
1.83718e+07
-5.6704e+07
5.67335e+07
-1.7793e+07
4.87724e+06
4.1783e+07
7.71753e+07
-7.71424e+07
6.67652e+07
-6.67369e+07
3.12504e+06
-4.23782e+07
4.24018e+07
3.12619e+07
2.5294e+07
-7.48876e+07
7.49207e+07
1.16176e+07
-2.66421e+07
-3.05513e+07
1.03715e+07
-32454.4
32320.7
-5.10563e+07
5.10873e+07
-4.30201e+07
4.30543e+07
2.70638e+06
-2.70592e+06
-2.1819e+07
948556
-948837
-4.61508e+07
-6.40647e+07
2.95373e+07
4.7572e+07
-4.75391e+07
5.58758e+06
-5.37673e+07
5.11441e+06
-4.99217e+06
-5.88741e+07
-3.7273e+07
3.72943e+07
-2.63274e+07
-1.56666e+07
-5.84212e+07
-8.37361e+07
8.37711e+07
5.32551e+07
6.2112e+07
-6.20766e+07
4.19184e+07
-4.18875e+07
-24303.7
24211.1
2.7728e+07
3.23737e+07
1.8322e+07
8.33581e+07
3.10104e+07
3.33259e+07
-2.76825e+07
-2.72414e+07
8.26465e+07
-8.26139e+07
3.75026e+06
7.41032e+07
-7.40703e+07
-3.31931e+07
-4.11031e+07
4.11316e+07
-7.19551e+07
3.20341e+07
-7.19141e+07
7.19441e+07
-6.50136e+07
3.23218e+07
4.68639e+07
2.33063e+07
2.59671e+07
-5.73137e+07
5.73436e+07
2.5818e+07
-2.57957e+07
-1.37464e+07
-2.36254e+06
7.04023e+07
2.64011e+07
-6.7793e+06
-3.78292e+07
3.7962e+07
-1.23912e+07
-9.4758e+07
9.47903e+07
-6.93625e+07
6.9392e+07
6.46619e+06
-1.46334e+07
1.46825e+07
8.26823e+07
-5.78089e+07
3.98366e+07
-6.83952e+06
-7.48411e+07
2.87706e+07