/*--------------------------------*- C++ -*----------------------------------*\
| =========                 |                                                 |
| \\      /  F ield         | OpenFOAM: The Open Source CFD Toolbox           |
|  \\    /   O peration     | Version:  v3.0+                                 |
|   \\  /    A nd           | Web:      www.OpenFOAM.com                      |
|    \\/     M anipulation  |                                                 |
\*---------------------------------------------------------------------------*/
FoamFile
{
    version     2.0;
    format      ascii;
    class       volScalarField;
    location    "4000";
    object      sigmaxy;
}
// * * * * * * * * * * * * * * * * * * * * * * * * * * * * * * * * * * * * * //

dimensions      [1 -1 -2 0 0 0 0];

internalField   nonuniform List<scalar> 
27023
(
-1.41454e+07
-1.41551e+07
-1.04695e+07
-1.04626e+07
-1.3477e+07
-1.34865e+07
-1.31468e+07
-1.31398e+07
-5.28808e+06
-5.28508e+06
-1.29131e+07
-1.29036e+07
-1.24098e+06
-1.247e+06
-2.38798e+06
1.00453e+07
9.59764e+06
-2.35561e+06
-2.36039e+06
-1.92437e+06
-1.91949e+06
-1.18294e+07
-1.18228e+07
-1.31337e+06
-1.30624e+06
-438303
3.32766e+06
-1.34412e+06
3.05023e+06
-2.86778e+06
-773312
-2.32493e+06
-2.32105e+06
-2.02121e+06
-1.59025e+06
-1.77262e+06
-1.09628e+06
-1.0893e+06
-5.27774e+06
-5.27552e+06
-1.04776e+07
-1.04846e+07
-1.89114e+06
-1.36507e+07
-1.36603e+07
-2.28688e+06
-2.28211e+06
-1.55947e+06
-1.55473e+06
-2.50948e+06
-816755
-811755
-2.20419e+06
-79328.3
-79119.6
-2.0406e+06
-1.68946e+06
-1.47862e+06
-2.77284e+06
-1.08274e+07
-1.08205e+07
-1.59526e+06
-1.95577e+06
-880796
-2.96986e+06
-431557
-1.73063e+06
-79287.3
3.5092e+06
-2.68618e+06
-1.42564e+06
-1.41857e+06
-3.93102e+06
-3.924e+06
-1.3843e+06
-1.38392e+06
-323761
-321709
-5.36584e+06
-5.36824e+06
1.19633e+06
-1.22483e+07
-1.22387e+07
-4.33427e+06
-4.32731e+06
-702845
-702703
-1.72575e+06
-2.78008e+06
-2.64898e+06
-2.55814e+06
-1.38349e+07
-1.38247e+07
7.44062e+06
-1.95188e+06
-490437
-494408
1.7118e+06
-2.99231e+06
-3.23948e+06
-1.7973e+06
-247123
-181932
-8.25332e+06
-8.2452e+06
-1.99742e+06
-8.41856e+06
-8.41214e+06
-2.14301e+06
-1.7335e+06
-3.32707e+06
-8.81236e+06
-8.80581e+06
-478280
-472092
-831039
-830553
2.55919e+06
368703
-1.25358e+06
-1.98636e+06
-1.46165e+06
-2.65903e+07
-2.66024e+07
-1.26084e+07
-1.26032e+07
-1.33487e+07
-1.33386e+07
-8.91275e+06
-8.9043e+06
-1.69218e+06
-1.39607e+06
-1.39211e+06
-1.18104e+06
-2.413e+06
37546.9
37656.6
3.15719e+06
-2.67377e+06
-2.66984e+06
-1.45714e+07
-1.45804e+07
3.0535e+06
-1.28505e+07
-1.28429e+07
-666628
-2.01628e+06
68472.8
-2.38802e+06
-2.09688e+07
-2.09564e+07
-1.78257e+07
-1.78151e+07
-2.90098e+06
-911969
-659296
-651153
-1.94343e+06
-2.75105e+06
-2.74727e+06
-1.70798e+06
-2.71202e+06
-1.34215e+06
-3.05024e+06
-1.87851e+07
-1.87934e+07
-1.31118e+07
-1.31215e+07
2.12548e+06
2.3029e+06
-3.6257e+06
-6.67926e+06
-6.68193e+06
-2.77773e+06
-2.55347e+06
-2.38427e+06
-1.97309e+06
2.83877e+06
-2.96992e+06
3.97536e+06
-2.3877e+06
-1.35922e+07
-1.36011e+07
-2.01501e+06
-1.99168e+06
-1.61931e+06
-475497
-478597
-1.48565e+06
-2.89495e+06
-1.43171e+07
-1.43271e+07
2.79238e+06
-2.57419e+06
-1.28023e+07
-1.2797e+07
-610625
-1.49524e+07
-1.49625e+07
700048
-2.47573e+06
3.16092e+06
-921532
-919570
-1.28409e+07
-1.28503e+07
-99485.6
-1.75503e+06
-386632
-384852
-171700
-170663
8.36936e+06
-790531
-5.05058e+06
-5.05013e+06
2.42542e+06
2.95743e+06
-3.37009e+06
-2.84724e+06
-2.84857e+06
-1.46906e+06
-2.58399e+07
-2.58516e+07
-1.45076e+06
-3.94513e+06
-3.94247e+06
-4.44152e+06
-4.43366e+06
-2.54771e+06
-2.54781e+06
-2.61376e+06
-3.11618e+06
-3.11377e+06
-1.55914e+06
-2.25959e+06
-2.25813e+06
-219580
-1.97294e+06
-1.50576e+07
-1.5064e+07
2.66949e+06
-1.8854e+06
-1.968e+06
-2.43938e+06
7.33635e+06
-3.57922e+06
4.5416e+06
-853743
-1.97599e+06
-6.668e+06
-6.67217e+06
-2.76339e+06
6.84748e+06
-394633
-1.09417e+06
-1.42656e+06
-622547
-2.60583e+06
-2.60246e+06
3.4278e+06
5.39185e+06
388492
-1.64736e+06
-1.64595e+06
-1.26536e+07
-1.26464e+07
-1.69294e+06
7.40212e+06
-2.33477e+07
-2.33372e+07
-1.13283e+06
-1.75769e+06
-1.55817e+06
-1.79091e+06
-2.44591e+06
-1.81421e+07
-1.81501e+07
-1.92116e+06
-1.92601e+06
-2.44445e+06
-2.02971e+06
-2.93459e+06
-2.80156e+06
-72081.3
-71620.4
-2.22639e+06
-1.91979e+06
9.91719e+06
-4.01869e+06
-1.44205e+06
-2.79147e+06
-4.71033e+06
-4.71385e+06
-1.01324e+06
-1.01343e+06
-2.031e+06
-1.96495e+06
-911729
-912383
-1.50655e+06
9.37953e+06
-1.12587e+07
-1.12678e+07
-351107
-6.42676e+06
-6.41969e+06
2.0542e+06
-2.49483e+06
-3.52981e+06
-1.83614e+06
15909.5
15029.5
-2.23748e+06
-2.23804e+06
-2.40259e+06
-2.2435e+06
-2.25001e+06
40344.7
-2.71794e+06
-2.15761e+06
-2.16553e+06
1.97066e+06
5.07099e+06
1.24298e+06
-2.82709e+06
-440327
-2.3247e+06
1.38771e+06
-3.15891e+06
4.99883e+06
-3.08863e+06
-825067
-1.91836e+06
-1.67136e+06
-1.98824e+07
-1.98944e+07
-897812
8.86338e+06
-6.76706e+06
-6.75974e+06
-667976
-652284
-161149
-160178
4.29321e+06
-1.60139e+07
-1.60034e+07
-1.15074e+06
-1.52866e+06
-2.37866e+06
-2.39406e+06
-3.3919e+06
-3.38965e+06
-6137.94
-6085.88
1.08965e+07
-5.82911e+06
-5.8322e+06
-2.07903e+06
-192917
-565691
-567155
-1.9597e+07
-1.9607e+07
-3.06897e+06
-2.6008e+06
9.22628e+06
-1.60775e+07
-1.60882e+07
-5.31951e+06
-5.32187e+06
8.14232e+06
-2.14571e+06
1.45553e+06
-1.71745e+06
-1.78546e+06
1.15033e+06
-629851
-877408
-1.8693e+06
-872861
-1.19178e+07
-1.19114e+07
4.23585e+06
2.19817e+06
-1.92124e+06
-2.21841e+06
-767358
3.59239e+06
5.39476e+06
-2.36836e+06
-222633
-3.45589e+06
9.9984e+06
-3.09849e+06
-1.76228e+06
-1.64113e+06
-635141
-1.62096e+06
-4.91469e+06
-4.90678e+06
6.84651e+06
2.76157e+06
-1.4906e+06
-1.57924e+07
-1.58028e+07
1.14187e+06
-2.35995e+06
175213
-359468
339198
-370293
-368349
-3.14606e+06
-1.61999e+06
-4.22965e+06
-2.11587e+06
-1.67232e+06
-1.68472e+06
3.54893e+06
-1.17939e+06
4.03001e+06
2.85535e+06
-1.47622e+06
-871690
-1.23317e+06
-1.23464e+06
-281223
-3.20311e+06
-1.57995e+06
2.46327e+06
-1.23951e+06
-1.23832e+06
-3.14225e+06
-3.14845e+06
-1.45123e+06
3.62922e+06
-6.83823e+06
-6.83545e+06
-126778
-127625
-2.55769e+06
-2.55265e+06
-195867
-197065
3.25957e+06
-2.49629e+06
-2.27627e+06
9.09506e+06
7.68458e+06
-1.77222e+07
-1.77325e+07
-1.81768e+07
-1.8187e+07
-1.78535e+06
-1.77624e+06
-2.13966e+07
-2.13841e+07
4.24992e+06
3.45314e+06
-1.116e+06
-2.48526e+06
4.50492e+06
-264814
-2.40192e+06
-1.34634e+07
-1.34696e+07
-1.40338e+06
-1.56876e+06
-2.82434e+06
-1.73443e+06
-1.93133e+06
2.16946e+06
-501011
-4.789e+06
-4.78476e+06
-462402
-751302
-8.89324e+06
-8.8864e+06
-3.76876e+06
-3.76637e+06
-1.21085e+06
5.19216e+06
-233196
3.93255e+06
91511.7
-2.88119e+06
-1.47822e+07
-1.47913e+07
-2.23544e+06
-4.14408e+06
-805138
-1.64783e+06
-1.65471e+06
-1.72244e+07
-1.72132e+07
5.41129e+06
-449878
-2.54385e+06
-9.02224e+06
-9.03114e+06
-2.1756e+06
9.41124e+06
-664001
-661397
1.59174e+06
-2.20316e+07
-2.20216e+07
-1.32578e+07
-1.32481e+07
-179315
-2.50693e+07
-2.50805e+07
-1.86518e+06
-1.47031e+06
-1.51335e+06
-1.51123e+06
-2.16554e+06
-1.45643e+06
-1.45709e+06
-979715
-5.50755e+06
-5.51278e+06
-2.50811e+06
-2.51408e+06
-975433
-2.78208e+07
-2.78067e+07
-1.67343e+06
-2.09972e+06
-1.26842e+06
2.06517e+06
-3.30275e+06
-3.29338e+06
-6.24815e+06
-6.25137e+06
-2.45088e+06
-1.98561e+06
1.17326e+06
-1.43107e+06
953807
2.18946e+06
-3.03938e+06
-6.66216e+06
-6.66489e+06
-978651
-400407
-400718
-2.69556e+06
-715880
-6.23702e+06
-6.2443e+06
-1.02256e+06
-1.47275e+06
-1.4895e+06
1.01961e+06
4.32501e+06
-2.08149e+06
3.3716e+06
-2.62456e+06
-678014
-675003
-1.88593e+06
1.04966e+07
-2.93791e+06
-2.93449e+06
-2.56828e+06
-2.43796e+06
-2.44057e+06
-1.80569e+06
-1.99519e+07
-1.99397e+07
-1.44589e+07
-1.44691e+07
-2.31274e+07
-2.3141e+07
-1.34276e+06
1.82344e+06
1.78187e+06
-2.38686e+06
-2.17732e+07
-2.17859e+07
-1.75771e+06
7.41624e+06
1.44113e+06
-2.34665e+06
1.01585e+07
-1.63844e+06
9.04978e+06
-221171
-556925
-550297
-2.92104e+06
-395760
-388545
-2.87781e+06
-3.64098e+06
-3.64821e+06
-1.7812e+06
-2.98382e+06
-1.75589e+06
-1.75896e+06
-1.48159e+06
-1.48002e+06
-983209
3.57593e+06
2.48154e+06
-4.0473e+06
-4.04257e+06
-2.48148e+06
-2.47984e+06
-3.12001e+06
-2.81995e+06
-849449
-894970
47233.5
54206.4
-35623.6
-10737.7
-115895
-116605
-10840.2
-2.05246e+06
-1.1338e+06
-1.13828e+06
-1.90023e+07
-1.90139e+07
-1.35304e+07
-1.35404e+07
-2.04653e+07
-2.04528e+07
6.54414e+06
-2.82093e+06
-2.81286e+06
-1.83511e+06
-3.69351e+06
-2.54636e+06
-2.55442e+06
-2.15132e+06
-3.37319e+06
-3.36777e+06
-1.72645e+06
-1.88595e+06
-1.07096e+06
-2.23336e+07
-2.23468e+07
-2.21386e+06
-2.9674e+06
2.78895e+06
-3.50612e+06
-5.16009e+06
-5.16535e+06
1.01636e+07
501752
-5.08508e+06
-5.08782e+06
-219889
-221206
-2.56492e+06
-2.55541e+06
-1.86986e+06
-1.57455e+06
-843295
-842971
1.35571e+06
-640113
5.89837e+06
-204229
-1.11655e+06
-2.50467e+06
-2.05397e+06
-1.55167e+06
2.72825e+06
-2.07723e+06
-1.80184e+06
-1.61829e+06
-1.30692e+06
4.84759e+06
-2.87719e+06
-100798
-101504
-3.70394e+06
-3.69688e+06
1.03788e+06
677386
-2.37077e+06
-1.30807e+06
-328428
-1.45431e+06
45369.5
-1.7593e+06
-269237
75637.2
3.54581e+06
-1.14119e+07
-1.14023e+07
2.10442e+06
-1.45276e+06
-2.80041e+06
-2.89117e+06
-5.18272e+06
-5.17873e+06
-396410
-397289
-15612.2
-15566.6
-1.64867e+06
8.5801e+06
-1.55777e+06
4.56589e+06
134314
129260
-1.75527e+06
-5.29888e+06
-5.29739e+06
-1.99104e+06
-1.99234e+06
-1.1244e+06
-4.77201e+06
-4.76627e+06
8.20601e+06
-1.61098e+06
-2.07458e+06
-3.1271e+06
-2.29034e+06
-2.13246e+06
-2.19e+06
-2.18774e+06
-1.84879e+06
1.0297e+06
-1.83864e+07
-1.83767e+07
-1.51731e+06
-703219
4.63774e+06
-698649
-1.90449e+06
-1.86459e+06
-2.01356e+06
2.31101e+06
-2.35571e+06
9.7199e+06
-2.34007e+06
2.24707e+06
-322260
-308592
-7.67366e+06
-7.66494e+06
-696346
-696712
-2.88232e+06
-1.94605e+06
-4.9153e+06
-4.92011e+06
-1.8306e+06
-1.51408e+06
-2.87217e+06
-1.35476e+06
-2.65666e+06
-1.59876e+07
-1.59771e+07
-2.32054e+06
-644359
-640786
-1.02344e+06
-1.02419e+06
-1.2417e+06
-2.65078e+06
-2.4807e+06
-331919
-1.32763e+07
-1.32684e+07
-2.31644e+06
5.08617e+06
-3.00435e+06
-1.68374e+06
-1.75992e+06
3.98632e+06
4.05663e+06
4.54267e+06
-2.57089e+06
-1.54114e+06
-1.54055e+06
-1.5418e+07
-1.54085e+07
-2.44771e+06
-2.37213e+06
-851835
7.50925e+06
-1.98921e+06
-1.98821e+06
-1.821e+06
-2.07661e+06
-1.54469e+06
-1.49068e+06
-1.52528e+06
-3.00646e+06
-3.00492e+06
-1.76376e+06
-1.63558e+06
-1.37443e+07
-1.37366e+07
2.43278e+06
-3.25481e+06
4.77512e+06
-3.91606e+06
-3.91456e+06
-6.73255e+06
-6.73839e+06
2.32491e+06
-1.13455e+07
-1.13549e+07
-1.6955e+06
-2.09353e+06
-3.25119e+06
-3.52789e+06
-2.02986e+06
-2.02811e+06
-3.31532e+06
-2.1627e+06
-2.17029e+06
-205008
-204351
2.7936e+06
2.65673e+06
-2.24276e+07
-2.24149e+07
-1.61397e+07
-1.61489e+07
-627420
-1.24764e+06
-1.54805e+07
-1.54721e+07
-1.34364e+06
2.4989e+06
-1.80812e+07
-1.80698e+07
-1.79284e+06
-1.78916e+06
-5.20778e+06
-5.50766e+06
-5.51234e+06
-70214.5
-70222.3
-5.21502e+06
-2.67226e+06
-1.74726e+06
-1.99299e+06
-2.29495e+06
-2.29118e+06
-557460
3.25857e+06
-2.52029e+06
-554032
1.04089e+06
1.30095e+06
-2.721e+06
-11311.3
-7734.7
3.34711e+06
3.16903e+06
-1.63794e+06
-95044.3
-101156
-3.09537e+06
188402
-125112
-125348
4.00008e+06
3.06194e+06
-3.03339e+06
-1.37899e+07
-1.3782e+07
-4.51103e+06
-1.25635e+06
-4.93778e+06
-1.22957e+06
-2.33845e+07
-2.33712e+07
-1.59608e+06
4.57049e+06
-4.48244e+06
-2.57718e+06
-2.52099e+06
-4.94407e+06
-1.94933e+06
-1.75321e+07
-1.75211e+07
-1.21002e+06
-1.2128e+06
-1.51723e+06
1.86431e+06
-1.7537e+06
-1.40292e+07
-1.40193e+07
-3.42269e+06
-3.42635e+06
8.51496e+06
-1.4623e+06
-2.68628e+06
-2.68234e+06
-2.51857e+06
-5.40886e+06
-5.4062e+06
-2.41128e+06
-3.56151e+06
-680462
-2.4318e+06
-2.35638e+06
-1.79589e+06
-1.64449e+06
-1.72242e+06
-1.85948e+06
-2.49619e+06
-2.4949e+06
-3.22356e+06
7.17095e+06
-647971
-1.91593e+06
-3.32788e+06
1.03216e+07
1.86596e+06
-2.96115e+06
-3.19936e+06
9.05953e+06
4.20799e+06
4.58882e+06
1.45033e+06
124178
-3.10064e+06
-2.22051e+06
-6.97387e+06
-6.9768e+06
4.44157e+06
-5.16558e+06
-5.16586e+06
-2.33196e+06
-486671
-2.90495e+06
-2.89541e+06
2.26574e+06
-4.14575e+06
-4.1418e+06
5.4451e+06
-2.43001e+06
-3.57919e+06
-5.27156e+06
-88333.6
5.09308e+06
295300
1.6078e+06
-3.02504e+06
-1.90123e+06
-1.52896e+07
-1.52791e+07
-2.04756e+06
4.10021e+06
-897470
-898365
-1.53646e+06
-2.35337e+06
-1.06704e+06
-2.21266e+06
-1.81386e+06
-1.81239e+06
-1.48375e+06
1.11311e+06
-2.65309e+06
-255174
-254803
-523992
-1.89641e+06
8.67953e+06
-1.93147e+06
6.38522e+06
-2.1355e+06
4.68792e+06
-2.68463e+06
-1.33598e+06
-1.33844e+06
-1.91127e+06
-1.39035e+06
6.8732e+06
6.85095e+06
-2.66957e+06
-1.39466e+07
-1.39541e+07
3.65511e+06
-1.42604e+06
-1.75687e+06
-7.26587e+06
-7.26899e+06
-2.98646e+06
9.03363e+06
-3.07458e+06
-4.2689e+06
-4.27243e+06
-737299
1.03446e+06
1.02077e+06
-1.40086e+07
-1.40035e+07
-2.55664e+06
-2.3279e+06
-323769
-323396
2.37052e+06
-1.35938e+06
-2.81671e+06
-1.56173e+06
-1.56045e+06
-2.90898e+06
-2.25092e+07
-2.24998e+07
-3.55057e+06
-2.88861e+06
-845361
-1.0114e+07
1.97867e+06
-2.99423e+06
-1.01225e+07
-630271
154478
-1.35538e+06
-1.67602e+06
-1.68265e+06
1.18439e+06
1.09983e+06
-1.32274e+06
2.98828e+06
-2.41254e+06
-1.83861e+06
-3.19858e+06
-2.35027e+06
2.07505e+06
-2.68738e+06
-2.82537e+06
8.70779e+06
1.07837e+06
6.33162e+06
-210719
-1.40233e+06
-1.14794e+06
-1.40138e+06
7.37108e+06
-1.70519e+06
-1.81608e+06
-2.76484e+07
-2.76623e+07
9.13898e+06
-3.63134e+06
-1.25402e+06
-1.25256e+06
-3.30734e+06
-3.30372e+06
-724185
-2.42403e+06
-1.14622e+06
-3.4954e+06
-3.49946e+06
-1.85145e+06
-1.8506e+06
-2.82916e+06
8.30725e+06
-2.87209e+06
8.29236e+06
-1.84897e+06
1.08065e+07
3.47245e+06
4.56863e+06
-1.20528e+06
-2.11313e+06
-2.10498e+06
2.39048e+06
2.46326e+06
4.94439e+06
-1.65575e+06
-1.07067e+06
-1.0698e+06
8.83699e+06
1.31692e+06
4.16614e+06
-2.17575e+06
-1.33283e+06
-2.85431e+06
-894968
-1.71651e+06
-1.66932e+06
-2.20837e+06
-3.14664e+06
-1.49441e+06
-3.24387e+06
-3.23562e+06
-1.89049e+06
3.78898e+06
-3.09698e+06
-1.5494e+06
-1.12564e+06
-76480.6
-76767.1
4.57697e+06
30576.1
-4.3905e+06
-4.39273e+06
-5.73881e+06
-5.73638e+06
7.8731e+06
-3.32006e+06
-3.06013e+06
-43879.2
-1.91129e+07
-1.91231e+07
-6.52138e+06
-6.51597e+06
7.93669e+06
-1.92679e+06
-1.92549e+06
-1.09615e+06
-841080
-518454
-142508
-141586
5.08418e+06
6.35662e+06
634576
-1.84572e+06
-1.19428e+07
-1.19521e+07
4.1427e+06
-1.90187e+06
-2.15798e+06
-2.70023e+06
-2.75827e+06
-862905
2.46325e+06
2.47383e+06
-2.13013e+06
-2.13143e+06
-374486
818955
811023
-4.20706e+06
-4.21034e+06
-64621.8
-2.18865e+06
-1.46363e+06
-2.29857e+06
-8.41121e+06
-8.40538e+06
3.35133e+06
7.30871e+06
-593838
-2.72235e+06
-1.62833e+07
-1.62942e+07
-1.71042e+06
-1.02176e+06
-458214
-3.86063e+06
-3.85744e+06
-2.09828e+06
1.39589e+06
-2.48651e+06
-3.6561e+06
-1.94009e+07
-1.93915e+07
-2.62081e+06
-3.23024e+06
-3.22451e+06
-2.49024e+06
-846331
-716409
-521227
3.55505e+06
-2.19479e+06
-2.82757e+06
-1.75555e+06
-1.56761e+06
4.8993e+06
3.0762e+06
-115706
-115311
-850640
-5.99206e+06
-5.98893e+06
-1.48436e+07
-1.48335e+07
-2.55114e+06
-1.81086e+07
-1.80987e+07
-2.32039e+07
-2.32144e+07
-36250.9
-36226.6
-1.9687e+06
-1.00624e+06
-1.00551e+06
-1.74376e+06
-1.79731e+06
-1.51495e+06
-1.42186e+06
-2.7603e+06
-3.22765e+06
-1.37522e+06
-1.36331e+06
-7.67757e+06
-7.68689e+06
-1.40697e+06
-1.30376e+06
4.97714e+06
-1.01779e+06
-1.92971e+06
-1.67137e+06
-1.97696e+06
9.82356e+06
-1.90215e+06
-3.45368e+06
-3.45281e+06
-1.10161e+06
2.331e+06
-1.18029e+06
-1.4727e+06
3.44591e+06
5.82214e+06
-37893.6
-34616.6
3.0019e+06
-1.56131e+06
947894
890793
-2.0943e+06
-1.99007e+06
115972
-809466
-816326
-2.23162e+06
4.39641e+06
-120759
-8.10495e+06
131162
118904
-8.11495e+06
-2.12537e+06
-1.76514e+06
1.32037e+06
-1.82051e+06
3.47535e+06
-2.28069e+06
-2.34929e+06
-2.58668e+06
-3.06563e+06
-2.49932e+06
-1.3914e+06
-115848
-1.94993e+06
-1.9775e+06
-1.9739e+06
-1.454e+06
9.09116e+06
2.75569e+06
4.86949e+06
-1.34221e+06
-6.73269e+06
320.786
634330
-1.88763e+06
-2.15685e+06
-6.7461e+06
-3.17489e+06
-2.51275e+06
-2.15371e+06
-3.0995e+06
-181200
-299750
-2.11289e+06
-245348
-243667
-1.24617e+06
-1.36371e+07
-1.36459e+07
3.489e+06
-1.17988e+07
-1.17885e+07
9.56797e+06
-1.52582e+07
-1.52482e+07
-1.58439e+06
-675737
-1.36986e+06
202477
203706
-3.42846e+06
-1.59468e+06
-712586
-1.83146e+06
-1.39483e+07
-1.3938e+07
-5.18908e+06
2.92502e+06
4.08531e+06
-1.64396e+06
-1.70075e+06
-1.68678e+06
-35411.4
-35235.8
3.68887e+06
-2.01271e+06
-2.28588e+07
-2.28458e+07
-5.89353e+06
-5.88696e+06
-1.00895e+06
-1.68211e+06
-1.08997e+06
-6.0661e+06
-6.05774e+06
-2.98382e+06
-216237
-215992
-1.9143e+06
-1.91108e+06
-5.81328e+06
-5.81865e+06
-857851
-1.58898e+06
-1.58766e+06
-1.36388e+07
-1.36334e+07
-2.51499e+06
-2.61187e+06
-41356.2
-791038
4.1932e+06
3.21705e+06
-792452
1.9843e+06
1.09265e+06
-2.36932e+06
-2.5236e+06
-2.20997e+06
-1.87302e+06
-1.87161e+06
1.12126e+06
-2.36726e+07
-2.36833e+07
-7.89072e+06
-7.88503e+06
3.44961e+06
-3.0202e+06
-3.02686e+06
-1.12711e+06
-1.11662e+06
-1.74185e+06
-993265
-972840
-2.96655e+06
-404411
-404638
-2.3316e+06
-1.394e+06
-1.77673e+06
9.46187e+06
2.13056e+06
2.20724e+06
-1.97563e+06
-1.69706e+06
4.46723e+06
-2.73945e+06
11672.4
11626.8
-7.98746e+06
-7.99183e+06
-1.9417e+06
-1.64584e+06
-2.03525e+07
-2.03427e+07
-1.99693e+06
145268
-2.97871e+06
582333
337356
3.08206e+06
3.07589e+06
-1.36111e+06
-3.12722e+06
-1.75915e+07
-1.76006e+07
-1.6734e+06
-1.67895e+06
-2.60588e+06
-2.60982e+06
-1.20995e+06
-1.20417e+06
-2.54245e+06
-1.51145e+06
-1.9042e+06
-2.57347e+06
151168
8.51708e+06
-1.91973e+06
-1.92022e+06
-2.347e+06
-1.83366e+06
-2.02629e+06
-9.15004e+06
-9.15874e+06
5.57013e+06
-2.67393e+06
-1.03208e+06
-3.32795e+06
-3.32259e+06
1.44551e+06
1.03489e+07
-2.38102e+06
-2.38561e+06
6.21175e+06
-3.2237e+06
-3.23149e+06
-1.60466e+06
-839026
2.24308e+06
-1.21023e+06
-1.30794e+06
-1.28223e+06
-570461
-422980
-1.64213e+07
-1.64111e+07
-2.44661e+06
-1.72151e+07
-1.72044e+07
3.28852e+06
-4.26794e+06
-4.26226e+06
-1.59587e+07
-1.59694e+07
-2.10088e+06
-5.64644e+06
-5.65702e+06
-2.2809e+06
-2.28437e+06
-961106
2.88716e+06
-1.38039e+06
-1.9733e+07
-1.97211e+07
-1.47827e+06
-1.78776e+06
844247
845766
-3.03543e+06
-2.57729e+07
-2.5761e+07
3.58604e+06
-2.38426e+06
-1.40586e+06
-1.40534e+06
-249252
-247760
-4.69964e+06
-6.08861e+06
-6.08201e+06
-1.17635e+06
-851497
-842822
-3.61594e+06
-3.6148e+06
7.14031e+06
-246696
-2.49044e+07
-2.48928e+07
-1.01345e+07
-1.01394e+07
2.56179e+06
6.48785e+06
-6.25881e+06
-6.26119e+06
-1.58748e+06
-98928.1
-98247.3
-1.0184e+06
-1.01848e+06
5.16024e+06
-8.98891e+06
-8.98407e+06
-1.4413e+06
-5.21726e+06
-5.22291e+06
1.16914e+06
9.06944e+06
-2.70147e+06
-2.7035e+06
-1.8636e+07
-1.86463e+07
-1.08839e+06
8.77411e+06
-1.10034e+06
6.32826e+06
-1.94282e+06
1.74043e+06
5.0674e+06
3.6595e+06
-2.84486e+06
-2.88464e+06
-2.83461e+06
-2.83778e+06
-1.37521e+06
-1.37415e+06
-1.65564e+06
-2.43175e+06
-3.28557e+06
1.04267e+07
-549176
-2.36451e+06
-1.51846e+06
-1.20815e+06
-2.19058e+06
-2.43646e+06
-2.43059e+06
-1.86505e+07
-1.86621e+07
3.34622e+06
-2.92981e+06
-240502
7.04026e+06
8.42987e+06
-1.61134e+06
1.73236e+06
-1.16703e+06
-1.62633e+06
-1.61654e+06
5.411e+06
-1.00563e+06
-1.01014e+06
-58868.2
-2.47724e+07
-2.47835e+07
-1.28813e+07
-1.28905e+07
7.50429e+06
-3.93913e+06
-3.94629e+06
-8.33271e+06
-8.32935e+06
-5.93729e+06
-5.92895e+06
-2.26848e+07
-2.26715e+07
-1.2289e+06
545789
-1.52595e+06
-2.16913e+06
-1.57891e+07
-1.57993e+07
-4.17544e+06
-4.18279e+06
-1.22254e+06
-1.19333e+06
1.17169e+06
-903096
-902548
-2.46643e+06
-2.14278e+06
-1.98565e+06
3.41913e+06
-2.30924e+06
-2.43365e+06
-1.57098e+06
555017
555416
-2.66251e+06
-2.75087e+06
-2.69022e+06
-1.55514e+06
-1.5568e+06
-650129
-1.8544e+06
3.93601e+06
-1.93121e+06
-1.68368e+06
-1.32879e+06
-2.05575e+06
-1.09721e+07
-1.09649e+07
-3.39166e+06
-3.3884e+06
-1.69763e+07
-1.69656e+07
-1.91848e+06
-3.09734e+06
-921876
5.66991e+06
2.64534e+06
-1.25438e+06
-1.44681e+06
-3.09462e+06
117992
-94037.4
-94601.9
-2.5008e+06
-2.50125e+06
-1.54024e+06
5.02339e+06
-2.52832e+06
-2.53816e+06
-2.4479e+07
-2.44649e+07
-741230
-740338
66623.4
-998942
-973798
1.06014e+06
1.1942e+06
996175
-1.66213e+06
-1.66366e+06
-2.45227e+06
-1.95659e+06
-1.18505e+07
-1.18429e+07
-805786
-879058
-1.91764e+06
-3.172e+06
-2.5649e+06
-1.7219e+06
2.89077e+06
2.92304e+06
-2.0447e+07
-2.04358e+07
-2.01654e+06
-3.19291e+06
-3.19028e+06
-1.42336e+07
-1.42243e+07
-278542
1.71859e+06
1.76421e+06
-1.16317e+07
-1.16415e+07
2.28548e+06
-1.56122e+06
555469
-774130
-781346
-6.19625e+06
-6.19854e+06
1.07032e+07
361961
-2.36128e+06
-2.36794e+06
-1.35779e+06
-2.12779e+06
-9.2557e+06
-9.26088e+06
-2.62028e+06
-1.18514e+06
-1.28186e+06
-2.87633e+06
-6.03497e+06
-4.47764e+06
-4.48421e+06
4.35127e+06
-4.86905e+06
-4.86296e+06
9.28699e+06
50195.3
-6.04317e+06
-2.11452e+06
-2.12045e+06
-1.46979e+06
-230188
2.38202e+06
-3.27439e+06
-3.27235e+06
3.76596e+06
-2.50162e+06
-2.079e+06
-2.0742e+06
-602244
-1.82323e+06
-1.7955e+06
-4.70347e+06
-2.08524e+06
-2.05883e+06
-2.08877e+06
-2.08347e+06
8.68368e+06
-793713
-1.76595e+06
-1.41654e+06
-2.10768e+06
1.60132e+06
-503869
-3.1074e+06
4.63417e+06
-1.43309e+06
-1.04276e+06
-2.20466e+07
-2.20366e+07
-5.7763e+06
-1.78673e+06
-1.78737e+06
-1.05392e+07
-1.05289e+07
-577565
-1.35176e+07
-1.35278e+07
-1.55472e+06
-3204.3
-3.05221e+06
-418319
-417816
4.54227e+06
-3.1948e+06
-3.19903e+06
535458
-2.13067e+06
1.0455e+06
9.89269e+06
-1.65382e+06
-2.82671e+06
-5.20738e+06
-5.21887e+06
-2.00166e+07
-2.00046e+07
-2.24937e+06
-3.28222e+06
-3.442e+06
-6.69011e+06
-6.69894e+06
-3.16127e+06
-4.13985e+06
-4.13738e+06
-1.35459e+06
-1.77811e+06
-1.77885e+06
-2.66841e+06
1.68401e+06
-2.5415e+06
-2.25173e+06
-2.26355e+06
-1.32863e+06
-1.31967e+06
-212957
-2.84117e+06
-2.08053e+06
-1.96478e+06
-2.25539e+06
-2.41902e+06
-2.23534e+06
-2.55489e+06
-1.44611e+06
8.61614e+06
-1.36765e+06
-1.35643e+06
4.09924e+06
-1.07594e+07
-1.0752e+07
-1.27957e+06
-1.26459e+06
-1.35714e+06
-18751.4
-1.49191e+06
645796
3.05727e+06
3.25117e+06
-547807
-1.91633e+06
-2.01428e+06
3.18371e+06
-2.3393e+06
-3.25616e+06
-2.42845e+06
-2.50307e+06
-2.50577e+06
-121863
-116349
-144354
-113488
6.44564e+06
-1.92185e+06
-1.92943e+06
-2.84843e+06
-2.14906e+06
-1.20039e+06
-5.01318e+06
-5.01959e+06
746148
-2.35622e+06
-1.84418e+06
-2.71961e+06
-938386
3973.93
3881.17
-1.31063e+06
-3.73762e+06
-1.80145e+06
1.18273e+06
-2.07222e+06
-8.19444e+06
-8.18784e+06
-3.81176e+06
-3.82052e+06
4.62783e+06
-1.25822e+06
-1.35141e+06
-1.35047e+06
-2.23759e+06
-2.24579e+06
-1.89731e+06
7.07101e+06
-2.74933e+06
-1.97437e+06
-3.03448e+06
-2.6918e+06
-1.61891e+06
-1.39299e+06
-1.49954e+06
-2.29955e+07
-2.30089e+07
-2.21244e+06
-1.54245e+07
-1.54141e+07
-763769
-751781
93858.2
-822048
-855367
1.96676e+06
8.31181e+06
-2.76544e+06
7.4867e+06
102200
-4.58769e+06
-4.58522e+06
2.6273e+06
94116.4
-2.65498e+06
-2.65997e+06
-749642
-3.22452e+06
-1.52574e+06
-2.30455e+06
-1.77793e+07
-1.77682e+07
-1.35366e+06
-1.5393e+07
-1.54024e+07
399892
-2.5086e+06
1.45561e+06
-1.62072e+06
-1.86828e+06
-1.86221e+06
-971646
-1.20607e+06
-2.51689e+06
-1.3453e+06
-1.34815e+06
-2.7166e+06
-2.715e+06
2.73844e+06
2.80847e+06
-2.14313e+06
7.98537e+06
-2.17365e+06
-2.63146e+06
-2.42932e+06
-2.37826e+06
-1.79288e+06
-3.02728e+06
-3.56093e+06
-3.56865e+06
-2.91137e+06
-4877.42
-3.76614e+06
-3.77277e+06
-2.00917e+06
789160
-1.68435e+06
4.17344e+06
812497
-1.23446e+06
-1.23671e+06
-1.86729e+06
-478033
-5.0483e+06
-5.05838e+06
3.50177e+06
-1.71934e+06
-2.25274e+06
-44122.9
-43574.8
1.83365e+06
-1.29098e+07
-1.28995e+07
-3.0881e+06
5.42505e+06
-1.80253e+06
-1.1786e+06
-1.2299e+06
903633
-5182.89
-295805
-296548
-3.34945e+06
-2.52621e+06
-1.58231e+06
-254340
-253555
1.4502e+06
-2.49065e+06
-2.49627e+06
-1.53672e+07
-1.53587e+07
-2.24529e+07
-2.24661e+07
-2.63749e+06
-1.61805e+06
-1.61382e+06
-2.70973e+06
-3.41944e+06
6.69356e+06
-2.05777e+06
3.12271e+06
4.7216e+06
-1.06075e+06
-1.03468e+06
-3.51981e+06
-3.52414e+06
-2.76705e+06
3.97153e+06
202644
-650444
-1.84126e+06
212866
-1.19312e+06
-2.42926e+06
-2.34748e+07
-2.34642e+07
-1.39422e+06
-2.85345e+06
-2.57376e+06
-2.5779e+06
-2.27093e+06
-563416
1.10913e+06
-2.713e+06
17318.4
17046.2
-2.80309e+06
-4.55035e+06
-4.54809e+06
4.38846e+06
-1.08248e+07
-1.08339e+07
-958065
216685
-2.40836e+06
213567
238526
252534
-1.33542e+06
7.08333e+06
-1.2738e+06
-2.73322e+06
-1.13537e+07
-1.13631e+07
-846863
-631757
584437
-1.15127e+06
-1.51196e+07
-1.51266e+07
-1.67721e+07
-1.67613e+07
-506449
-1.41191e+06
-2.88885e+06
-1.36099e+06
-1.3687e+06
-681209
-680857
-1.93733e+06
-3.50275e+06
-3.24026e+06
-229660
-516082
-953451
-3.22246e+06
-3.22873e+06
-586072
-1.7832e+06
2.11074e+06
-1.01812e+06
-972561
2.39594e+06
-2.80844e+06
-2.80354e+06
-1.53515e+06
-1.93324e+06
-1.93422e+06
-396607
-394453
-1.61597e+06
3.48815e+06
-785617
-2.6495e+06
-1.83744e+06
-1.84793e+06
-1.95002e+06
-5.80709e+06
-871279
4.06175e+06
-2.679e+06
-2.61916e+06
-2.62085e+06
-1.305e+06
-2.72055e+07
-2.72198e+07
-1.37127e+07
-1.37195e+07
-786721
-84722.7
-84114.4
-1.44311e+06
-1.71998e+06
-1.72063e+06
-2.1222e+06
-2.12737e+06
-5.78277e+06
-5.78454e+06
-2.44301e+06
3.67644e+06
-2.65317e+06
-2.65004e+06
-2.53948e+06
-3.20494e+06
-3.2432e+06
-3.23738e+06
-2.0789e+06
-1.14579e+06
-6.75633e+06
-6.74871e+06
-3.39015e+06
-6.79973e+06
-6.7957e+06
-1.21482e+06
5.86272e+06
-2.03809e+06
-2.20944e+07
-2.20845e+07
-349339
-2.32616e+06
-2.32084e+06
-9.22737e+06
-9.2349e+06
-3.78093e+06
-3.77954e+06
4.55791e+06
-1.97271e+06
-4.37945e+06
-4.38193e+06
-2.86531e+06
-2.87003e+06
554923
-4.06834e+06
5.45037e+06
-1.96213e+06
-627158
1.10445e+06
-2.26417e+07
-2.26316e+07
-4.42662e+06
-4.42132e+06
-1.36791e+07
-1.36847e+07
-2.80087e+06
-1.44504e+06
-1.30956e+06
-3.92226e+06
-3.91791e+06
2.61137e+06
-535122
-538037
-2.92617e+06
-1.68479e+06
-1.76111e+06
-1.75351e+06
759666
-1.78289e+06
-2.02753e+06
-1.11902e+06
-1.11929e+06
-2.16549e+06
1.85831e+06
1.87374e+06
-2.4956e+06
-1.73516e+06
-2.12469e+06
-1.68709e+06
-1.36054e+07
-1.36126e+07
-1.80786e+06
3.11784e+06
-31978.6
-1.96881e+07
-1.97e+07
-2.01181e+06
-3.99152e+06
-3.98621e+06
-3.58083e+06
4.93858e+06
-2.12664e+06
-1.61358e+06
5.33248e+06
-2.74217e+06
-2.19553e+06
-2.19921e+06
-2.07244e+06
-2.0678e+06
-942416
-5.25602e+06
-5.25963e+06
-3.45194e+06
-2.50413e+06
-3.45886e+06
-6.46606e+06
-6.47665e+06
-1.02124e+06
5.54343e+06
-2.78066e+06
-644994
-4.59588e+06
7.38709e+06
-1.28181e+06
-1.27674e+06
7.51412e+06
1.08771e+06
-2.06293e+06
-1.03952e+06
-1.08705e+06
-1.50168e+06
-1.19057e+06
8.87688e+06
-1.91289e+06
-2.76354e+06
-5.27384e+06
-5.27718e+06
-2.35955e+06
-2.36095e+06
-1.90254e+06
-1.70017e+06
-1.70116e+06
-2.01268e+06
8.01252e+06
-4.60747e+06
795922
4.26549e+06
-1.567e+06
2.01189e+06
-1.30589e+06
-3.20991e+06
-3.21161e+06
7.84671e+06
9.97297e+06
114968
-1.82315e+07
-1.82199e+07
-1.53383e+06
-110337
-1.50492e+06
-2.35829e+06
-2.32051e+06
-450529
3.79182e+06
-1.89751e+06
5.86593e+06
1.03668e+07
-1.38973e+06
-1.3903e+06
-1.85428e+06
-1.86365e+06
-1.99488e+06
-1.10949e+06
-6.40746e+06
-6.4014e+06
-385384
8.66451e+06
7.43283e+06
-2.89969e+06
-2.90457e+06
-1.55901e+06
-2.1911e+06
-193027
-1.04738e+06
4.00654e+06
-1.36579e+06
5.64994e+06
-1.98665e+06
-1.76609e+06
-1.53571e+06
-1.87264e+06
-2.10017e+06
852.433
-2.17211e+06
111935
111681
-1.70358e+06
-1.70654e+06
-592069
-406641
-3.94916e+06
-1.68734e+06
-2.74717e+06
-1.35773e+07
-1.35866e+07
-928068
-1.98285e+06
-1.76815e+06
364572
2.62043e+06
2.6416e+06
-3.21123e+06
-1.6457e+06
-1.63788e+06
-749879
-757207
-4.38917e+06
-4.39139e+06
-1.33705e+06
-3.28431e+06
6.38743e+06
9.07405e+06
-1.55175e+06
4.52561e+06
-273487
-97737.5
-1.05252e+06
-2.34362e+06
-3.16959e+06
5.85208e+06
-466542
137537
-1.7898e+06
-1.79547e+06
-2.6315e+06
7.20242e+06
1.32964e+06
-2.56048e+06
-2.55753e+06
-3.95692e+06
-3.95173e+06
-388048
-2.24727e+06
-2.38588e+06
-1.212e+06
-1.23473e+06
-637038
-2.679e+06
-2.31673e+06
-2.69855e+06
-2.49163e+06
-2.35236e+06
-1.70069e+06
9.63719e+06
-1.10001e+06
-1.08911e+06
-2.05841e+06
129785
-1.27813e+06
-2.27602e+06
481156
497119
-122834
-1.62778e+06
-1.62305e+06
-730879
-726531
-3.24595e+06
-3.96474e+06
-3.95907e+06
-3.15437e+06
-2.16092e+06
1.05489e+07
5.01734e+06
-212618
-173547
-2.87276e+06
-2.87843e+06
-3.01601e+06
3.49703e+06
34880.1
-1.53984e+07
-1.53885e+07
-4.91178e+06
-4.90373e+06
4.21659e+06
-92000.4
-105580
-395769
-1.34442e+06
-3.20566e+06
-3.20823e+06
-411068
-2.20326e+06
-2.79033e+06
2.00966e+06
-2392.34
-2375.9
-2.13891e+06
-2.14387e+06
-1.81909e+06
-1.82627e+06
-3.82143e+06
-3.82016e+06
-1.83484e+06
-1.65157e+06
-1.65344e+06
-1.13016e+06
-341186
-3.04982e+06
-2.08456e+06
-2.07966e+06
-898419
-2.29906e+06
2.23004e+06
9.19574e+06
-2.04622e+06
-2.09474e+07
-2.09598e+07
-1.81426e+06
-3.28023e+06
-1.58684e+06
-1.79208e+07
-1.79307e+07
-2.00808e+06
-1.33783e+06
-1.33411e+06
-653936
-648736
-71.5498
-74.4691
240002
3.50862e+06
3.00781e+06
754803
3.21987e+06
-2.20406e+06
255296
-719399
-3.55712e+06
-3.55495e+06
1.02765e+07
-1.45321e+06
-1.45075e+06
-1.46462e+06
-1.7826e+06
-1.78359e+06
-495067
-1.29621e+06
-5.36931e+06
-5.37571e+06
-496495
-2.47215e+06
-526172
6.51838e+06
-1.37259e+06
-3.11715e+06
-3.1227e+06
-3.45218e+06
-3.44798e+06
8.6231e+06
-2.20503e+06
-1.31938e+06
-3.05597e+06
-1.74566e+06
-2.73382e+06
-2.78495e+06
5.04458e+06
-1.19685e+06
-1.19762e+06
-4.78381e+06
-4.79053e+06
-2.53463e+06
-188973
-183510
18230.6
-1.84128e+06
-1.73871e+06
-2.05212e+06
-1.16868e+06
-1.02433e+06
-142502
-3.08551e+06
-1.84292e+06
8.9276e+06
3.16844e+06
-1.25271e+06
-2.28322e+06
-2.27869e+06
484411
-1.51955e+07
-1.52024e+07
-1.83358e+06
-1.82605e+06
3.26883e+06
-2.30276e+06
-280054
-4.24969e+06
-1.76668e+06
-2.414e+06
-2.4118e+06
-1.98897e+06
-1.70759e+06
6.45449e+06
-1.74669e+06
-288535
-286758
-923323
-2.19433e+06
-2.77924e+06
-2.77054e+06
-1.38604e+07
-1.38698e+07
-6.6456e+06
-6.65561e+06
-5.26641e+06
-2.48798e+06
-2.42852e+06
-5.28109e+06
-2.37629e+06
647239
638131
-2.45302e+06
-1.02722e+07
-1.02811e+07
1.55821e+06
-2.00604e+06
-2.01693e+06
-2.43633e+06
6.3586e+06
-345183
2.88374e+06
9.04445e+06
2.09694e+06
3.49729e+06
-2.14936e+06