/*--------------------------------*- C++ -*----------------------------------*\
| =========                 |                                                 |
| \\      /  F ield         | OpenFOAM: The Open Source CFD Toolbox           |
|  \\    /   O peration     | Version:  v3.0+                                 |
|   \\  /    A nd           | Web:      www.OpenFOAM.com                      |
|    \\/     M anipulation  |                                                 |
\*---------------------------------------------------------------------------*/
FoamFile
{
    version     2.0;
    format      ascii;
    class       volScalarField;
    location    "4000";
    object      sigmaEq;
}
// * * * * * * * * * * * * * * * * * * * * * * * * * * * * * * * * * * * * * //

dimensions      [1 -1 -2 0 0 0 0];

internalField   nonuniform List<scalar> 
27023
(
2.58686e+07
2.58862e+07
1.89633e+07
1.89509e+07
2.48394e+07
2.48567e+07
8.31319e+07
8.3101e+07
1.01202e+07
1.01172e+07
5.92625e+07
5.92315e+07
2.53242e+06
2.53569e+06
2.39903e+07
1.7502e+07
1.66563e+07
5.10403e+07
5.10725e+07
3.66944e+07
3.66689e+07
8.25883e+07
8.25572e+07
3.79352e+07
3.79165e+07
6.21156e+06
2.70186e+07
3.93076e+06
2.6241e+07
2.92981e+07
1.32673e+07
3.68077e+07
3.67821e+07
3.87347e+07
2.35037e+07
3.01117e+07
3.22239e+07
3.21916e+07
9.96934e+06
9.96643e+06
1.90301e+07
1.90426e+07
1.96563e+07
2.49749e+07
2.49923e+07
5.04386e+07
5.04067e+07
3.66938e+07
3.66705e+07
2.70695e+07
3.54238e+07
3.54006e+07
3.78371e+07
520915
517997
4.25021e+07
1.77855e+07
3.1584e+07
1.51852e+07
1.96441e+07
1.96319e+07
2.62329e+07
5.15313e+06
5.01541e+06
1.95809e+07
1.16118e+07
3.30098e+07
7.71841e+06
2.79921e+07
1.86501e+07
3.06747e+07
3.0642e+07
5.39274e+07
5.39043e+07
7.70486e+07
7.70196e+07
901942
899715
9.02995e+07
9.03301e+07
2.02083e+07
5.72058e+07
5.7175e+07
5.22925e+07
5.22695e+07
8.18507e+07
8.18795e+07
3.29017e+07
5.73415e+06
1.59219e+07
1.51195e+07
2.67936e+07
2.67748e+07
2.00521e+07
7.39221e+06
3.82584e+07
3.82729e+07
2.01815e+07
1.5889e+07
5.6629e+06
2.49656e+07
1.54358e+07
1.55062e+07
6.48721e+07
6.48458e+07
4.48413e+06
7.38427e+07
7.38142e+07
4.18111e+07
2.93054e+07
1.90191e+07
7.35931e+07
7.3565e+07
3.77758e+07
3.77573e+07
7.7669e+07
7.76401e+07
2.01047e+07
2.90211e+07
2.1402e+07
1.86776e+07
3.18706e+06
7.14835e+07
7.15163e+07
9.1157e+07
9.11246e+07
2.6055e+07
2.60363e+07
6.58591e+07
6.58326e+07
1.41067e+07
2.61045e+06
2.62785e+06
1.23658e+07
1.64479e+07
8.19321e+07
8.1961e+07
8.89596e+06
5.20168e+07
5.19854e+07
7.76702e+07
7.77012e+07
7.26002e+06
8.01323e+07
8.01019e+07
1.25343e+07
1.47433e+07
3.47023e+07
3.37461e+07
4.27072e+07
4.26822e+07
4.51841e+07
4.51611e+07
2.38643e+07
2.31912e+07
2.52799e+07
2.50789e+07
2.39428e+07
5.13855e+07
5.13543e+07
4.78301e+07
2.02332e+07
4.10715e+07
5.8767e+06
5.25833e+07
5.26083e+07
7.01034e+07
7.01335e+07
1.47854e+07
4.27163e+06
7.71007e+06
9.09269e+07
9.09573e+07
1.7504e+07
1.7035e+07
2.60075e+07
3.96819e+06
6.55432e+06
1.79276e+07
9.92065e+06
3.38382e+07
7.43097e+07
7.43399e+07
2.62909e+07
4.72662e+07
5.01976e+07
3.59191e+07
3.59326e+07
4.31555e+07
1.61912e+07
7.01886e+07
7.02188e+07
1.98764e+07
5.76206e+06
9.09244e+07
9.08926e+07
5.33427e+07
6.85042e+07
6.85355e+07
2.70904e+07
2.55196e+07
2.81504e+07
7.56278e+07
7.5598e+07
2.36988e+07
2.37158e+07
1.7976e+07
5.26217e+07
7.53718e+07
7.53419e+07
306469
304631
2.107e+07
1.91733e+07
1.15808e+07
1.15848e+07
2.30677e+07
5.37816e+06
7.92265e+06
8.02918e+07
8.03208e+07
1.41711e+07
7.16471e+07
7.16798e+07
2.43458e+07
6.97836e+07
6.97546e+07
5.43009e+07
5.42781e+07
5.14583e+06
5.1465e+06
6.12094e+06
7.20391e+07
7.20098e+07
4.85823e+07
7.06206e+07
7.05911e+07
7.81156e+07
2.93179e+07
8.89284e+07
8.89608e+07
2.81276e+07
5.01535e+07
4.97506e+07
3.93868e+07
2.14944e+07
6.20471e+06
2.54072e+07
4.15e+07
3.85656e+07
8.22498e+07
8.22795e+07
1.87266e+07
1.67054e+07
5.29046e+07
5.34902e+07
6.45316e+07
4.89713e+07
4.14948e+07
4.14645e+07
1.89914e+07
9.63168e+06
4.49065e+07
7.25605e+07
7.2531e+07
7.98059e+07
7.97754e+07
6.59979e+06
1.65429e+07
6.78925e+07
6.78608e+07
3.10082e+07
1.78305e+07
3.42545e+07
8.46574e+06
6.38948e+06
5.27875e+07
5.28127e+07
4.17405e+07
4.17783e+07
3.62989e+07
4.43476e+07
1.03052e+07
9.93922e+06
681017
684858
1.86729e+07
2.29462e+07
1.99868e+07
3.38624e+07
3.36627e+06
1.81216e+07
6.72403e+07
6.72685e+07
8.06802e+07
8.07088e+07
3.93039e+07
5.21788e+07
7.55844e+07
7.56131e+07
2.82984e+06
1.74441e+07
6.79611e+07
6.79892e+07
1.24518e+07
1.51083e+07
1.50898e+07
2.28145e+07
2.64145e+07
8.12254e+06
3.23796e+06
415547
413472
6.12466e+06
6.12647e+06
3.54507e+07
3.72615e+07
3.72914e+07
1.03676e+06
2.59961e+07
3.95835e+06
3.97211e+06
2.82571e+07
2.33362e+07
1.90561e+07
2.71188e+07
6.12653e+07
9.1208e+06
3.25182e+07
3.94784e+07
1.59478e+07
3.95356e+07
7.01544e+07
7.42296e+06
2.98352e+07
3.77807e+07
3.78036e+07
1.30427e+07
1.74968e+07
6.27718e+07
6.27463e+07
5.15796e+07
5.18477e+07
287321
285600
2.63782e+07
2.89314e+07
2.89125e+07
2.22386e+07
1.03984e+07
3.95228e+07
3.95783e+07
7.43176e+07
7.42885e+07
166288
164919
1.95479e+07
8.63002e+07
8.63301e+07
5.78573e+06
3.20748e+07
7.30198e+07
7.30486e+07
7.96128e+07
7.96464e+07
1.58306e+07
3.22475e+07
1.66727e+07
3.1287e+07
3.1307e+07
8.60484e+07
8.60781e+07
1.97773e+07
4.87474e+07
1.91277e+07
4.98605e+07
4.92302e+07
2.61221e+07
3.2276e+07
2.97335e+07
2.49809e+07
2.96987e+07
8.448e+07
8.4449e+07
2.42129e+07
9.67907e+06
1.437e+07
5.08006e+07
3.66228e+07
7.23497e+06
2.49333e+07
1.04125e+07
3.20732e+07
6.92982e+06
1.73814e+07
9.29013e+06
3.14866e+07
1.70717e+07
7.20296e+07
3.38039e+07
5.3691e+07
5.36683e+07
2.3553e+07
1.89298e+07
1.06976e+07
3.15372e+07
3.15572e+07
2.20413e+06
1.71913e+07
3.46698e+07
2.36967e+06
3.46212e+07
908615
903507
1.5318e+07
4.20301e+07
2.98649e+07
5.14366e+07
2.80442e+07
3.62928e+07
1.50802e+07
4.55815e+07
1.66995e+07
7.227e+06
4.57336e+06
6.88634e+07
7.33312e+07
7.33596e+07
6.35827e+07
8.18895e+06
4.9804e+07
2.19539e+07
7.0583e+07
7.05538e+07
4.6761e+07
4.67835e+07
5.12867e+07
8.8182e+06
1.33759e+07
1.3371e+07
6.45741e+07
6.45512e+07
4.3626e+07
4.35966e+07
424515
427001
1.51211e+07
1.21698e+07
4.06974e+07
1.637e+07
1.75706e+07
7.12633e+07
7.12957e+07
7.10387e+07
7.1071e+07
4.46148e+07
4.45896e+07
4.67634e+07
4.67374e+07
1.11784e+07
5.98541e+06
9.75072e+06
3.93657e+07
1.74234e+07
4.76863e+07
1.68215e+07
8.87602e+07
8.87928e+07
4.31657e+07
2.19364e+07
1.19393e+07
5.80515e+07
4.98106e+07
3.03843e+07
1.14506e+07
6.77548e+07
6.77272e+07
1.98731e+07
1.97704e+07
1.67785e+07
1.67651e+07
7.12685e+07
7.12393e+07
2.78916e+06
1.2672e+07
1.10858e+07
1.88382e+07
6.98331e+07
9.4518e+06
5.99158e+07
5.99469e+07
2.81162e+07
3.26356e+07
2.55347e+06
3.76999e+07
3.77299e+07
3.17538e+07
3.17333e+07
2.50483e+07
5.98607e+07
3.49545e+07
2.56374e+07
2.56535e+07
3.88075e+07
1.72487e+07
3.21714e+07
3.21453e+07
2.65685e+07
8.54376e+07
8.54011e+07
6.08692e+07
6.08383e+07
3.57902e+07
6.31239e+07
6.31534e+07
2.02762e+07
2.8688e+07
6.65594e+07
6.65297e+07
5.14084e+07
7.42521e+07
7.42807e+07
4.34373e+07
6.37642e+07
6.37906e+07
4.18457e+07
4.18836e+07
9.7357e+06
5.74969e+07
5.7468e+07
3.434e+07
7.88755e+06
8.03624e+06
1.07424e+07
4.46174e+07
4.45987e+07
8.21889e+07
8.22183e+07
3.15817e+07
5.30319e+07
2.61329e+07
4.07401e+06
3.18671e+07
2.94055e+07
1.87571e+07
1.33294e+07
1.33342e+07
6.13458e+07
8.10236e+07
8.10523e+07
3.14079e+07
3.42492e+06
6.36887e+07
6.37144e+07
3.09308e+07
4.13299e+07
4.13532e+07
1.78486e+06
9.34939e+06
1.288e+07
2.54865e+07
2.69243e+07
3.1208e+07
3.11833e+07
3.72236e+07
1.82044e+07
5.7973e+07
5.79431e+07
1.41838e+07
3.62782e+07
3.63021e+07
1.1148e+07
3.67904e+07
3.67679e+07
6.60632e+07
6.60937e+07
4.28802e+07
4.29054e+07
4.16561e+07
2.43695e+07
2.43504e+07
4.08557e+07
4.42997e+07
4.43253e+07
2.91411e+07
1.78705e+07
1.4275e+07
4.34117e+07
1.78912e+07
8.70071e+06
2.12469e+07
6.8479e+07
3.54336e+07
3.54132e+07
3.22025e+07
3.62564e+07
3.62378e+07
3.05764e+07
5.13829e+07
5.14052e+07
1.09086e+07
5.93664e+06
3.68891e+07
3.69153e+07
6.92562e+07
6.92267e+07
5.30748e+07
1.82485e+07
2.8298e+07
5.52764e+07
5.525e+07
7.8222e+07
7.81928e+07
2.59755e+07
2.01336e+07
1.00595e+07
1.03994e+07
2.55564e+07
2.55155e+07
3.17776e+07
196519
357090
359209
197682
1.98381e+07
2.27731e+06
2.27986e+06
4.10903e+07
4.11147e+07
2.56383e+07
2.56566e+07
3.74674e+07
3.74446e+07
1.20881e+07
4.58419e+07
4.58218e+07
4.09246e+07
2.04646e+07
4.2782e+07
4.28014e+07
2.46816e+07
5.15221e+07
5.14974e+07
3.23399e+07
2.3279e+07
5.01204e+07
4.10544e+07
4.10787e+07
4.93509e+07
6.35745e+06
4.83148e+06
2.42958e+07
6.57794e+07
6.58061e+07
1.91009e+07
3.53516e+07
8.58165e+07
8.58462e+07
448600
451168
4.39887e+07
4.39645e+07
3.8185e+07
6.79847e+06
8.77025e+07
8.76739e+07
2.28247e+07
3.56121e+07
1.30435e+07
1.78919e+07
3.08338e+07
2.83159e+07
1.64025e+07
2.84068e+06
1.1169e+07
4.80528e+07
2.88754e+07
4.51826e+07
4.30241e+07
2.30286e+07
1.91519e+07
527139
525542
5.11778e+07
5.11551e+07
3.07891e+07
2.63355e+06
1.98148e+07
7.45755e+06
3.94204e+07
4.24932e+07
3.54464e+07
5.1455e+06
2.71069e+07
3.01264e+07
1.10207e+07
2.32799e+07
2.32618e+07
3.1874e+07
5.55837e+07
7.15975e+06
2.80588e+07
6.76999e+07
6.76721e+07
7.61847e+07
7.62141e+07
461463
458625
4.81891e+06
1.55382e+07
2.16395e+07
8.21998e+06
3.25705e+07
3.25827e+07
2.39698e+07
1.06979e+07
1.06956e+07
8.04243e+07
8.04536e+07
6.322e+07
5.89232e+07
5.88979e+07
1.8636e+07
5.04759e+07
3.17633e+07
1.92494e+07
5.00843e+07
6.62338e+06
6.59745e+07
6.59449e+07
2.69788e+07
7.01454e+06
7.93123e+07
7.92787e+07
2.67587e+07
7.17488e+07
2.00648e+07
7.17733e+07
1.98496e+07
1.98453e+07
3.61842e+07
2.58965e+07
3.8112e+07
1.69065e+07
3.79992e+07
1.61363e+07
6.64672e+07
1.1513e+07
2.45426e+07
2.4528e+07
7.59683e+07
7.59971e+07
1.96828e+07
5.95813e+06
6.42914e+07
6.43184e+07
4.17127e+07
3.4753e+07
2.86922e+07
1.27977e+07
3.15269e+07
2.89598e+07
2.89408e+07
1.12703e+07
3.37365e+07
3.37184e+07
7.50164e+07
7.50456e+07
2.27484e+06
2.89535e+07
6.24439e+06
6.64126e+07
5.46644e+07
5.4634e+07
2.87454e+07
9.3131e+06
2.1009e+07
4.51935e+07
1.88253e+07
2.47541e+07
1.15432e+07
2.64986e+07
3.19135e+07
7.65276e+07
7.64985e+07
6.1727e+07
6.16959e+07
4.99904e+07
4.91254e+07
1.07265e+07
1.4069e+07
7.41602e+07
7.41309e+07
5.23187e+07
4.75492e+07
3.02217e+06
1.96027e+07
6.25349e+06
5.40312e+06
5.39966e+06
1.97088e+07
8.27139e+06
8.10123e+07
8.09808e+07
4.56035e+06
2.22624e+07
9.54611e+06
8.94778e+07
8.94482e+07
2.66594e+07
2.66748e+07
2.8693e+07
2.21525e+07
2.21701e+07
1.16417e+07
6.18669e+06
6.25662e+06
7.88936e+06
6.90677e+07
6.90383e+07
1.16141e+07
3.71634e+07
3.71929e+07
7.78712e+07
7.78411e+07
2.35911e+07
2.3301e+07
4.79939e+07
4.79677e+07
7.84637e+07
7.8496e+07
8.45777e+06
4.8877e+07
8.0713e+07
8.06809e+07
5.12056e+07
5.43849e+06
4.33352e+07
4.33112e+07
6.11553e+07
6.11252e+07
4.00909e+07
6.63142e+07
6.63413e+07
8.50676e+07
8.5096e+07
4.01056e+07
2.13398e+07
3.02356e+07
1.43664e+07
5.34798e+07
5.34482e+07
6.85057e+07
6.80254e+06
6.29069e+06
6.85283e+07
1.93333e+07
3.1091e+07
3.06268e+07
3.37175e+07
3.36987e+07
5.84451e+06
1.01962e+07
3.69306e+07
5.44211e+07
5.444e+07
2.20306e+07
2.24633e+06
644640
644582
2.52707e+07
2.82915e+07
2.5725e+07
7.92776e+07
7.92469e+07
4.20795e+07
3.75897e+07
4.1502e+07
2.37396e+07
4.80305e+07
4.80036e+07
4.8963e+07
1.80404e+07
4.21248e+07
2.72243e+07
2.73946e+07
4.15151e+07
4.54005e+07
4.37854e+07
4.37617e+07
6.78136e+07
6.78425e+07
4.42528e+07
1.44158e+07
2.88044e+07
6.30965e+07
6.30657e+07
6.02844e+07
6.03134e+07
1.47497e+07
2.37753e+07
5.38603e+07
5.38286e+07
3.18962e+07
9.98617e+06
9.98089e+06
2.50518e+07
2.51377e+07
6.86438e+07
4.14627e+07
4.35917e+07
5.17648e+07
2.74899e+07
2.91667e+07
1.05619e+07
7.81393e+07
7.81102e+07
6.88201e+06
1.24387e+07
1.31904e+07
3.03825e+07
1.42823e+07
1.91386e+07
4.92303e+06
2.93804e+07
2.38008e+07
1.5783e+07
1.2304e+07
2.54904e+07
2.01645e+07
6.26027e+07
1.66465e+07
1.64032e+07
1.39345e+07
1.39398e+07
2.49899e+07
1.11411e+07
1.11437e+07
2.12297e+07
1.11182e+07
4.59921e+07
4.59731e+07
2.65772e+07
8.4774e+06
8.47151e+06
2.24332e+07
1.40308e+07
2.51376e+07
3.17673e+07
3.41367e+07
2.36264e+07
7.28273e+07
2.6571e+07
2.49913e+07
4.12032e+07
2.79721e+07
2.79532e+07
1.0215e+07
1.14362e+07
2.76188e+06
2.76328e+06
3.65951e+07
4.28701e+06
2.98524e+07
2.25223e+07
2.81797e+07
2.82014e+07
5.06729e+07
8.65699e+06
2.63861e+07
1.41449e+06
1.41523e+06
2.84556e+07
1.98699e+07
1.50595e+07
4.78812e+06
1.68889e+07
4.97942e+07
2.41608e+07
3.75012e+07
2.93492e+07
2.93738e+07
5.81513e+07
4.52248e+07
1.19209e+07
1.29478e+07
3.40016e+07
5.27675e+07
5.27972e+07
6.59193e+06
2.17945e+07
5.58908e+07
1.44497e+07
1.44555e+07
3.00915e+07
2.01737e+07
3.07287e+07
6.78217e+07
6.78502e+07
1.22738e+07
3.2743e+07
3.27405e+07
4.82344e+07
4.82102e+07
2.30627e+07
2.96929e+07
909299
909141
2.21091e+07
2.5242e+06
1.03204e+07
7.57702e+07
7.57408e+07
9.82886e+06
8.72016e+07
8.71657e+07
7.88077e+06
3.69762e+07
1.14262e+07
5.17753e+07
2.0228e+07
9.2415e+06
5.18068e+07
5.44656e+07
6.02653e+06
2.18134e+07
3.07592e+07
3.07848e+07
2.89289e+07
2.96182e+07
4.88232e+07
2.19041e+07
3.32646e+07
7.93636e+06
7.88447e+06
1.19661e+07
1.66559e+07
5.1895e+06
8.63194e+06
1.9351e+07
7.00431e+06
1.09777e+07
3.20396e+07
1.82665e+07
4.12271e+07
3.05216e+07
1.79215e+07
5.09169e+07
4.74835e+07
5.83172e+07
5.83462e+07
1.81295e+07
7.13176e+06
2.76809e+07
2.77019e+07
5.80943e+07
5.80644e+07
2.01847e+07
8.79346e+06
4.09228e+07
7.05298e+06
7.05838e+06
7.37896e+07
7.37606e+07
6.96321e+06
1.44119e+07
2.67553e+07
1.58157e+07
6.56786e+06
1.87578e+07
8.36503e+06
8.12681e+06
5.06017e+07
4.45048e+07
4.44856e+07
2.5645e+07
2.56853e+07
1.4182e+07
1.21768e+07
7.38508e+07
7.38217e+07
1.63328e+07
1.2041e+07
2.68795e+07
1.14896e+07
4.62838e+07
2.0403e+07
1.80783e+07
1.51866e+07
5.54351e+07
9.11979e+06
1.79664e+07
6.58272e+07
4.64163e+07
4.63961e+07
5.83814e+07
1.11577e+07
3.03294e+07
2.43254e+07
2.53022e+07
6.41386e+07
6.40853e+07
2.41796e+07
6.72252e+07
8.40496e+06
8.40786e+06
1.04979e+07
1.04939e+07
2.26018e+07
2.76594e+07
2.53095e+07
7.61694e+07
7.22827e+07
7.23156e+07
1.42246e+07
1.421e+07
1.92695e+07
7.8142e+07
7.81126e+07
3.11212e+07
3.0913e+07
7.91087e+06
331970
329949
2.47532e+07
1.53165e+07
6.208e+07
1.65978e+07
7.02126e+07
7.02418e+07
2.57295e+07
5.9524e+07
5.91099e+07
2.28213e+07
1.51873e+07
2.4435e+06
2.64039e+07
2.63961e+07
7.33635e+07
7.33929e+07
1.30416e+07
3.06326e+07
3.06359e+07
6.7457e+07
6.74856e+07
1.3877e+07
3.75482e+07
3.11572e+07
1.31052e+07
2.79159e+07
2.78983e+07
2.41762e+07
1.77679e+07
5.37966e+07
4.746e+06
3.12751e+07
3.12953e+07
3.22893e+07
1.48357e+07
6.38602e+07
6.27343e+07
6.27052e+07
4.80938e+07
5.95234e+06
2.46917e+07
2.47879e+07
8.26659e+07
8.26315e+07
3.44208e+07
5.04505e+07
5.04265e+07
3.32755e+07
5.31235e+07
4.26118e+07
4.25966e+07
2.59525e+07
1.95595e+07
5.11561e+06
3.65455e+06
3.95807e+07
1.40164e+07
1.03236e+07
434292
431306
5.31419e+07
1.09405e+07
1.09346e+07
6.32493e+07
6.32182e+07
4.41962e+06
7.88886e+07
7.88557e+07
5.94719e+07
5.94997e+07
8.37488e+07
8.3777e+07
2.19544e+07
7.7045e+07
7.70159e+07
7.27939e+06
2.67392e+07
2.84203e+06
2.32597e+07
1.75446e+07
2.35162e+07
6.01435e+07
6.01171e+07
1.87181e+07
1.87376e+07
1.53458e+07
3.06368e+06
8.69257e+06
4.88661e+07
9.41914e+06
3.57417e+07
5.30288e+07
1.90047e+07
1.11401e+07
6.73172e+06
6.73079e+06
4.93587e+07
3.08443e+07
4.87862e+07
3.16756e+07
1.47567e+07
1.28627e+07
2.92394e+07
2.92038e+07
2.93787e+07
1.8182e+07
2.80597e+07
2.80351e+07
1.24349e+07
3.8215e+07
7.49579e+07
3.58087e+07
3.58261e+07
5.28307e+07
2.56213e+07
2.8381e+07
3.23068e+07
3.5571e+07
7.49852e+07
3.23336e+07
4.20311e+07
3.41217e+07
1.81546e+07
2.9514e+07
1.07194e+07
2.69713e+07
2.0877e+07
1.63254e+07
7.20618e+06
1.73892e+07
2.86562e+07
2.83442e+07
1.94138e+07
6.08437e+07
6.08137e+07
4.39523e+07
1.94157e+07
1.09746e+07
1.43311e+07
5.18451e+07
4.69348e+07
5.41697e+06
6.22177e+07
2.19936e+07
1.00578e+07
4.69718e+07
2.78789e+07
4.03415e+07
1.71825e+07
9.1406e+06
4.74695e+07
4.6755e+07
3.2551e+07
780589
776927
5.30707e+07
5.73551e+07
5.73859e+07
6.56437e+06
6.41017e+07
6.40732e+07
1.81311e+07
2.76257e+07
2.76076e+07
3.47442e+07
1.18336e+06
8.75186e+06
8.07005e+07
8.06699e+07
7.25133e+06
6.20688e+07
6.76457e+07
2.46701e+07
6.29604e+07
6.29296e+07
3.31968e+07
1.01355e+07
8.7845e+06
5.75252e+07
2.86194e+07
2.85937e+07
483659
480841
7.28311e+06
1.91929e+07
4.7276e+07
4.72495e+07
6.48133e+07
6.47872e+07
5.6825e+07
1.25546e+07
2.40839e+07
5.90206e+07
5.89964e+07
6.08366e+06
778053
781618
5.95238e+07
5.9506e+07
6.51015e+07
6.5128e+07
6.33298e+07
7.34326e+07
7.34031e+07
4.77667e+07
4.77421e+07
3.56578e+07
1.67882e+07
6.82379e+07
6.74206e+07
2.69754e+07
5.75778e+06
6.73981e+07
1.13614e+07
3.18201e+07
3.76847e+07
4.03786e+07
2.43685e+07
7.02576e+07
7.02286e+07
1.65305e+07
6.12685e+07
6.12971e+07
7.37788e+07
7.37506e+07
2.63317e+07
4.67295e+07
4.67509e+07
2.87626e+07
2.87434e+07
2.9714e+07
2.73117e+07
2.72888e+07
3.0464e+07
7.61826e+07
7.62114e+07
1.96598e+07
1.34298e+07
3.04547e+07
1.74272e+07
2.33626e+07
2.3268e+07
1.19451e+07
2.9459e+07
1.75725e+07
2.35524e+07
243510
245381
8.20375e+07
8.2067e+07
1.23086e+07
2.1239e+07
8.33386e+07
8.33042e+07
3.22937e+07
2.51619e+07
1.61062e+07
4.90301e+07
4.94398e+07
2.73922e+07
5.57767e+06
5.18324e+07
8.71146e+06
8.12055e+07
8.12382e+07
3.15394e+07
3.15657e+07
4.72069e+07
4.72388e+07
2.21681e+06
2.20659e+06
1.42943e+07
4.77861e+07
1.01325e+07
2.72068e+07
2.51167e+07
1.56381e+07
4.35798e+06
4.35922e+06
1.42567e+07
3.68449e+06
2.52328e+07
3.07519e+07
3.07729e+07
2.3474e+07
5.09586e+06
3.65304e+07
4.95173e+07
4.94927e+07
2.85179e+07
1.86786e+07
5.29055e+07
5.29371e+07
2.2869e+07
4.90042e+07
4.90252e+07
4.38745e+07
2.25581e+07
2.68273e+07
1.59681e+07
1.88864e+07
1.8875e+07
6.82354e+07
1.4201e+07
4.32807e+07
4.32585e+07
4.62642e+06
3.79915e+07
3.79685e+07
7.28799e+06
5.51075e+07
5.50827e+07
2.95757e+07
2.95952e+07
4.84805e+06
1.92991e+07
1.9321e+07
5.82601e+07
5.82908e+07
3.62532e+07
1.93497e+07
3.62592e+07
4.06589e+07
4.06348e+07
3.60668e+07
1.21383e+07
2.88211e+07
2.88617e+07
9.43985e+06
7.54989e+07
7.54645e+07
1.03131e+07
4.65126e+07
7.4593e+07
7.45642e+07
871430
872009
9.42617e+06
6.25747e+07
6.25491e+07
8.32286e+06
2.88508e+07
2.88157e+07
6.50429e+06
6.50236e+06
1.24201e+07
2.7434e+07
7.50199e+07
7.49858e+07
8.57455e+07
8.57761e+07
2.69058e+07
1.16656e+07
1.25542e+07
1.25583e+07
1.97562e+07
249327
247733
7.98065e+07
7.98351e+07
2.10647e+07
1.67852e+07
1.67766e+07
9.51394e+06
6.48974e+07
6.49238e+07
1.59252e+07
1.7942e+07
7.42985e+07
7.43279e+07
7.03652e+07
7.03975e+07
1.97992e+07
1.52855e+07
4.97395e+07
2.39715e+07
1.5615e+07
7.72396e+06
2.51551e+07
2.62023e+07
3.28738e+07
3.3103e+07
5.96808e+07
5.97108e+07
7.45298e+07
7.45004e+07
5.96325e+07
3.17092e+07
9.02897e+06
1.82212e+07
7.05226e+07
3.10366e+07
4.87613e+07
4.52514e+07
4.92996e+07
3.94658e+07
3.94378e+07
3.58104e+07
3.58324e+07
7.9125e+06
9.99666e+06
2.73953e+07
1.2298e+07
1.48967e+07
2.4331e+07
2.62644e+07
1.11521e+07
3.09012e+07
3.08702e+07
9.388e+06
3.38834e+07
3.39126e+07
1.382e+07
8.34348e+07
8.34714e+07
7.10935e+07
7.11228e+07
1.60553e+07
4.99512e+07
4.99734e+07
9.10977e+07
9.1067e+07
5.64685e+07
5.64447e+07
4.336e+07
4.33347e+07
6.65061e+07
1.47936e+07
2.0422e+07
1.02676e+07
3.24689e+07
3.24891e+07
5.08311e+07
5.08533e+07
1.90442e+07
1.90247e+07
1.4855e+07
8.60627e+07
8.60337e+07
3.15455e+07
4.40388e+07
4.41161e+07
2.46679e+07
3.1385e+07
4.61883e+07
1.39312e+07
2.64225e+07
2.6359e+07
6.4438e+06
3.26404e+07
2.9832e+07
3.36124e+06
3.36364e+06
5.62525e+07
1.16336e+07
1.23258e+07
1.61225e+07
3.98823e+07
6.50976e+07
1.60535e+07
1.99317e+07
1.99187e+07
6.34596e+07
6.34302e+07
3.88475e+07
3.8824e+07
1.84403e+07
1.64383e+07
1.53179e+07
1.22716e+07
1.46692e+07
5.51671e+07
2.03795e+07
2.25256e+07
8.95325e+06
6.17621e+07
6.17412e+07
6.33989e+06
6.34155e+06
1.68937e+07
1.49117e+07
4.23027e+07
4.2332e+07
4.61099e+07
4.60832e+07
7.98382e+07
7.98073e+07
1.89117e+07
1.05009e+07
1.03959e+07
5.0406e+06
5.78122e+07
5.85333e+07
7.10352e+07
7.10648e+07
3.23888e+07
3.60298e+06
5.24855e+07
5.24553e+07
3.41101e+07
3.40104e+07
2.53116e+07
1.13614e+07
3.31364e+07
1.66718e+07
2.46351e+07
2.45453e+07
4.88496e+07
4.8825e+07
4.80347e+07
6.97512e+07
6.97219e+07
6.05022e+07
6.04711e+07
6.55139e+07
2.50287e+07
2.49734e+07
2.33889e+07
2.34074e+07
1.2201e+07
1.88727e+07
3.41961e+07
2.76842e+07
2.7717e+07
1.24758e+07
1.24798e+07
1.86104e+07
3.36525e+07
4.48371e+07
4.48581e+07
3.86628e+07
1.7514e+07
8.43045e+07
8.4335e+07
1.70376e+07
4.55268e+07
5.76935e+07
1.82995e+07
4.75531e+07
5.54111e+07
5.54349e+07
1.96394e+07
5.95485e+07
5.95234e+07
1.95358e+07
1.89388e+07
4.75792e+07
4.18336e+07
4.18553e+07
2.24682e+07
2.28066e+07
4.13758e+06
7.27909e+07
7.27615e+07
8.81167e+06
1.29164e+07
3.94783e+07
3.94506e+07
2.64704e+07
2.63062e+07
2.61313e+07
9.42646e+06
3.77336e+06
3.71213e+06
3.90614e+07
3.90331e+07
1.6818e+07
1.17422e+07
2.76077e+07
5.16804e+07
5.42948e+06
1.29224e+07
4.438e+06
5.75711e+06
2.55055e+07
6.21487e+07
2.03907e+07
6.46366e+07
6.46059e+07
2.74587e+07
4.09032e+06
4.09203e+06
6.17427e+07
6.17147e+07
2.12054e+07
6.68298e+07
6.68602e+07
2.68485e+07
6.10181e+07
1.02845e+07
1.99109e+06
1.9903e+06
8.74574e+06
5.2711e+07
5.27389e+07
3.2555e+07
5.30506e+06
3.30034e+07
1.71366e+07
5.96266e+07
2.87972e+07
2.0285e+07
2.03066e+07
4.20814e+07
4.20567e+07
3.168e+07
1.52076e+07
2.61412e+07
5.79623e+07
5.79867e+07
8.89713e+06
7.53736e+06
7.53282e+06
2.53251e+06
7.48943e+07
7.49234e+07
1.13277e+07
1.65723e+07
2.48365e+07
2.28904e+07
2.28609e+07
3.2619e+07
3.25884e+07
2.27771e+07
2.75532e+07
3.64501e+07
3.62964e+07
4.45542e+07
3.01461e+07
4.57143e+07
5.98075e+06
5.66266e+07
1.85433e+07
2.70437e+07
2.70061e+07
7.1774e+06
1.96084e+07
1.95951e+07
6.08828e+07
6.08633e+07
5.02125e+07
6.90583e+07
5.05257e+06
1.30111e+07
2.64597e+07
6.10101e+06
5.72908e+07
5.52107e+07
3.81129e+07
2.36346e+07
3.17328e+07
1.16507e+07
3.14413e+07
3.83687e+07
3.83965e+07
3.60072e+07
3.59848e+07
4.88298e+07
4.97379e+07
2.36602e+07
3.54531e+07
3.54839e+07
6.45318e+06
4.1898e+07
4.18196e+07
5.85392e+07
5.8564e+07
1.42222e+07
4.26145e+07
9.50237e+06
3.1749e+07
5.61009e+07
242646
244602
2.71693e+07
1.60864e+07
1.84583e+07
1.41597e+07
8.77944e+06
2.94443e+07
2.9425e+07
4.71834e+07
4.72041e+07
2.71229e+07
5.97183e+07
7.67266e+07
7.66974e+07
4.13128e+07
4.13314e+07
2.47748e+07
1.97209e+07
2.019e+07
2.48386e+07
4.40251e+07
4.42647e+07
1.74625e+07
3.95737e+07
3.9653e+07
4.28897e+07
4.29148e+07
4.19902e+07
2.84204e+07
2.84014e+07
2.71381e+07
2.70957e+07
3.43752e+07
2.20376e+07
2.20657e+07
1.28073e+07
1.81224e+07
4.9984e+06
1.9243e+07
2.54485e+07
8.91723e+06
8.9154e+06
2.13346e+07
2.54895e+07
4.63089e+07
4.63381e+07
1.78783e+07
2.58308e+07
2.66816e+07
3.07742e+07
3.56643e+07
3.56425e+07
3.25199e+07
7.454e+07
7.45716e+07
2.94956e+07
3.1567e+07
1.40727e+07
4.93871e+07
3.96322e+07
3.96123e+07
1.46028e+07
3.66216e+07
3.02671e+07
6.8533e+07
6.8562e+07
4.53378e+07
4.53227e+07
2.07399e+07
2.19163e+07
2.0521e+07
1.46217e+07
2.04981e+07
1.85615e+07
2.46879e+07
2.29208e+07
3.97746e+06
6.10862e+06
4.76203e+07
4.76413e+07
8.26313e+06
7.83591e+07
5.25294e+07
5.25527e+07
5.05332e+07
3.16979e+07
3.02041e+07
2.46369e+07
3.17296e+07
7.2684e+07
7.27125e+07
1.08278e+07
3.39991e+07
4.98688e+07
4.98907e+07
2.85567e+07
2.6758e+07
4.34369e+07
84388.6
83116
2.56523e+07
6.3805e+07
6.37755e+07
2.64939e+07
9.57722e+06
2.23114e+07
5.15674e+07
4.18228e+07
2.28121e+06
7.83281e+07
1.29113e+06
1.28974e+06
1.81079e+07
3.70649e+07
1.1797e+07
937819
937532
3.04993e+07
4.55814e+07
4.56045e+07
8.11124e+07
8.10806e+07
4.16924e+07
4.17168e+07
3.02961e+07
2.9438e+06
2.9442e+06
3.07966e+07
1.6226e+07
2.26255e+07
4.48608e+06
2.58306e+07
2.41783e+07
5.76727e+07
5.76733e+07
5.27234e+07
5.27514e+07
8.37105e+06
2.63038e+07
7.0533e+07
1.71266e+07
3.50929e+07
1.05407e+06
3.31302e+07
3.44669e+07
8.57448e+07
8.57086e+07
5.50883e+07
2.05846e+07
4.15467e+07
4.15837e+07
9.72224e+06
2.55543e+06
2.09511e+06
2.50223e+07
73303.1
72670.9
1.46217e+07
9.61208e+06
9.60814e+06
7.61002e+06
6.89615e+07
6.89895e+07
1.19786e+07
2.76285e+07
4.11586e+07
2.76745e+07
5.73658e+07
5.73298e+07
1.31726e+07
1.90689e+07
2.83739e+07
6.13812e+06
6.86929e+07
6.87211e+07
3.68865e+07
3.69856e+07
7.15043e+07
1.13743e+07
8.64461e+07
8.64783e+07
3.03493e+07
3.03298e+07
2.48988e+07
5.74608e+07
8.93172e+06
4.1389e+07
4.14068e+07
7.78432e+07
7.78139e+07
3.42445e+06
7.38902e+06
3.10595e+07
6.73705e+07
2.49359e+07
1.61919e+07
4.88397e+07
4.88623e+07
1.22811e+07
2.1746e+07
2.99559e+07
5.00241e+07
1.25808e+07
2.95139e+07
4.60301e+07
4.60006e+07
6.3762e+07
7.6736e+07
7.67651e+07
733570
729604
3.69792e+07
2.74677e+07
7.88488e+07
3.35963e+07
4.15572e+07
4.15853e+07
4.22416e+07
2.75005e+07
5.86029e+07
2.48679e+07
1.42562e+07
8.13848e+07
8.14141e+07
5.40099e+07
5.50741e+07
5.51029e+07
8.67943e+07
8.68266e+07
7.88157e+07
290626
288773
2.56163e+07
8.45997e+07
8.46285e+07
4.24243e+07
4.24527e+07
1.19769e+07
1.19801e+07
4.16315e+07
1.36909e+07
6.07324e+07
6.07018e+07
1.22587e+07
1.79084e+07
4.80286e+07
4.80054e+07
3.12479e+07
2.33868e+07
6.19031e+07
6.18778e+07
2.60546e+07
1.2554e+07
1.25461e+07
4.41707e+07
1.01547e+07
2.27428e+07
8.73911e+07
8.73547e+07
5.95924e+07
3.96916e+07
3.96638e+07
3.10837e+07
3.11045e+07
6.81577e+06
6.81354e+06
1.45124e+07
5.27319e+07
8.18729e+06
8.19194e+06
4.59678e+07
4.59972e+07
1.48064e+07
9.33269e+06
2.26601e+07
4.22693e+07
1.23786e+07
8.72861e+06
6.47581e+07
6.47277e+07
5.6383e+07
5.63575e+07
9.14611e+07
9.14933e+07
2.51215e+07
2.69298e+07
2.68235e+07
5.52544e+07
5.52269e+07
2.03294e+07
1.00008e+06
1.00556e+06
1.29286e+07
4.50274e+07
2.83186e+07
2.83034e+07
6.89795e+07
1.81732e+07
3.66187e+07
7.65357e+07
7.65644e+07
2.40915e+07
2.62145e+07
2.62614e+07
4.58246e+06
2.10121e+07
4.03311e+06
4.35036e+07
5.31956e+07
5.32254e+07
7.37837e+06
2.19786e+07
7.53867e+07
4.33332e+07
4.33581e+07
1.43723e+07
5.65712e+07
5.65458e+07
6.28703e+06
1.79084e+07
1.80834e+07
5.68365e+06
1.44516e+07
7.3357e+06
5.89877e+07
5.90184e+07
5.73205e+07
5.7287e+07
1.05805e+07
7.13831e+07
7.14113e+07
7.11779e+06
1.28726e+07
7.12448e+06
2.35828e+07
2.35974e+07
2.471e+07
2.41418e+07
1.42338e+07
4.33749e+06
2.50177e+07
2.24226e+07
5.71258e+07
5.70914e+07
1.99704e+07
2.35319e+07
4.78562e+07
1.83326e+07
6.5759e+07
5.33267e+07
1.84662e+07
1.92087e+07
6.45311e+06
1.16375e+07
7.86117e+07
7.86407e+07
7.7847e+07
7.78762e+07
4.05246e+06
3.14405e+06
3.14921e+06
3.22429e+07
1.93312e+07
2.50458e+07
3.3495e+06
9.26318e+06
5.91015e+07
6.21179e+06
3.03958e+06
7.93909e+07
7.942e+07
2.07955e+07
1.81189e+07
6.28389e+07
3.28974e+07
3.28765e+07
5.41001e+07
6.54391e+07
1.48004e+07
4.62555e+07
1.95037e+07
4.04521e+07
7.84798e+06
6.04367e+06
1.69499e+07
1.79599e+07
8.29319e+07
8.29607e+07
3.46906e+06
3.47746e+06
2.1827e+07
3.95832e+06
3.95614e+07
3.95192e+07
1.73643e+07
2.1279e+07
2.17511e+07
4.45667e+07
4.45914e+07
6.3233e+07
6.22465e+06
3.48668e+07
2.47098e+07
6.97226e+06
5.05846e+07
9.88195e+06
3.03568e+07
3.10884e+06
3.68654e+06
2.0883e+07
4.15805e+06
1.78647e+07
3.74657e+07
7.91992e+07
7.91694e+07
3.4407e+07
3.44295e+07
2.16652e+07
2.16554e+07
1.06587e+07
4.37198e+07
3.07524e+07
3.02304e+07
3.02491e+07
6.21078e+07
2.46628e+07
3.64458e+06
3.07994e+07
2.75512e+07
1.78968e+07
1.25503e+07
3.08628e+06
3.08029e+06
2.9304e+07
2.93373e+07
8.54597e+06
8.54864e+06
4.69137e+07
3.88507e+07
2.29457e+07
1.9853e+07
2.47666e+07
1.88955e+07
823223
2.2719e+06
4.89072e+06
2.23627e+07
3.86175e+07
1.02609e+07
8.9933e+06
3.46284e+07
5.70463e+07
5.70559e+07
3.63068e+07
1.28511e+07
8.33996e+06
6.01036e+07
6.00729e+07
5.2187e+07
5.21619e+07
2.56591e+07
1.28167e+07
2.10675e+07
2.43168e+07
2.45203e+07
2.27744e+07
2.41108e+07
7.92371e+06
2.36379e+07
1.52927e+07
1.49438e+07
8.11832e+06
1.77621e+07
1.99016e+06
1.97174e+06
1.03255e+07
3.42132e+07
4.83344e+07
1.17407e+07
3.34811e+07
3.34891e+07
6.94813e+07
3.89276e+07
3.8901e+07
1.27843e+06
1.27091e+06
2.74765e+07
5.59149e+07
5.58899e+07
5.46733e+06
3.02985e+07
1.8289e+07
9.08705e+06
1.59028e+07
1.58857e+07
4.74829e+07
4.75065e+07
1.69494e+07
7.26986e+06
3.41868e+07
7.00809e+07
7.00496e+07
5.6123e+07
5.60997e+07
7.64031e+06
3.40159e+07
3.4034e+07
2.5699e+07
2.30586e+07
6.64869e+07
6.65166e+07
1.22231e+07
2.4495e+07
2.81377e+07
9.13766e+06
54135.9
54621
4.2766e+07
4.27908e+07
3.66791e+07
3.67087e+07
7.37565e+06
7.37397e+06
2.00131e+07
3.53253e+06
3.53526e+06
4.14715e+07
5.77775e+07
2.71705e+07
3.99633e+07
3.99362e+07
4.87153e+06
4.86518e+07
5.52871e+06
1.64736e+07
5.32167e+07
4.34468e+07
4.34722e+07
2.35522e+07
1.55002e+07
5.25966e+07
7.7234e+07
7.72672e+07
4.81105e+07
5.57841e+07
5.57463e+07
3.42643e+07
3.42415e+07
14453.8
14487.4
2.28634e+07
2.79252e+07
1.53717e+07
7.51151e+07
2.5384e+07
2.82313e+07
2.28243e+07
2.28533e+07
7.36438e+07
7.36147e+07
1.80601e+07
6.66244e+07
6.6595e+07
3.02894e+07
3.59196e+07
3.59446e+07
6.49318e+07
2.90314e+07
6.11804e+07
6.12055e+07
5.83793e+07
2.78692e+07
3.80095e+07
2.25138e+07
2.3585e+07
4.81477e+07
4.81714e+07
2.30867e+07
2.30752e+07
1.86444e+07
4.3607e+06
6.35333e+07
2.4269e+07
6.61334e+06
3.47271e+07
3.48728e+07
1.32207e+07
8.51706e+07
8.51996e+07
5.86701e+07
5.86946e+07
7.4281e+06
1.26468e+07
1.27102e+07
7.44646e+07
5.22915e+07
3.58167e+07
6.92788e+06
6.75651e+07
2.60522e+07
7.12811e+07
5.50455e+06
7.39599e+06
1.59546e+07
2.11953e+07
3.86938e+07
3.94292e+07
3.94025e+07
5.21652e+06
8.8325e+07
8.83581e+07
4.4734e+07
4.47004e+07
2.71409e+07
2.04337e+07
1.05467e+07
1.06744e+07
4.37243e+07
6.97424e+07
6.97126e+07
4.65836e+07
1.62323e+07
1.40803e+07
1.05937e+07
899518
895986
7.26842e+07
4.09057e+06
4.68224e+07
4.68024e+07
2.51556e+07
2.51727e+07
1.76688e+07
1.76901e+07
3.82347e+07
3.87784e+07
4.64524e+06
3.82893e+07
8.01396e+06
2.74069e+07
2.74383e+07
3.90987e+07
2.63755e+07
2.63924e+07
2.99077e+07
5.4771e+07
5.47795e+07
1.08665e+07
1.82043e+07
1.76561e+07
2.17699e+07
1.61803e+07
8.98279e+06
2.43039e+07
7.37665e+07
7.37959e+07
3.28913e+07
3.26256e+07
3.26476e+07
8.93211e+07
8.93519e+07
3.05848e+07
1.88791e+07
4.72414e+07
4.72624e+07
1.74218e+07
3.03498e+07
1.26992e+07
2.76694e+07
1.56993e+07
5.14362e+07
3.05397e+07
3.05211e+07
1.0362e+07
1.13032e+07
1.13014e+07
8.49199e+07
8.4948e+07
3.28541e+07
3.46113e+07