/*--------------------------------*- C++ -*----------------------------------*\
| =========                 |                                                 |
| \\      /  F ield         | OpenFOAM: The Open Source CFD Toolbox           |
|  \\    /   O peration     | Version:  v3.0+                                 |
|   \\  /    A nd           | Web:      www.OpenFOAM.com                      |
|    \\/     M anipulation  |                                                 |
\*---------------------------------------------------------------------------*/
FoamFile
{
    version     2.0;
    format      ascii;
    class       volScalarField;
    location    "4000";
    object      sigmaxz;
}
// * * * * * * * * * * * * * * * * * * * * * * * * * * * * * * * * * * * * * //

dimensions      [1 -1 -2 0 0 0 0];

internalField   nonuniform List<scalar> 
27023
(
1.42155e-13
9.5048e-14
6.21333e-13
4.76564e-13
0
-4.72947e-13
3.93107e-12
-9.70959e-13
-9.21821e-14
-4.3387e-13
-5.86439e-13
-8.39402e-13
-5.97121e-14
3.185e-14
7.17697e-13
8.80709e-13
-7.97476e-13
0
2.91618e-12
0
-6.36051e-14
-1.96702e-15
-2.2791e-12
-8.09051e-13
2.06999e-12
3.32819e-12
1.54698e-12
7.25845e-12
-1.20901e-12
-4.47168e-12
8.59741e-12
3.58263e-13
4.42163e-12
-4.27058e-13
8.74429e-13
-9.45028e-12
1.51169e-12
3.02312e-12
1.70257e-13
-2.4636e-13
-1.8265e-13
-8.01909e-14
-9.55566e-12
-9.97357e-14
9.97191e-14
4.5004e-12
-3.24714e-12
-4.23123e-12
4.23121e-12
-2.85641e-12
3.19552e-12
-1.24776e-12
7.44258e-12
4.01552e-15
9.0588e-14
1.55548e-12
2.51672e-12
1.17449e-11
-2.11192e-12
-9.67234e-13
-6.48422e-13
-1.71485e-11
6.93237e-12
3.93271e-12
-1.02147e-11
-2.02509e-12
1.05444e-12
-4.56486e-12
1.00071e-12
-1.00014e-11
0
-3.05422e-12
-2.90951e-13
-1.70792e-12
-1.82205e-12
-1.1006e-12
1.08574e-14
-5.85828e-14
6.79301e-12
-3.10262e-12
1.08604e-12
3.67345e-12
-2.88916e-12
-5.39534e-13
1.35597e-12
-4.34178e-12
-2.33232e-12
2.55276e-12
4.8045e-12
-4.16548e-12
2.45427e-12
1.2267e-13
-2.47584e-13
-3.4801e-13
-7.6369e-14
-3.34165e-12
-3.52102e-12
3.18292e-12
-5.0998e-12
2.76608e-12
-1.88959e-12
-7.94268e-12
-3.04104e-12
-3.03244e-14
1.88039e-12
1.20315e-11
-1.15919e-12
8.33733e-13
-4.4564e-12
2.47578e-11
-1.12355e-11
-8.24501e-14
9.05556e-13
-4.26085e-12
6.49992e-13
1.92084e-12
4.63026e-12
-3.11365e-13
-1.38087e-12
2.16519e-12
-1.21468e-11
7.20377e-12
-6.79963e-13
1.85096e-12
-3.36945e-12
1.57087e-12
-5.05397e-14
2.894e-13
2.98882e-13
2.08886e-12
-9.61126e-13
2.22283e-14
-1.09386e-14
1.27059e-13
-8.7171e-12
-6.76585e-12
-1.72601e-13
2.11632e-12
2.1978e-12
2.48875e-13
-6.24727e-13
-4.86192e-12
-2.15216e-12
-2.06547e-12
-1.40439e-12
1.61787e-12
-8.13055e-12
-2.89355e-12
1.04375e-12
1.88314e-13
-2.69247e-13
1.0318e-12
-5.90063e-13
2.58341e-12
2.528e-12
1.82727e-11
-7.78399e-12
5.27153e-12
5.46325e-12
-2.3962e-12
3.88907e-12
-8.67292e-12
8.30253e-12
8.90344e-12
-4.8191e-13
-5.06248e-13
-3.49496e-13
1.88187e-12
-2.9918e-13
-1.45517e-12
1.26545e-12
6.14641e-12
2.11319e-13
-2.01721e-12
0
1.10253e-11
1.15674e-11
-2.87172e-12
-2.11588e-12
3.37299e-13
8.96162e-13
-3.48426e-12
-2.24167e-12
-2.5968e-12
-5.97743e-12
1.69367e-12
1.59703e-12
-1.08816e-12
-5.77124e-12
4.01354e-12
-2.73217e-12
1.80136e-13
-7.40693e-13
-2.05457e-12
1.57262e-12
2.61831e-12
-1.03135e-11
9.763e-13
5.91225e-13
5.50563e-13
4.56389e-12
1.04411e-12
3.33186e-12
6.44025e-12
0
-6.60394e-13
2.47127e-12
-1.4912e-12
2.93312e-12
3.60546e-12
0
1.18172e-15
-6.26669e-13
2.43947e-12
-2.84165e-13
1.6674e-13
-1.49863e-12
1.56705e-12
2.98085e-12
2.32553e-12
3.19449e-12
1.01026e-11
8.97669e-13
8.68705e-14
-2.69515e-12
-1.88789e-12
4.18198e-12
-6.3184e-13
-2.41932e-12
2.33871e-14
1.58953e-13
-7.57977e-12
-1.28173e-12
-2.1375e-12
-2.84864e-12
3.55998e-12
-1.5194e-12
5.58644e-12
2.57054e-13
4.38102e-12
-4.38222e-12
2.83573e-12
-3.12857e-13
-1.0297e-11
-9.55663e-13
1.11366e-12
9.6082e-12
8.92121e-13
-6.82185e-13
6.62455e-13
-2.69033e-12
4.08835e-12
-6.79586e-12
-1.07248e-12
2.72978e-12
-6.9091e-12
0
-5.81498e-12
-5.7398e-12
2.17146e-12
7.15221e-13
-1.85407e-12
-8.6068e-12
2.67929e-12
-5.16274e-12
-4.93812e-12
-2.37148e-13
-9.40404e-13
-4.21011e-12
-1.7189e-13
1.03098e-13
1.97169e-11
7.42573e-12
9.91582e-13
-5.14798e-12
-1.91748e-12
-4.96384e-14
-3.19641e-14
-6.22959e-12
1.0251e-12
-1.94571e-11
2.00381e-12
2.63952e-11
-3.97913e-12
-1.81033e-14
-1.92384e-14
-5.29574e-12
1.26115e-11
-2.63775e-12
-2.48041e-14
-7.62806e-12
3.40776e-12
-5.33017e-13
2.42046e-12
0
-1.34611e-12
-4.53574e-12
2.57105e-12
2.70588e-12
0
-1.10654e-13
-1.13588e-12
8.41415e-13
0
-1.72972e-13
3.19127e-14
-1.1448e-14
-4.33869e-12
-8.68e-12
-3.46949e-12
2.34382e-11
4.45173e-14
-4.44547e-14
1.50091e-13
3.62891e-13
4.24399e-12
-1.65228e-12
4.81412e-13
-4.72257e-12
1.85922e-12
-4.84438e-14
-7.5924e-14
9.15634e-13
9.65764e-13
-6.36086e-13
-8.19881e-13
5.126e-12
-1.37646e-12
-3.47866e-12
5.03405e-13
-1.14175e-13
-2.34457e-12
-6.3583e-12
-2.92307e-13
-8.62097e-12
-4.88292e-13
-8.15917e-13
6.57096e-13
-1.84105e-12
-1.06961e-13
-1.40193e-12
2.21877e-11
-1.20879e-11
0
1.96551e-15
-1.87885e-12
-5.183e-13
1.10464e-12
-2.72104e-12
2.61326e-12
3.34346e-12
-5.16254e-13
3.78759e-13
-2.34114e-12
2.51859e-14
-1.86192e-14
-6.82676e-13
4.30999e-12
-4.81108e-12
7.64429e-13
1.36115e-12
1.44964e-12
-4.28812e-12
6.33826e-14
1.75466e-12
-8.15344e-12
3.68817e-12
1.03791e-12
-4.83475e-13
4.83921e-13
-3.16119e-12
-2.00287e-12
-1.6411e-12
0
-1.53834e-13
8.30019e-12
-5.29646e-12
-2.0125e-12
6.22593e-12
3.50147e-12
3.79925e-12
2.63773e-12
2.91255e-12
1.32244e-12
-3.37353e-13
-1.45205e-12
-1.13708e-12
5.20935e-12
-1.28809e-12
1.26509e-13
-1.55025e-12
2.23135e-11
5.95957e-13
-5.91354e-12
-6.15376e-13
1.06285e-12
5.5789e-13
-1.34152e-11
-8.44392e-12
0
6.90185e-13
-8.03253e-13
-6.37605e-13
-1.63612e-12
-2.08165e-11
3.33701e-13
-7.87987e-13
1.50588e-12
8.95474e-12
1.82017e-12
3.25514e-12
-2.57361e-12
7.5121e-15
-9.70617e-15
5.09699e-12
2.94141e-13
-4.33559e-13
-5.69022e-12
4.7994e-12
-6.66463e-12
0
-6.97529e-12
3.06627e-13
-3.42651e-12
9.56961e-12
-6.16246e-12
0
-3.1414e-13
8.13087e-12
2.39649e-13
9.35295e-12
0
1.99826e-12
-3.9164e-12
-1.43017e-12
2.82438e-12
-1.31687e-12
8.47803e-14
1.34741e-13
-2.85442e-13
-7.75701e-12
-2.04141e-11
-3.36542e-13
-4.72628e-12
1.89941e-15
-2.4674e-17
-5.76469e-13
4.89114e-12
6.92876e-13
-3.79329e-15
3.34016e-13
1.76156e-13
-1.75366e-13
-6.20085e-13
1.14425e-12
-2.50233e-12
-4.95608e-12
1.10461e-12
1.54199e-12
1.93753e-12
2.89422e-12
-1.28919e-12
-4.08225e-12
-3.89064e-12
-4.79086e-12
-7.969e-12
-3.78498e-12
1.88471e-12
4.683e-15
1.00079e-11
2.32636e-11
0
1.11022e-12
-1.15913e-12
1.20698e-12
0
-1.40613e-12
6.34497e-12
1.08093e-11
-4.10206e-13
6.19868e-13
-4.29287e-12
1.99615e-12
-2.24464e-12
3.96851e-12
2.6427e-12
-7.4209e-13
-8.13646e-12
-2.70178e-11
-5.06783e-12
2.3028e-12
3.58843e-12
3.93823e-13
-4.02472e-12
-3.46679e-13
-5.32843e-13
-1.85389e-12
-1.50589e-13
-1.33358e-12
8.59279e-12
1.86834e-12
6.57329e-15
-8.43947e-15
-6.15088e-12
5.70448e-13
2.32405e-12
1.70045e-12
1.15281e-13
1.34206e-12
1.91652e-12
-1.58698e-12
-2.45376e-12
-1.21608e-12
2.67127e-13
1.2674e-12
2.7089e-12
-2.41319e-12
-4.46887e-12
4.55808e-12
-5.12071e-13
-5.48529e-12
2.7423e-12
2.81499e-12
-8.84223e-13
2.07298e-12
-8.91596e-12
-4.364e-12
5.38766e-12
-2.54086e-12
2.27669e-13
8.32512e-12
-1.43718e-12
4.56089e-14
2.73826e-13
3.83122e-13
-3.83328e-13
-4.52378e-12
-4.18321e-12
-7.19052e-13
4.35732e-12
1.82767e-12
9.35979e-12
2.93805e-12
-2.23733e-13
1.01305e-11
3.46499e-13
4.86892e-13
2.14589e-13
-8.37105e-13
-9.42477e-12
-1.20134e-11
5.06656e-12
-7.46909e-13
-1.3243e-12
-1.29345e-12
6.27523e-12
1.04424e-11
3.5084e-12
-2.3653e-13
-9.93828e-12
1.39457e-12
5.80962e-12
2.03852e-12
-4.58883e-12
7.26959e-12
9.28558e-13
0
0
5.15406e-12
5.36077e-12
2.87663e-12
9.96193e-13
1.26435e-13
0
1.51694e-12
1.06076e-12
-3.03024e-13
-5.66009e-13
1.80337e-12
1.03735e-12
-1.0857e-12
-5.25979e-12
8.82301e-13
0
-5.31189e-12
1.78961e-12
7.43304e-14
-5.62793e-12
8.63663e-13
-2.34734e-13
0
-5.70454e-12
1.09941e-12
-2.49211e-12
-5.53784e-12
2.90188e-12
-2.76392e-12
-1.19709e-11
-2.42468e-12
1.52211e-12
-3.55711e-12
3.97634e-12
-2.1172e-12
3.03904e-12
1.02691e-12
1.45174e-14
-5.09813e-12
4.08683e-12
-8.85671e-13
3.75106e-12
-3.75142e-12
-5.7247e-12
3.21258e-13
-7.27834e-12
-4.79408e-13
-1.62685e-11
-2.63972e-11
-2.03164e-12
-2.48531e-12
-3.66393e-11
-9.61737e-15
-6.574e-15
8.25603e-16
6.78691e-16
-5.02799e-12
-5.97528e-14
7.73353e-14
0
-8.80679e-13
-2.93014e-14
2.91325e-14
2.84877e-13
-2.10575e-13
7.06661e-13
-1.10455e-12
2.74502e-12
-9.68453e-13
1.29744e-12
1.81793e-12
-4.43889e-12
-2.09366e-12
-2.1945e-12
-2.88466e-12
2.92539e-12
1.89801e-12
4.48721e-12
-1.54484e-12
-8.61478e-13
2.30591e-12
0
3.43378e-12
-1.19929e-12
2.92699e-12
0
3.61178e-13
1.35691e-12
-3.26256e-12
-2.54684e-12
-1.78225e-15
2.53753e-15
-4.63904e-12
-2.53389e-12
-8.02663e-12
-5.9457e-12
6.95737e-13
8.2233e-12
-1.88241e-12
-5.44803e-13
0
-4.4354e-12
1.59006e-13
-4.21967e-12
-8.39153e-12
-6.41143e-14
5.59798e-12
-9.72985e-12
-1.46644e-12
-1.07492e-11
2.32497e-12
0
4.83135e-12
2.81125e-14
8.82307e-15
-3.31374e-13
2.901e-12
1.9848e-12
2.28313e-12
-2.01993e-12
-5.5538e-12
2.33796e-11
-3.83693e-12
-7.21327e-13
8.75575e-12
3.09199e-12
-5.98171e-12
-4.04533e-12
-7.5556e-14
-4.33261e-14
-1.44599e-12
-1.62076e-12
1.34708e-14
-1.04675e-11
1.54747e-12
7.73226e-13
2.95113e-12
1.96872e-12
-1.08365e-15
6.59825e-15
-1.92616e-12
-1.35899e-15
-5.18102e-12
5.1356e-13
1.92392e-12
-9.14304e-13
-9.84504e-12
3.36605e-13
8.98432e-14
0
4.2282e-12
-1.45516e-13
-1.89882e-13
1.99533e-12
-2.27734e-13
-9.48141e-12
-7.16901e-13
-5.71145e-12
-1.86003e-12
-3.75866e-12
0
2.65078e-12
-8.84746e-12
7.2574e-13
-2.45878e-12
9.03798e-13
5.59634e-12
-6.33772e-13
-1.26358e-12
6.34053e-13
-6.21402e-13
-3.7512e-13
1.64385e-12
4.08877e-13
1.86302e-12
1.36879e-12
-3.53287e-12
1.49606e-12
3.39267e-12
1.09876e-12
4.83045e-13
-7.09107e-13
-3.51063e-12
-6.26281e-13
-4.18852e-12
4.58942e-13
6.63517e-12
0
6.8003e-12
5.54401e-13
1.24326e-11
2.43707e-12
3.27712e-12
-9.53175e-13
-4.03474e-13
7.03645e-12
-1.54887e-12
-7.55516e-13
-3.80851e-12
-2.59645e-12
-8.67707e-13
2.2354e-12
-5.69392e-14
-4.33015e-12
1.06189e-12
7.394e-14
-6.25387e-12
3.09937e-12
9.20821e-13
-5.11928e-12
-4.07086e-12
0
1.53198e-13
-7.1521e-13
-8.29541e-12
0
2.49977e-12
5.17561e-13
-3.53827e-12
-8.27123e-12
2.21845e-12
4.62371e-12
-1.97307e-13
0
0
7.21659e-12
-1.13284e-12
3.58753e-12
1.04674e-11
-8.9682e-12
9.00818e-15
0
8.35563e-12
8.05573e-12
2.42297e-13
-6.43656e-13
-1.12789e-12
-5.45783e-13
2.5629e-13
1.6772e-12
5.60871e-12
3.27843e-13
4.3099e-13
5.6084e-14
-1.32165e-13
-3.04145e-13
1.88779e-11
4.37536e-12
-9.72078e-12
-1.59447e-11
-1.951e-13
-1.11824e-12
-1.3877e-11
-3.82188e-14
-1.17072e-12
0
-9.7886e-12
2.57129e-12
-2.13694e-12
-5.81796e-14
-6.77968e-13
-5.26352e-12
-9.23324e-13
-4.85376e-12
2.72345e-12
-7.03755e-13
3.09352e-12
1.10558e-11
-1.71348e-13
-8.45693e-14
2.62955e-13
-2.22129e-12
1.57876e-12
1.27258e-12
7.41924e-12
0
-6.20283e-12
2.98616e-12
-1.1729e-12
1.07805e-11
-2.17336e-12
-4.20229e-12
4.74334e-13
6.76801e-13
4.02275e-12
-2.36642e-12
1.0218e-14
4.39456e-14
-2.64955e-12
3.08817e-12
-1.1993e-12
-2.19619e-12
9.20864e-13
-1.32433e-12
0
8.36846e-12
7.4244e-12
8.15973e-12
5.22207e-12
-4.32519e-13
3.14542e-14
-2.24822e-14
5.28572e-13
1.17413e-12
8.24024e-12
-8.57148e-13
1.57037e-12
-1.35204e-13
-4.91532e-12
7.80265e-13
6.95977e-12
-2.10965e-13
8.40107e-14
-2.72635e-12
-3.00984e-12
4.28014e-13
2.36613e-11
3.61812e-11
6.71338e-13
2.54346e-12
-1.42345e-13
-1.13703e-12
0
1.4668e-12
9.33249e-12
-5.64305e-13
2.74143e-12
1.72729e-13
-4.03986e-13
-1.11778e-12
7.5683e-13
7.74128e-13
4.50616e-12
2.73892e-12
5.74781e-12
-2.13581e-12
1.74482e-13
-5.29523e-14
3.69789e-12
-3.01393e-13
-4.36994e-13
-3.96248e-12
1.66361e-13
-4.21327e-12
-4.51745e-12
1.64682e-12
-5.20864e-13
1.50248e-12
-1.47538e-12
-2.1005e-11
5.23254e-13
-1.81074e-12
0
-5.56795e-12
3.50279e-13
-2.97435e-12
6.93319e-12
-1.93377e-12
1.38424e-12
2.22035e-12
1.22147e-13
-4.48859e-12
9.96853e-12
-6.73598e-12
-8.08498e-12
0
-1.78544e-13
-1.09632e-12
-2.59771e-13
2.87748e-13
-1.9792e-12
6.84802e-12
5.05038e-13
-1.30594e-12
0
3.16509e-13
6.74005e-14
1.90362e-12
8.92208e-12
1.13419e-13
0
3.21683e-12
1.47523e-13
1.93022e-12
1.54162e-12
-1.65879e-12
3.28497e-12
1.80236e-12
-1.42516e-12
3.14081e-12
1.68326e-12
-2.25375e-13
-5.72097e-15
6.91076e-13
3.60752e-12
1.23766e-11
1.38454e-12
2.92681e-12
-3.61572e-12
-1.66477e-12
4.27506e-12
1.12944e-11
8.81702e-14
-1.25381e-13
0
3.97856e-13
-5.96708e-13
5.14123e-13
3.54163e-12
-3.18122e-12
5.5473e-14
8.50486e-12
1.38009e-12
2.21354e-12
-1.32692e-12
1.39161e-12
3.55238e-12
-1.59648e-14
3.78847e-12
-5.13572e-13
-3.68322e-13
1.83382e-12
-2.08434e-12
5.58186e-12
-8.26044e-13
-1.55543e-13
6.59968e-12
-7.60518e-13
-7.23769e-13
0
2.75704e-12
-1.62673e-12
2.71073e-12
-2.66121e-12
8.46759e-13
1.28734e-13
1.13222e-11
-7.67568e-13
6.21707e-14
-8.0266e-15
-1.40581e-12
-1.04741e-14
-3.34705e-12
2.11429e-12
-1.01523e-12
-7.23179e-12
-9.74829e-13
1.85251e-12
4.95048e-13
-5.62271e-12
2.09121e-12
0
-2.83726e-13
-1.65341e-13
1.38933e-13
-9.46976e-12
-1.12874e-12
-3.15163e-12
-8.92017e-13
1.99828e-12
-2.41362e-13
-1.86621e-12
-1.53887e-12
1.1945e-12
2.83896e-14
-1.16285e-14
1.78487e-13
-1.87763e-12
-5.11589e-13
1.27308e-12
-2.16891e-12
-5.10961e-13
3.71684e-12
1.72212e-12
-3.08908e-13
-4.52216e-13
5.11607e-12
-8.72408e-12
-4.88834e-14
-2.66969e-12
3.21192e-12
9.86907e-13
9.83298e-14
-2.5519e-12
-4.56121e-12
-1.03898e-13
-2.08521e-12
-4.15108e-12
1.41076e-12
1.233e-12
-6.46346e-12
1.01366e-12
1.53009e-13
-6.98309e-14
-6.10319e-12
5.83188e-12
5.92294e-13
8.01768e-13
-1.04565e-11
9.38493e-13
4.3071e-12
-1.25983e-12
2.08831e-12
2.24682e-13
-3.02407e-12
-2.99172e-12
2.36842e-12
-6.6886e-13
-5.55576e-12
-1.24294e-12
-2.31013e-12
5.70682e-12
-8.05902e-12
1.05882e-12
2.44525e-12
-5.27677e-13
4.32032e-12
8.54559e-13
-3.747e-12
-8.20962e-12
2.34869e-13
1.88728e-12
5.29858e-12
8.24119e-12
1.99323e-12
3.71426e-12
-7.93056e-13
-9.47208e-12
-1.42512e-12
3.41195e-13
1.44503e-12
3.98301e-14
-5.47354e-12
-5.47745e-12
9.1445e-13
-1.62119e-12
1.98627e-13
-3.80721e-13
7.74909e-14
2.43072e-13
1.00398e-13
-2.04025e-11
-2.16732e-11
3.00861e-12
-2.30305e-13
1.67328e-12
-1.04669e-13
-2.28143e-13
4.69747e-13
2.00025e-12
-3.78799e-12
3.96151e-12
-1.7771e-11
5.2945e-13
-2.24869e-15
1.07751e-15
3.66334e-13
3.68286e-12
5.67643e-12
2.16207e-11
2.61851e-12
-2.78256e-12
1.36518e-12
1.55794e-11
8.92468e-12
-3.60326e-12
-5.383e-12
1.79374e-12
2.06989e-13
-1.64006e-12
-6.5263e-12
-1.61866e-12
1.003e-12
7.99516e-13
0
2.49088e-12
-1.90704e-12
-7.38415e-13
1.89855e-12
4.91988e-12
-6.36672e-13
7.80049e-13
8.99631e-13
-2.50776e-13
8.0804e-14
7.62304e-13
-1.01864e-12
-3.05087e-13
-3.0554e-13
-1.24664e-11
-1.09663e-12
6.6055e-12
-2.34929e-12
1.94988e-12
9.62331e-12
-1.2997e-12
-1.82482e-13
-1.64894e-11
-1.45854e-12
1.36445e-12
8.03331e-12
1.33729e-12
-2.81302e-13
5.11614e-13
4.94739e-12
-3.19361e-11
-1.18709e-12
1.13176e-12
2.96437e-12
9.49912e-12
7.29833e-12
-1.78498e-12
2.53253e-12
-1.58851e-13
9.0333e-14
-9.01332e-14
-8.35162e-12
-2.11791e-13
-6.04892e-13
2.5789e-13
-8.25942e-13
3.28445e-11
-1.64305e-12
2.43111e-12
-8.39955e-13
1.4979e-12
-2.30119e-12
5.8543e-14
-2.08806e-13
3.0494e-12
-2.38717e-12
5.12361e-12
-4.26817e-12
1.73453e-13
3.91383e-12
7.05697e-13
-7.94083e-12
1.42606e-12
-5.28766e-12
1.04843e-13
-9.94544e-13
1.7636e-12
7.613e-13
-2.54983e-12
6.6809e-13
-4.81051e-12
3.52788e-13
3.98951e-13
-1.91155e-13
-3.72079e-12
-1.93444e-13
2.02361e-13
8.60299e-13
5.38037e-13
-6.33689e-13
3.1793e-12
-1.01857e-12
-1.42831e-13
1.27234e-12
-1.40873e-13
-3.29081e-12
-1.62548e-11
4.23396e-11
-2.94652e-11
-1.84241e-12
-3.57724e-12
-3.58157e-12
1.23029e-12
-2.06494e-12
1.54393e-11
-7.02146e-13
-3.07383e-12
-9.33123e-13
-2.00594e-12
1.01475e-11
-4.6893e-13
-3.42811e-12
4.92528e-12
-1.14807e-12
-8.016e-13
8.94453e-13
7.81918e-12
2.26243e-12
-5.68142e-12
8.38022e-12
1.60722e-13
-5.64023e-12
1.7678e-12
1.8397e-12
4.89645e-12
-3.07501e-12
7.04743e-13
0
-1.49228e-12
2.43702e-13
1.89625e-12
3.75669e-13
-5.05939e-12
9.23106e-12
-1.38395e-12
-2.05759e-12
2.94641e-13
2.48114e-12
-1.23286e-11
5.90101e-15
0
-1.88643e-11
0
2.66784e-12
1.3349e-14
-7.34254e-14
-2.98958e-12
1.92907e-13
3.12191e-12
5.73612e-12
-3.75404e-13
0
0
7.45388e-13
-4.88412e-13
1.58397e-12
1.83783e-12
-1.52191e-11
-2.81661e-12
3.94848e-12
-1.989e-11
-6.60304e-12
-8.88927e-12
7.79981e-13
6.35659e-13
-1.96736e-12
1.1569e-12
0
8.4862e-13
-2.16623e-12
2.67608e-12
0
-6.7683e-15
8.9555e-15
-3.87853e-12
1.14918e-12
6.7074e-13
2.69925e-13
-3.3037e-12
2.56847e-12
1.81756e-12
3.25272e-12
-2.08846e-12
3.79404e-13
1.75338e-12
-1.15266e-11
4.09236e-14
-3.59004e-14
0
1.96138e-14
3.65694e-13
-4.51448e-12
0
-1.74783e-12
-2.82186e-12
-7.38618e-13
1.21147e-12
-6.93913e-13
6.17773e-13
-9.36812e-12
-1.51256e-12
1.44582e-12
1.4006e-12
1.71305e-13
1.57343e-12
1.14881e-12
0
-2.34591e-12
7.6231e-12
1.88364e-12
-8.17828e-13
-2.6026e-12
8.83819e-13
-1.41079e-12
3.8922e-12
6.87237e-12
4.55264e-13
-1.18865e-12
-1.22382e-12
-2.88681e-12
2.39378e-12
1.90507e-12
-2.46172e-12
-2.43808e-12
0
1.27644e-12
5.10948e-12
3.81791e-12
5.29812e-12
-1.63991e-12
-6.91125e-14
-3.33456e-12
5.2526e-13
2.79698e-12
5.77617e-12
8.63936e-13
-4.35812e-12
-1.41489e-15
-1.08382e-15
-2.92574e-13
-1.23416e-12
-9.04531e-12
2.94473e-12
9.44955e-13
-1.00764e-14
4.67579e-12
-4.09415e-14
3.01091e-13
-4.46715e-12
-9.69811e-12
-2.23435e-13
1.51956e-13
4.65242e-12
-1.28814e-11
-3.75262e-12
1.15896e-12
5.33813e-13
-4.73856e-13
4.71037e-12
-1.35407e-13
1.19422e-14
2.0597e-14
4.40341e-12
9.79191e-13
7.52624e-12
-1.89932e-12
-1.42359e-12
4.57959e-13
-1.62171e-13
-1.03778e-13
8.64912e-12
4.76236e-12
-4.4309e-12
7.6014e-13
-1.01357e-12
5.90795e-13
8.43793e-12
2.5984e-12
3.45548e-13
1.35789e-12
2.95963e-13
-6.84738e-13
-1.34514e-12
-3.31603e-12
2.20149e-12
-1.38873e-12
-9.4965e-13
-6.17785e-12
1.50914e-12
1.10064e-12
1.39774e-11
7.49803e-13
2.22186e-13
2.83766e-12
-4.18783e-13
1.49965e-12
0
-2.57575e-12
1.36833e-12
-1.36646e-12
-5.60229e-13
2.15452e-12
1.73613e-12
-4.02318e-13
-1.9017e-13
3.48005e-12
-2.02986e-13
1.91042e-13
-1.34978e-12
-8.30324e-12
1.55213e-12
-2.44739e-12
-4.20886e-12
5.31247e-13
-3.21544e-13
-7.67697e-12
4.53658e-12
0
-3.09685e-13
-3.54129e-12
-1.68833e-13
1.10779e-12
-1.77548e-12
-1.12938e-12
-4.82725e-12
6.35784e-12
-2.47239e-14
0
2.65596e-13
-9.28508e-14
7.65078e-13
-4.31359e-12
-9.19069e-12
3.87203e-12
6.03446e-13
-3.12153e-13
1.47847e-13
-4.404e-12
1.62149e-12
-3.73469e-13
1.54195e-12
2.04128e-12
-8.99689e-14
3.03013e-12
5.75087e-14
2.80877e-13
2.73331e-12
3.08129e-16
-1.27134e-15
3.99572e-12
-2.20691e-12
2.44413e-12
0
-9.00533e-14
-1.08809e-11
-8.8539e-13
-1.90168e-13
6.37683e-13
1.00878e-12
1.61274e-12
3.13183e-12
-2.65706e-13
-2.66382e-13
0
-1.82638e-13
-3.45165e-13
1.16954e-12
3.24e-12
5.80366e-12
1.08682e-13
-2.71758e-13
-1.40692e-11
9.57066e-12
-2.78963e-12
1.4655e-12
3.56737e-12
3.56701e-12
1.00232e-11
4.63975e-12
5.3633e-12
-2.01604e-12
-2.5899e-13
-9.70794e-12
3.41354e-12
-7.01824e-12
-4.33322e-12
-1.12755e-12
2.429e-12
-3.863e-13
9.26199e-13
0
-2.63443e-12
-2.1988e-12
1.29574e-12
3.92493e-13
-1.60984e-12
2.11979e-12
-5.81437e-12
3.88908e-12
-5.07305e-12
2.27782e-12
-2.6541e-12
5.15698e-13
-2.17134e-13
-8.20016e-14
-1.01206e-13
2.17987e-12
2.01518e-12
2.66502e-12
-1.20265e-12
-8.59145e-13
-3.13873e-12
-7.77182e-13
-3.32713e-12
1.53217e-12
1.57948e-12
1.93064e-14
1.33357e-12
1.39569e-13
2.63683e-12
-3.47729e-12
-3.95066e-13
7.78218e-13
-2.58706e-12
-1.35618e-12
7.99723e-12
-8.29647e-12
0
-1.7076e-12
-1.70747e-12
-3.31605e-12
-7.17813e-12
6.43776e-12
-5.66814e-13
1.90467e-12
3.98252e-12
-7.57597e-12
-5.44467e-13
4.84824e-13
-4.6301e-12
-1.3003e-11
7.16849e-12
3.58796e-13
-1.52183e-14
2.0005e-12
2.23102e-13
-8.72819e-13
0
8.54878e-12
-2.52688e-12
-4.77713e-12
-2.56975e-13
5.18739e-13
1.75654e-12
1.39683e-12
5.87305e-13
-1.14941e-12
2.5312e-12
-5.15665e-12
-2.92039e-14
-1.84876e-12
-5.98821e-13
1.70178e-12
1.79285e-11
3.98364e-12
2.42112e-12
-5.03322e-12
5.03306e-12
2.24862e-13
-2.57991e-13
-2.69445e-12
-2.34254e-12
-1.2538e-12
5.34039e-12
-8.49253e-13
-1.70144e-13
1.93535e-12
-1.9685e-13
-3.56889e-13
-2.08714e-11
1.33053e-11
4.65923e-12
2.05135e-11
1.14347e-11
-1.01281e-11
7.20748e-12
8.83634e-13
-8.23548e-12
-1.56818e-13
1.5615e-13
3.21838e-13
0
-2.94296e-12
-1.91676e-12
1.8173e-12
-1.46986e-11
-9.90619e-13
3.62642e-12
4.86819e-13
-7.1391e-13
-7.07438e-13
3.55359e-12
-1.13788e-12
-9.84827e-14
9.81938e-14
-2.12559e-12
-1.74448e-12
9.69697e-13
7.45213e-13
-8.0196e-13
-2.00707e-13
1.15063e-11
1.11045e-12
-3.3797e-12
-2.03327e-12
8.98856e-14
2.92486e-13
9.09899e-13
-4.9241e-13
-2.98378e-12
0
-4.1273e-12
-1.79671e-11
1.0786e-12
9.82766e-13
4.94325e-12
7.59645e-13
3.03473e-13
-7.44033e-12
-2.74695e-13
2.35638e-12
-7.75562e-13
-1.23882e-12
-1.00667e-13
3.5587e-12
-1.01198e-13
3.20552e-12
5.71462e-13
1.05621e-12
1.23226e-12
7.63381e-13
-2.3738e-12
1.1166e-12
0
2.40458e-12
-1.54676e-12
-4.40029e-13
3.4211e-12
-1.19984e-12
-6.95604e-12
-1.38225e-12
2.19795e-12
-3.8755e-14
5.46693e-14
-1.43008e-13
3.11179e-12
3.2623e-12
-9.86163e-13
-1.24766e-12
5.03903e-12
-1.63262e-12
-1.61848e-13
-9.38311e-13
-1.16348e-11
-2.86305e-12
-1.43256e-12
-7.08952e-12
1.02436e-12
-3.57732e-13
1.82925e-12
-6.61369e-13
2.03451e-13
-1.04622e-13
2.21672e-12
-4.43721e-13
-1.19235e-11
-8.00963e-13
-6.38443e-13
4.98459e-12
-9.41242e-12
9.42025e-12
-2.30833e-13
2.91615e-13
-1.63661e-12
-5.66751e-13
2.47046e-12
-2.03854e-12
-1.00358e-11
1.32717e-12
2.9112e-13
2.78123e-12
1.06709e-11
-1.06279e-12
3.97015e-13
-1.43996e-13
1.06447e-12
-5.21604e-12
2.12137e-15
-6.07623e-13
-2.30785e-12
3.14469e-12
7.85786e-12
-5.76721e-15
2.61993e-13
2.18132e-12
3.57243e-12
1.87769e-12
-2.10156e-12
1.30642e-12
0
3.71044e-11
1.90928e-12
2.54018e-12
-2.5413e-12
-2.41795e-12
0
-1.0291e-11
-1.99343e-12
-8.7734e-12
-2.43074e-12
-3.61226e-12
-8.32131e-12
-4.31272e-12
-1.79404e-12
2.68746e-12
-1.15669e-12
-1.46479e-12
4.94733e-13
-2.39415e-13
3.3134e-12
4.60174e-12
2.65346e-12
6.0858e-12
-8.11412e-12
-3.04748e-13
-4.52246e-13
6.02488e-13
0
-5.65267e-13
-8.66262e-12
-3.94898e-13
6.88024e-12
0
5.6442e-12
-4.07399e-12
-4.10853e-12
-1.91307e-12
3.33525e-13
5.37615e-12
4.99011e-12
4.72897e-13
-1.7521e-12
6.2072e-14
-1.82917e-11
1.0015e-11
0
-4.04079e-12
-1.97333e-12
-9.72469e-13
1.09805e-11
-2.89869e-12
9.1894e-13
-5.92336e-12
-1.36564e-15
1.80794e-15
2.5771e-12
1.41273e-11
2.68867e-12
-3.80976e-12
-5.42862e-12
-4.09663e-13
-1.43695e-12
-1.00479e-12
-1.78397e-12
2.07101e-12
4.7162e-13
-2.88907e-13
2.39503e-12
0
-1.97573e-12
9.5584e-13
-1.44237e-12
-2.25011e-12
4.43625e-13
-4.30629e-12
1.3017e-11
1.86697e-12
7.2367e-12
3.16983e-12
1.01189e-12
-4.71268e-13
3.80486e-12
1.40517e-12
-4.14873e-13
3.03815e-13
0
6.34161e-13
5.57646e-12
2.41665e-11
-2.11643e-12
-3.29731e-12
-5.17835e-13
1.43663e-12
-5.63256e-12
0
0
5.33612e-13
2.94159e-12
1.81358e-12
3.88676e-12
3.59231e-12
-6.25292e-12
1.34655e-12
2.8063e-12
-7.95116e-13
9.29637e-13
-2.94981e-12
3.90831e-12
-3.90913e-12
-7.20469e-13
-7.51142e-12
1.53187e-12
1.40039e-11
-2.71127e-14
-6.52361e-13
4.55324e-13
-6.46832e-12
-2.04756e-11
-1.23137e-13
1.11233e-12
2.7899e-12
-6.53246e-12
3.07135e-12
-2.74539e-12
-1.42012e-11
-1.11105e-12
0
2.15682e-12
-9.42044e-12
-1.7396e-12
7.69446e-12
-6.85299e-12
-4.72556e-13
5.83965e-13
5.69789e-12
6.63555e-12
-3.97019e-13
0
6.472e-12
-2.58629e-12
3.15602e-12
-1.24091e-13
1.44806e-12
-1.5007e-12
1.95188e-12
3.21788e-12
-5.23279e-13
0
6.33009e-13
-2.06605e-12
4.13873e-12
-6.32016e-13
-1.82349e-13
-1.25566e-14
-1.22774e-13
2.89331e-13
-3.65356e-13
3.61962e-12
-9.72762e-13
-7.12136e-12
1.35784e-13
-1.48619e-11
-4.57205e-12
1.9427e-12
2.10906e-13
1.99539e-15
-1.52035e-12
-4.37829e-12
-5.75724e-12
-1.02951e-13
1.34121e-13
9.77623e-13
-1.75087e-12
3.95714e-13
1.26167e-12
2.21437e-13
-4.18318e-13
-9.60599e-13
-4.26553e-12
-9.49509e-14
-8.06962e-14
-3.31283e-12
7.94782e-12
-1.85867e-12
9.92021e-12
-7.80946e-13
-2.63778e-12
-4.08016e-12
0
2.96481e-12
-2.051e-12
-3.0173e-11
8.49383e-13
-2.30072e-12
1.35149e-12
-1.3358e-12
4.13201e-12
6.70826e-12
-5.35017e-12
7.33144e-13
-1.68653e-12
-8.53215e-12
1.5398e-11
1.16698e-12
-3.20157e-12
1.02859e-11
-3.09316e-13
-1.19823e-12
4.82455e-12
1.58489e-14
-7.21726e-14
-5.72668e-12
5.28729e-14
-1.57391e-13
3.05361e-12
0
0
-1.72834e-12
-2.9185e-12
7.95399e-13
0
7.74793e-12
-1.45719e-12
-9.88981e-13
2.09427e-12
1.80247e-11
-6.88527e-12
1.09918e-13
-1.02105e-12
8.24638e-13
-1.79932e-11
4.48951e-12
1.99269e-12
-2.42893e-13
1.62605e-12
-5.14098e-13
1.62877e-13
3.06974e-12
6.76726e-12
1.48365e-11
0
-1.23853e-12
-4.42094e-12
-1.15199e-12
-3.38144e-12
1.31962e-12
7.90424e-13
-2.50391e-12
-1.43636e-13
-1.82387e-12
1.57278e-13
2.88077e-12
-1.45405e-12
-5.06493e-12
3.2713e-13
8.2435e-12
-4.66959e-12
1.2832e-13
2.50513e-12
1.94088e-13
4.91411e-12
4.48937e-12
-8.48409e-13
0
1.01927e-15
2.56691e-12
-1.36749e-12
7.90815e-12
8.48592e-13
2.72429e-12
2.01568e-12
4.71806e-14
-4.5511e-13
-5.27269e-13
-1.85328e-12
6.32572e-12
1.25565e-12
2.40915e-12
-3.0426e-12
-6.62603e-13
9.72895e-14
3.78054e-12
-2.8593e-12
-5.42865e-14
2.56702e-15
-3.67973e-15
-4.49537e-12
-7.04827e-12
7.79517e-13
-1.03602e-12
1.20944e-12
3.10117e-13
1.09835e-13
0
2.7835e-12
-2.26649e-12
-2.31545e-12
4.82302e-13
-8.24177e-12
1.42043e-12
-1.54811e-12
-2.86256e-13
7.39864e-13
-2.30359e-12
7.00026e-13
-4.65091e-13
-3.51199e-13
-1.87853e-13
-9.26791e-13
1.96069e-12
1.00629e-13
2.64769e-12
-1.01936e-12
-1.08597e-12
-2.99793e-12
-7.13507e-13
3.70821e-13
-1.49775e-13
2.06092e-13
-4.11722e-13
0
2.51991e-12
1.34645e-13
-3.29198e-13
-4.45261e-12
2.91742e-12
0
0
-8.84057e-13
-3.93396e-12
1.81476e-11
2.71112e-12
-7.49025e-13
7.4899e-13
1.98569e-12
-1.17884e-12
-4.38591e-13
3.57201e-12
4.89997e-12
4.77164e-12
3.1369e-12
-9.40995e-13
4.09762e-12
5.44081e-13
1.14347e-15
1.91381e-15
-3.6036e-12
-1.28761e-13
-2.56131e-12
-2.58926e-12
-2.1104e-12
6.37457e-12
-2.37693e-12
5.07532e-12
6.33109e-13
-3.12781e-12
-4.70537e-13
-2.55333e-13
-1.2644e-11
7.31805e-13
4.11714e-11
-1.00616e-11
-6.67186e-13
1.56013e-12
5.75265e-12
1.34465e-12
-6.62184e-12
-8.23329e-13
2.048e-13
-3.24695e-12
-6.20301e-13
-1.19033e-12
-7.79678e-12
7.171e-13
3.38625e-12
-4.34076e-12
1.63037e-12
-7.465e-12
-1.36833e-13
2.22787e-12
3.43192e-12
1.99592e-12
2.75849e-11
2.7497e-12
3.21971e-12
3.59655e-14
-4.33744e-14
1.79048e-13
2.88911e-14
-2.5813e-13
2.67167e-12
7.6936e-13
2.33783e-12
3.75313e-11
3.15542e-13
-1.76701e-12
3.82341e-12
8.72776e-12
7.29215e-13
-1.77513e-12
-5.75158e-12
8.4757e-13
2.6289e-12
-9.91018e-13
1.23914e-11
-1.856e-12
7.89088e-12
2.49575e-12
-3.6547e-12
7.88871e-13
5.48408e-12
-1.13431e-12
-8.05733e-12
-1.90192e-14
3.34894e-14
-1.37807e-12
1.47646e-12
-7.19445e-13
-3.08171e-12
2.31662e-12
3.4143e-13
-2.55113e-12
-1.75134e-11
0
1.58767e-12
1.20916e-12
1.07737e-13
9.08191e-12
0
-1.6113e-12
2.85207e-14
-1.43238e-12
-1.98167e-12
3.40679e-12
3.19032e-12
6.92881e-12
-1.85058e-12
-5.55976e-12
-3.68468e-12
1.01205e-12
2.13063e-12
-1.87967e-12
1.5312e-13
9.57127e-14
6.48626e-13
-5.50065e-12
1.08788e-13
1.33429e-12
-1.2809e-12
3.85272e-13
-1.0787e-12
1.98078e-12
4.23369e-12
1.06743e-11
-3.78901e-12
1.10554e-12
-1.59796e-12
-2.58613e-12
-8.12467e-12
-2.47651e-12
-1.92206e-13
3.98988e-12
-5.09832e-12
0
5.87102e-12
-1.64821e-13
-1.81901e-12
-5.78176e-12
-8.07575e-14
6.54425e-12
2.25481e-12
1.61556e-11
1.29397e-11
3.46598e-12
-7.14605e-12
-3.37047e-13
7.00091e-13
7.36305e-15
4.63382e-12
2.99805e-12
5.99939e-13
-1.16028e-12
1.24006e-13
3.7524e-12
-1.00786e-12
4.16626e-14
-4.8681e-14
-1.9083e-12
4.54592e-12
-1.53455e-13
8.15242e-14
-2.89146e-12
7.56685e-13
1.4796e-12
1.22501e-12
-3.30576e-12
-2.06462e-13
2.43266e-12
-1.53128e-12
1.56611e-12
4.58646e-12
9.04745e-13
-1.49025e-12
2.05273e-12
-2.83403e-12
-5.97183e-12
-6.59676e-12
4.20559e-12
-2.46556e-13
2.50487e-12
-3.01968e-12
0
6.88791e-13
-3.41011e-12
1.63172e-12
-1.46943e-11
-3.79057e-12
0
2.74115e-12
-3.09887e-12
3.57704e-12
-3.91679e-12
1.27712e-12
3.16961e-11
3.28742e-11
6.37731e-12
6.55991e-13
2.14131e-14
-1.55439e-14
-6.48824e-12
-7.80032e-13
1.41882e-12
-1.37723e-12
-8.41103e-13
6.81718e-13
1.5832e-12
2.25648e-12
7.97023e-13
0
2.68756e-15
5.46025e-12
3.24443e-12
3.60429e-13
6.33944e-12
1.73926e-12
2.63462e-13
-1.64751e-13
-1.02372e-11
-1.96318e-11
4.38311e-12
-2.70815e-12
2.1044e-12
-3.19477e-12
-6.89194e-13
-1.36804e-12
-8.70942e-13
-7.00934e-14
-1.14548e-12
-1.49145e-12
2.1049e-12
8.07038e-13
1.49644e-12
1.12067e-11
2.29732e-12
-2.3684e-13
1.47255e-13
1.77584e-12
-4.55826e-13
1.22949e-12
-1.18353e-14
-1.02508e-14
4.93658e-12
-3.9289e-12
-1.03025e-12
-2.78044e-12
1.00209e-13
-2.06036e-13
2.59414e-12
-5.16055e-14
1.57823e-13
-4.32283e-12
-2.41152e-12
8.04662e-13
6.19385e-12
0
1.84452e-12
-6.40426e-12
2.90937e-13
2.09752e-12
6.88734e-12
2.02765e-13
2.07643e-13
-4.05735e-12
2.33225e-11
-5.22817e-12
-4.80454e-12
4.45122e-12
2.35859e-12
1.6574e-12
-1.45432e-12
-3.15402e-12
1.52679e-12
4.6176e-15
7.78449e-15
-5.0168e-13
-1.8234e-13
1.07764e-12
6.30245e-12
-1.66097e-13
4.78587e-13
-3.89509e-12
-1.96803e-12
3.97815e-12
4.11287e-12
-2.65019e-12
3.95754e-12
-3.0732e-12
1.8767e-12
-1.9799e-12
-2.38671e-12
-7.88861e-12
-6.24223e-12
-3.88091e-12
3.12372e-12
-9.75626e-12
-1.73443e-12
2.37672e-12
5.50044e-13
-1.86742e-11
3.24526e-12
-1.90196e-13
4.63986e-13
-2.79689e-13
2.30995e-12
-6.01396e-13
-5.12954e-12
-3.58384e-12
-1.87195e-12
5.62856e-12
1.10496e-11
5.19782e-12
-4.20779e-12
2.6121e-12
-1.96457e-12
0
1.02489e-11
1.84774e-11
0
-5.05525e-12
1.39446e-12
2.04462e-12
1.87432e-12
3.45344e-13
1.10028e-11
-1.275e-12
1.76183e-12
4.55879e-15
1.82769e-13
-7.44382e-13
-1.7762e-14
4.17526e-13
-2.37585e-13
1.20963e-14
-1.76909e-12
4.01216e-13
-5.4622e-12
1.98794e-12
-2.59306e-13
4.35144e-12
1.37071e-12
1.86365e-12
-5.09902e-12
-2.21576e-12
-1.18941e-12
1.01689e-11
-1.34258e-12
-2.29188e-13
3.7488e-12
-1.08841e-13
8.67668e-14
-8.63133e-12
2.298e-11
0
-2.78588e-12
5.51457e-14
-5.51022e-14
-1.7528e-14
1.71828e-14
-9.43699e-14
9.29381e-12
-1.31099e-11
0
0
-3.69976e-13
-1.69581e-12
-1.98067e-11
1.70579e-13
-1.19982e-13
-2.65252e-13