/*--------------------------------*- C++ -*----------------------------------*\
| =========                 |                                                 |
| \\      /  F ield         | OpenFOAM: The Open Source CFD Toolbox           |
|  \\    /   O peration     | Version:  v3.0+                                 |
|   \\  /    A nd           | Web:      www.OpenFOAM.com                      |
|    \\/     M anipulation  |                                                 |
\*---------------------------------------------------------------------------*/
FoamFile
{
    version     2.0;
    format      ascii;
    class       volScalarField;
    location    "4000";
    object      sigmayy;
}
// * * * * * * * * * * * * * * * * * * * * * * * * * * * * * * * * * * * * * //

dimensions      [1 -1 -2 0 0 0 0];

internalField   nonuniform List<scalar> 
27023
(
-1.37836e+07
1.37923e+07
1.09825e+07
-1.09772e+07
-1.29557e+07
1.29638e+07
4.91114e+06
-4.9087e+06
7.72863e+06
-7.73003e+06
7.64412e+06
-7.64144e+06
2.06404e+06
-2.06298e+06
-718299
115433
421500
-1.25442e+06
1.2537e+06
1.95351e+06
-1.94825e+06
4.199e+06
-4.19676e+06
6.29297e+06
-6.2867e+06
712795
-4.50225e+06
-23223.4
-4.92643e+06
-131357
911515
1.93977e+06
-1.93654e+06
-93979.2
-780280
114428
3.31762e+06
-3.31563e+06
7.22243e+06
-7.22258e+06
-1.16291e+07
1.1635e+07
-173846
-1.27102e+07
1.27185e+07
1.17374e+06
-1.17399e+06
4.87912e+06
-4.87191e+06
-146621
4.5952e+06
-4.5882e+06
-70852.2
557532
-554290
170013
242889
-47335.9
32090.7
1.20733e+07
-1.20672e+07
61228.8
229351
-140006
-76094.5
986938
1.26847e+06
772998
-3.80308e+06
-193103
3.48558e+06
-3.48353e+06
5.9558e+06
-5.95041e+06
119118
-119165
911803
-910314
-1.42223e+06
1.42268e+06
-3.32319e+06
7.248e+06
-7.24514e+06
6.29384e+06
-6.28828e+06
13956.5
-13876.4
-1.23663e+06
174712
59528.8
161975
1.14204e+07
-1.14124e+07
2.06799e+06
-446404
-5.90583e+06
5.91066e+06
-3.44293e+06
-167763
-36830.8
-4520.33
-113188
385777
6.18244e+06
-6.17829e+06
-138951
4.68573e+06
-4.68302e+06
380309
337508
-152398
5.53908e+06
-5.53608e+06
5.81611e+06
-5.81134e+06
151760
-151588
-1.12651e+06
-2.289e+06
-2.12217e+06
316233
30599.7
-1.14362e+07
1.14413e+07
2.11948e+06
-2.11847e+06
1.0717e+07
-1.07091e+07
6.68483e+06
-6.68023e+06
-151616
-1.10636e+06
1.01619e+06
-1.08653e+06
197930
-162775
162796
1.21791e+06
1.83851e+06
-1.8382e+06
-6.34234e+06
6.34598e+06
-712558
5.22301e+06
-5.22016e+06
-796177
11850.5
5.38499e+06
1.27639e+06
1.4962e+07
-1.49531e+07
1.09635e+07
-1.09555e+07
-7804.52
-2.00923e+06
-326514
559358
810707
1.85465e+06
-1.85417e+06
186426
-22235.8
-39151.6
367316
-1.01796e+07
1.01853e+07
-6.27265e+06
6.27686e+06
-2.45865e+06
217960
156424
-1.65056e+06
1.65105e+06
142967
271617
-442766
138064
-1.09366e+06
131459
1.61915e+06
-1.29142e+06
-5.567e+06
5.57046e+06
199345
-224985
-333244
-6.04241e+06
6.0491e+06
-27792.6
15985
-7.13922e+06
7.14335e+06
-3.23547e+06
9983.19
3.30368e+06
-3.30246e+06
-23901.7
-6.9861e+06
6.99001e+06
-2.39792e+06
759374
-4.02086e+06
-13152.2
13381.8
-1.13625e+07
1.13699e+07
-1.86417e+06
-124813
100993
-100901
101025
-100448
1.52001e+06
-2.04938e+06
-1.65103e+06
1.65133e+06
-3.67073e+06
461218
45278.7
-619839
620016
-62186.3
-1.0177e+07
1.01814e+07
-46099.9
2.1167e+06
-2.11569e+06
6.30225e+06
-6.29669e+06
4.2208e+06
-4.22188e+06
-394399
1.75621e+06
-1.75554e+06
-74917
576342
-576273
104826
266764
-3.91635e+06
3.91783e+06
4.70115e+06
72323.1
142234
-556526
1.32333e+06
467220
-4.00956e+06
-84380.3
-438846
-3.44969e+06
3.45134e+06
123119
-2.21462e+06
-2795
-143806
8414.38
-139973
1.89379e+06
-1.89264e+06
-1.5166e+06
737118
391976
564914
-564702
4.6269e+06
-4.62443e+06
206519
-1.44067e+06
1.07309e+07
-1.07265e+07
595826
-883524
58184.5
169593
-101570
-9.50462e+06
9.50982e+06
-1.30659e+06
1.3003e+06
-250288
-12624.9
-154684
34842.5
-760357
764463
-62309.4
-158092
414954
4.33601e+06
-282477
-176118
-3.61842e+06
3.62032e+06
14075
-14140.2
76164.8
86666.9
76206.6
-75501.3
2.09896e+06
541193
-6.16514e+06
6.16923e+06
2.30556e+06
2.44642e+06
-2.4504e+06
4.214e+06
273455
364400
511049
459013
-456797
5.94263e+06
-5.94458e+06
145020
-3.28373e+06
3.28646e+06
125439
117861
2.56637e+06
-2.57041e+06
-5.40523e+06
61502.6
2.19115e+06
-47394.5
-102598
14061
4.7029e+06
-5.38984e+06
-2.34073e+06
5.30617e+06
410109
649964
207416
-1.62134e+07
1.62235e+07
-1.26385e+06
797419
5.94399e+06
-5.93996e+06
444288
-464132
119061
-118388
-3.53043e+06
1.57074e+07
-1.56973e+07
353007
310568
-351458
312983
1.61872e+06
-1.61796e+06
156373
-154860
-133399
-2.71402e+06
2.71523e+06
-60649.5
-3.16789e+06
-179340
180190
-7.02588e+06
7.02946e+06
-213772
167987
-596666
-1.22672e+07
1.22762e+07
-1.66362e+06
1.66421e+06
-902316
-405840
1.20979e+06
154242
-364243
-4.69965e+06
-62511.4
3.81077e+06
57238.3
-3.80901e+06
4.54288e+06
-4.54066e+06
-4.1375e+06
1.80648e+06
118789
40733.2
-5.67498e+06
1.03841e+06
-3.39464e+06
34353.5
3.31896e+06
147010
100939
71433.8
369914
382186
-22356.3
-323438
6.66248e+06
-6.65668e+06
1.80489e+06
-3.75842e+06
-367679
-1.13197e+07
1.13284e+07
-134231
522614
-5.71693e+06
67499.2
5.72833e+06
787894
-783637
-437825
33069.5
3.47359e+06
342788
-196727
-418139
2.64586e+06
-25085.7
-2.66018e+06
579105
61235.8
200033
-184180
184734
-285167
-10203.6
-878755
-4.37461e+06
396410
-395995
-5.58987e+06
5.59587e+06
-70840.8
-1.76748e+06
1.04461e+07
-1.04434e+07
161035
-156960
2.7485e+06
-2.74627e+06
-273199
274685
-2.42343e+06
61479.7
-363369
283098
775230
-7.99534e+06
7.99921e+06
-6.91365e+06
6.91744e+06
680348
-675302
1.34297e+07
-1.34214e+07
-1.79562e+06
448044
-472186
-191957
3.19642e+06
236487
-145618
-2.84709e+06
2.84871e+06
-110225
128605
173567
-117846
107746
-4.97751e+06
-1.11615e+06
4.12276e+06
-4.12024e+06
198595
38709.7
7.68681e+06
-7.68457e+06
1.79198e+06
-1.79118e+06
64658.1
1.9726e+06
-1.45336e+06
-2.07341e+06
-27615.1
-610059
-8.28006e+06
8.28278e+06
-283759
4.03834e+06
126859
-3.07522e+06
3.07796e+06
1.55519e+07
-1.55416e+07
3.37094e+06
-295288
-272767
-5.17592e+06
5.18395e+06
35690.1
-837874
4.0946e+06
-4.08804e+06
-4.41844e+06
6.1502e+06
-6.14716e+06
6.78846e+06
-6.78534e+06
-5.7437e+06
-1.25695e+07
1.25752e+07
-250789
-214188
516983
-516516
-334813
157920
-157526
-570450
-5.17841e+06
5.18155e+06
-1.33578e+06
1.33242e+06
-820938
1.64873e+07
-1.64789e+07
-301631
36349
-606127
-1.51854e+06
6.86571e+06
-6.85796e+06
-2.78441e+06
2.78539e+06
-91753.8
195957
4.71284e+06
-34473.2
-5.29732e+06
-4.96976e+06
-109099
-1.0824e+07
1.08271e+07
157483
-177712
177752
35729.1
-4363.43
-6.0676e+06
6.07202e+06
-3.82999e+06
-188991
179769
244733
-825562
202994
-4.44972e+06
-190326
4.5633e+06
-4.55558e+06
-67921.8
93041.1
2.02604e+06
-2.02499e+06
188959
-1.74176e+06
1.74602e+06
-281153
1.72309e+07
-1.72202e+07
-7.18861e+06
7.19246e+06
-1.84182e+07
1.84288e+07
-258126
-4.59028e+06
4.56027e+06
163013
-1.48523e+07
1.48611e+07
107355
1.77644e+06
-2.17522e+06
-19324.3
-61892.4
160369
-864451
-76776.3
6.1098e+06
-6.10408e+06
-160175
6.01956e+06
-6.01344e+06
305515
-6.07828e+06
6.08427e+06
-451639
48733.7
-1.71625e+06
1.71858e+06
474928
-474589
87638.7
3.17493e+06
4.99834e+06
4.35805e+06
-4.35428e+06
995957
-995598
-338124
-193742
176203
-88125.9
3.51744e+06
-3.51715e+06
-333721
3654.65
-78870.7
79342.3
-3667.2
-268140
1.823e+06
-1.81759e+06
-1.24036e+07
1.24113e+07
-1.09732e+07
1.09812e+07
1.75911e+07
-1.75804e+07
1.17885e+06
6.25604e+06
-6.24955e+06
-170218
40051.5
-6.53176e+06
6.53862e+06
-158669
4.99262e+06
-4.98781e+06
129189
-1.4058e+06
14716.4
-1.85204e+07
1.85311e+07
30347.3
-68777.8
-123692
163845
-4.95076e+06
4.95401e+06
721364
5.16299e+06
-2.86125e+06
2.86229e+06
-253247
254538
653679
-651130
377357
153544
135071
-135061
-4.06085e+06
-5.13719e+06
-1.05884e+06
-689218
3.75671e+06
965561
-83090.3
-1.89974e+06
-1.65326e+06
58919.1
2.69548e+06
177437
-285239
-685910
479941
589708
-587544
6.12699e+06
-6.12142e+06
2.93087e+06
-420537
4745.35
153016
79638
-57987.9
-5.44738e+06
-183843
469328
15697.6
-1.47158e+06
8.18153e+06
-8.17562e+06
5.0071e+06
76269.1
-14926.6
-54945.1
4.15225e+06
-4.15006e+06
-106430
107049
497292
-494444
159941
-754349
-716031
-615313
-5.28086e+06
5.29421e+06
295133
8.67519e+06
-8.6745e+06
-705439
705634
-292677
5.25515e+06
-5.25134e+06
1.15818e+06
-43468.8
-45658.1
193798
247.861
89437.8
639064
-638824
-107514
-1.24551e+06
5.9191e+06
-5.91565e+06
-81799.7
87790.1
-3.52647e+06
-83745.8
-800888
863145
142606
1.04366e+06
45628
34375.5
-102545
-2.64563e+06
-115742
-1.03318e+06
3.61531e+06
-3.60602e+06
-58722.7
59224.1
103067
439342
-4.5874e+06
4.59014e+06
-114255
-356762
-411582
901905
-143129
1.66982e+07
-1.66875e+07
-336398
5.43133e+06
-5.42209e+06
-229900
230108
167676
-98587.6
-979762
108884
8.16204e+06
-8.15994e+06
-197980
311836
230418
74834
170195
-4.18486e+06
-1.64117e+06
-1.91141e+06
343957
81032.6
-81071.5
8.10479e+06
-8.10155e+06
133471
-181165
-550552
-509927
420394
-420464
29191.3
101491
-13835
106298
321328
2.51947e+06
-2.52159e+06
-928522
-286595
4.83731e+06
-4.83454e+06
-490896
48695.8
762515
1.30833e+06
-1.30796e+06
-3.76787e+06
3.7772e+06
-4.61565e+06
-8.46549e+06
8.47126e+06
156251
-82032.6
-112582
-206320
602993
-602783
262753
-2.93079e+06
2.93343e+06
22880.4
-22303.5
-4.08868e+06
4.22124e+06
1.40256e+07
-1.40171e+07
-5.72344e+06
5.72695e+06
778945
-210947
4.71391e+06
-4.71112e+06
-127534
-637393
1.11554e+07
-1.11477e+07
910976
-910787
-6.08047e+06
-4.79739e+06
4.80032e+06
-296592
296495
6.08404e+06
268778
230526
-376307
1.37848e+06
-1.37846e+06
41804.8
475376
995293
-37857.4
3.45879e+06
5.43165e+06
-158113
5.19855e+06
-5.1912e+06
58611.3
1.94455e+06
-14890.9
416689
-417276
-60376.4
-249342
722163
-720872
-4.12955e+06
-4.9051e+06
-250924
5.21463e+06
-5.21194e+06
-6.14584e+06
-283109
-5.8268e+06
-196882
1.49582e+07
-1.49493e+07
169034
2.98216e+06
6.14052e+06
-117106
155920
5.83705e+06
190962
1.0231e+07
-1.02232e+07
-272435
273201
45063.3
-2.15764e+06
39375.8
6.86043e+06
-6.85683e+06
-2.89954e+06
2.90122e+06
-130088
319695
1.38004e+06
-1.3802e+06
-73724.7
3.97256e+06
-3.97261e+06
-391846
-1.54708e+06
125019
-54029.3
197048
-120408
863688
-1.11266e+06
59468
459916
-459785
-353681
509586
832840
-268069
115372
-503839
-741248
-211141
414049
468362
2.28465e+06
-3.92234e+06
3.07613e+06
-172184
-204829
-195475
-1.12229e+07
1.12264e+07
3.8577e+06
-2.20969e+06
2.20884e+06
-908134
-1.40384e+06
6.54941e+06
-6.54204e+06
1.40978e+06
2.03855e+06
-2.03641e+06
-3.30878e+06
-87046.3
1.55769e+06
-3.93714e+06
5.47416e+06
3.24274e+06
-155471
4.42159e+06
218251
136764
1.43227e+07
-1.43133e+07
460088
-1.52174e+06
2.74043e+06
-2.7415e+06
5.53216e+06
162317
362268
287982
-2.30756e+06
2.31605e+06
-24505.9
-1.04508e+06
-386512
-1.54686e+06
1.54779e+06
-199483
-9256.4
360203
4119.86
-2.07504e+06
-88960.8
3.74046e+06
149096
-2.14031e+06
2.1444e+06
13846.1
-203473
522292
508321
37286.6
-7.80864e+06
7.81105e+06
479797
-1.57618e+06
53700.5
-1.15752e+07
1.15791e+07
-480.436
1.08923e+06
-199577
-3.11902e+06
3.12082e+06
-1.02436e+06
-5.53675e+06
5.58107e+06
8.80368e+06
-8.79852e+06
-16187
-1.03842e+06
959184
-957977
-3.85247e+06
1.83559e+06
-261408
582171
-582011
-534332
5.91331e+06
-5.91082e+06
-341075
-294925
-1.23375e+06
-6.95864e+06
-3.7449e+06
-76639.5
6.95979e+06
396267
525138
-1.56526e+06
-2.45496e+06
2.46014e+06
3.48276e+06
-3.73672e+06
319524
4.00143e+06
230178
-94191.9
-28929.9
-220671
-2.91663e+06
-188295
34822.1
982076
-1.08033e+06
-131955
-237755
698594
-178588
135009
-1.56681e+06
151948
201558
-1.60039e+07
1.60124e+07
666767
-545128
-2.08673e+06
2.09141e+06
2.45854e+06
-2.45734e+06
-94165.1
-258373
72367.2
-1.57069e+06
1.57443e+06
398757
-398710
157941
411643
-22110.1
-1.05273e+06
-442744
-296254
-967142
293770
4861.93
6.29791e+06
-6.29108e+06
4.29505e+06
-4.18465e+06
1.98025e+06
486013
519826
-519471
1.07416e+06
1.5962e+06
3.9824e+06
68399.2
-139620
172284
27616.4
-251327
-131579
-264619
-117043
-159285
6.50706e+06
-6.50024e+06
-220517
1.30875e+06
3.25229e+06
-83929.4
-84186.7
796793
-795419
-3.53665e+06
17003.4
-6.23646e+06
6.23608e+06
6.96472e+06
-6.96461e+06
872414
-369949
197930
543912
-7.45166e+06
7.4555e+06
2.99838e+06
-3.00158e+06
1.4447e+06
495469
-495336
-467156
171590
-863952
229736
-228405
-3.63674e+06
-2.18798e+06
245799
-414717
-6.40606e+06
6.41037e+06
4.00176e+06
-108175
106796
11312.2
353045
-116616
4.54085e+06
-4.52486e+06
-507933
507982
-992475
-5.07737e+06
5.09713e+06
-2.82766e+06
2.82916e+06
1.88275e+06
30718.9
398123
190368
4.68172e+06
-4.67561e+06
-804115
-1.70226e+06
-53858.5
11638.1
-1.34637e+07
1.34731e+07
176174
905212
56179.3
2.62793e+06
-2.62669e+06
-183906
-1.18111e+06
-54490.6
-67221.5
5.13585e+06
-5.13297e+06
104436
5.12612e+06
-5.12093e+06
178654
-65477.3
208312
-201304
4.4679e+06
541841
63653.1
-422305
-91015.8
1.85177e+06
-1.72912e+06
454570
-451385
97531.1
5.51467e+06
-5.51449e+06
7.9238e+06
-7.9204e+06
-57193.9
7.21568e+06
-7.21198e+06
-1.14762e+07
1.1482e+07
-159916
159858
19043.7
395153
-395044
-459084
676699
-2.04814e+06
-1.22813e+06
-152964
75306.8
43907.4
-41850.5
-3.72812e+06
3.72988e+06
940181
-128379
148691
175032
-331326
129940
-131440
-451845
56172.9
5.31672e+06
-5.31754e+06
84680.3
-4.68003e+06
-54080.7
-88388.5
-2.55253e+06
-2.18518e+06
4.85225e+06
-4.85013e+06
4.45432e+06
-173192
-782197
875239
-281416
234710
-83379.5
-5.82623e+06
5.83391e+06
110336
-1.3809e+06
3.62897e+06
-5.05348e+06
5.68924e+06
85597.2
5.04887e+06
-152025
339085
2.78878e+06
2.78428e+06
-1.77909e+06
1.04283e+06
185746
15719.6
-38519.6
-20507.4
364013
-3.62708e+06
97489
281940
-281512
88432.1
1.14468e+06
-1.74243e+06
-2.05282e+06
379332
-6.86872e+06
873531
-243160
126003
191753
6.86716e+06
365320
-788239
777655
-147295
33201.7
-25346.9
-150259
769778
-767797
163408
-7.21638e+06
7.21899e+06
238633
7.2541e+06
-7.24976e+06
743843
1.63024e+07
-1.62921e+07
206053
143519
-527446
230029
-229785
387187
-7992.92
-212682
-367597
7.82353e+06
-7.82018e+06
-4.51854e+06
1.52868e+06
1.28344e+06
-147994
2.60165e+06
-2.60128e+06
539747
-536701
749735
37122.6
1.51152e+07
-1.51063e+07
5.70938e+06
-5.70542e+06
-6935.57
397166
1.70191e+06
6.58748e+06
-6.58213e+06
-154544
-867853
871903
93503.4
-87516.7
-5.27412e+06
5.27715e+06
145315
711879
-711765
7.72699e+06
-7.72338e+06
-520354
-114297
-832629
39876.8
3.60245e+06
636016
-35404.7
1.94618e+06
4.852e+06
-115736
790236
-110417
454635
-454356
-2.42435e+06
-1.14956e+07
1.1501e+07
4.92001e+06
-4.91757e+06
-1.29709e+06
-5.92002e+06
5.92682e+06
2.25991e+06
-2.2518e+06
-832754
2.46764e+06
-2.45445e+06
92714.6
-202138
202851
52437.5
-113454
-419041
209878
4.35011e+06
-4.40925e+06
229471
145531
-2.21935e+06
-183192
-271947
274028
-3.44592e+06
3.44742e+06
60685.1
328352
6.88455e+06
-6.88126e+06
-96239.8
3.79982e+06
106966
-1.07436e+06
904554
4.72353e+06
-343623
-326255
10129.7
-6.0823e+06
6.08531e+06
-2.10608e+06
2.1109e+06
-1.67557e+06
1.67554e+06
1.47394e+06
-1.46112e+06
-24278.1
199764
38415.9
197895
-3.80185e+06
-759008
3.88684e+06
-3.88814e+06
-44811.8
85822.4
1.69964e+06
-5.16685e+06
5.17163e+06
3.01539e+06
452460
-2716.13
4.99957e+06
-4.99485e+06
-5.23406e+06
-173324
-1.16691e+06
1.16648e+06
-2.93386e+06
-6.24389e+06
6.25039e+06
-271390
-2.27199e+06
-5.06647e+06
-120189
-869225
784258
50982.4
1.47508e+06
9.35712e+06
-9.34911e+06
-46997.3
1.1538e+07
-1.15306e+07
1.10503e+06
5.28639e+06
-5.28211e+06
-1.43217e+07
1.43312e+07
-89431.7
-1.49756e+06
1.4992e+06
-845718
845858
62917
-3.59136e+06
163259
1.30849e+07
-1.30769e+07
-108864
-347560
-4.43316e+06
4.42289e+06
140215
1.03133e+07
-1.03086e+07
1.8318e+06
-89986.3
-12678.7
12821.2
-982869
986457
-7.77382e+06
5.86552e+06
-5.86158e+06
181184
2.56028e+06
-2.56406e+06
3.49977e+06
-3.5005e+06
272902
3.57393e+06
9.10079e+06
-9.09648e+06
-3.46356e+06
3.46497e+06
1.76819e+06
165951
-1.0359e+07
1.03613e+07
632857
182465
-181341
151439
-151478
-3.14256e+06
1.18274e+07
-1.18225e+07
521205
-5.27786e+06
5.28136e+06
-2.70841e+06
-848839
-1.32009e+06
1.32053e+06
-7.84026e+06
7.84417e+06
-1.64237e+06
333673
-158874
2.76181e+06
-190675
-1.12047e+06
2.97833e+06
4.14742e+06
69509.5
-270521
-2.09075e+06
2.09152e+06
537895
-537666
186614
-56061.9
-975.351
233153
177136
-18437.6
-26932
77149.1
67520.9
2.42945e+06
-2.42587e+06
-1.41234e+07
1.41327e+07
964421
27449.6
-3.57374e+06
-174041
-185067
1.23107e+06
-1.98638e+06
-868504
2.85556e+06
-2.85399e+06
276226
-3.95723e+06
3.96155e+06
-1.87528e+06
-7.42857e+06
7.43198e+06
-6.28285e+06
6.28671e+06
-2.05639e+06
-6.2636e+06
6.26968e+06
2.03198e+06
-2.03133e+06
6.57081e+06
-6.56566e+06
1.69327e+07
-1.69228e+07
-47366.9
1.83817e+06
1.02092e+06
-348816
-1.20723e+07
1.20812e+07
-6.32753e+06
6.33346e+06
-53562.9
-377936
-1.89818e+06
222189
-222140
1.17847e+06
190592
-313244
-1.67071e+06
-376643
-87819.8
-360983
3.8313e+06
-3.83023e+06
-364430
-481727
841853
2.80041e+06
-2.80082e+06
96438.4
583784
1.69279e+06
-969330
-171368
114783
-55572.2
1.23213e+07
-1.23148e+07
2.39007e+06
-2.38884e+06
1.1084e+07
-1.1077e+07
-46052.3
96685.2
-177636
1.97187e+06
-2.8057e+06
104826
-63869.4
227159
979910
-1.15443e+06
1.15368e+06
6.10474e+06
-6.10679e+06
642301
2.28122e+06
-942830
943705
1.8302e+07
-1.82915e+07
56512.5
-56268.6
-2.08025e+06
-92952.8
140355
625310
-195488
189732
-566462
566728
194451
-1238.69
7.12817e+06
-7.1265e+06
-349206
237400
571575
-258271
-272035
164545
4.30315e+06
-4.35777e+06
1.14215e+07
-1.14138e+07
-240187
1.96563e+06
-1.96486e+06
7.74347e+06
-7.74064e+06
-133231
4.71558e+06
-4.74428e+06
-9.14217e+06
9.14812e+06
-1.69849e+06
-216591
-5.83683e+06
-3.12276e+06
3.12454e+06
-1.00334e+07
1.00358e+07
126030
5.95199e+06
-5.88024e+06
5.88674e+06
151604
-246769
-3.74226e+06
3.74406e+06
-39361.7
134884
-153427
548760
-6.35066e+06
-5.85229e+06
5.8576e+06
3.18829e+06
5.63097e+06
-5.62649e+06
1.12179e+06
2.08798e+06
6.3497e+06
-5.52497e+06
5.53166e+06
-1.58473e+06
2.96686e+06
42739
1.39391e+06
-1.39347e+06
820683
1.36289e+06
4.13745e+06
-4.13326e+06
76898.5
-1.90273e+06
1.90603e+06
7.76546e+06
2.00429e+06
-1.95579e+06
2.26451e+06
-2.26162e+06
1.33573e+06
-1.07686e+06
-200092
-213381
168603
-1.9462e+06
-533714
-128584
3.18781e+06
145507
-1.55306e+06
1.0087e+07
-1.00827e+07
-3.55134e+06
3.7902e+06
-3.79184e+06
6.64203e+06
-6.63744e+06
738435
-7.21327e+06
7.21732e+06
990613
587068
157772
-2.12134e+06
2.12066e+06
729991
-3.46083e+06
3.46336e+06
-3.89343e+06
13975.5
4.88106e+06
-289969
-130471
-318551
-996902
998183
1.35861e+07
-1.35778e+07
57638.6
144429
2.39336e+06
-6.53519e+06
6.54033e+06
-28893.8
3.04513e+06
-3.04477e+06
272181
-243460
243460
-347960
2.7932e+06
-663605
-1.17572e+06
1.08696e+06
2.8052e+06
-2.80325e+06
-2.96599e+06
185363
317389
-13730.2
-195058
-688176
-26862.3
-739342
354830
-1.22294e+06
2.81065e+06
-2.81142e+06
251867
1.11767e+07
-1.11713e+07
307333
-301800
372985
-289252
310943
-2.70526e+06
4.82882e+06
80040.9
128308
28881.8
-24557.6
879834
-7338.65
-329056
40085.6
-1.95225e+06
1.95365e+06
5.68516e+06
-5.68492e+06
1.44169e+06
-920564
2.1054e+06
-3.14386e+06
3.14576e+06
-250457
-16216.1
73685.9
-5.81952e+06
5.82378e+06
2.08704e+06
233900
-277552
124047
-79277.6
-262497
264621
243269
-10337.1
-372177
-2.1647e+06
470336
4.82722e+06
-4.82175e+06
-6.67744e+06
6.68388e+06
2.91759e+06
68815
474519
-474402
-6.62964e+06
6.6365e+06
12220.1
2.57023e+06
138543
1.19488e+06
180375
103301
615162
322946
-395609
-1.84511e+07
1.84618e+07
-82124.1
1.37972e+07
-1.3788e+07
2.63209e+06
-2.63842e+06
4.60782e+06
-584047
465490
-1.94172e+06
1.51702e+06
-27569.1
-2.0265e+06
-3.41367e+06
6.86698e+06
-6.86972e+06
-3.50758e+06
3.41346e+06
-2.87566e+06
2.87813e+06
1.47609e+06
-279549
-15191.2
385650
1.2724e+07
-1.27157e+07
390386
-5.91482e+06
5.91853e+06
3.61363e+06
144837
-2.39744e+06
176184
5.94234e+06
-5.9349e+06
1.27189e+06
182140
29238.8
-191502
191888
-383238
380690
4.08376e+06
-4.35177e+06
-117560
-935149
1.0082e+06
286388
8031.74
-132755
228077
-9095.93
-6.53236e+06
6.53894e+06
-189777
305771
-5.74842e+06
5.75349e+06
121937
-5.84381e+06
-34810.9
-1.87296e+06
5.85441e+06
-36673.2
37212.8
102722
4.73509e+06
-7.03851e+06
7.04488e+06
4.33484e+06
-260725
-8149.98
45399.3
-44234.7
1.71913e+06
7.17344e+06
-7.16942e+06
-128862
72934.2
28730.5
253218
-74418.6
-295895
-305761
1.35692e+06
-1.35481e+06
251972
-103609
833430
982415
-981650
5.01806e+06
-5.10301e+06
5.10893e+06
5.9123e+06
-5.90915e+06
-1.81404e+07
1.81509e+07
270880
1.84967e+06
-1.90908e+06
-158527
100232
2.74462e+06
-544354
-2.80428e+06
-3.95614e+06
252275
-231621
-3.72226e+06
3.72503e+06
-355071
-4.04873e+06
412248
1.85168e+06
-176907
-70436
-120936
194683
7.4635e+06
-7.46021e+06
-231042
28109.3
-1.47023e+06
1.46637e+06
-307147
-240753
-16455.1
409.597
-64542.2
64071.4
419931
1.98131e+06
-1.97916e+06
-223811
-6.82754e+06
6.8322e+06
-323744
-4.64296e+06
97241
4.63237e+06
159055
-143495
566591
-1.95863e+06
-655414
-19451.3
-6.68545e+06
6.68998e+06
403866
-321383
-75144.8
420922
-4.38144e+06
4.38331e+06
1.7396e+07
-1.7385e+07
-3.44525e+06
-553068
-495094
-6.16438e+06
6.17083e+06
124224
-123574
-121032
-270159
3.68899e+06
133082
3.44314e+06
1.42672e+06
-5.54467e+06
5.55081e+06
-822099
92863.9
-4.05221e+06
-169798
-337498
-3.1151e+06
2.71209e+06
-2.70985e+06
-519985
-243157
243203
370371
-368553
182356
4.25171e+06
-68949.7
-4.42098e+06
-816509
819339
-705999
3.57099e+06
-191436
4.06969e+06
-202411
-1.15227e+06
1.15269e+06
319784
-1.68047e+07
1.68136e+07
-4.20213e+06
4.20431e+06
69834
269207
-267536
-10950.5
-159138
159162
-3.3955e+06
3.39859e+06
-9.88883e+06
9.89079e+06
22866.9
1.80572e+06
1.52652e+06
-1.52616e+06
-151547
-142055
5.4021e+06
-5.39608e+06
-1.17355e+06
-13927
6.03704e+06
-6.03284e+06
-2.36857e+06
5.81617e+06
-5.8159e+06
141843
88610.9
-1.20706e+06
6.3905e+06
-6.38751e+06
101985
2.21854e+06
-2.21464e+06
-5.87153e+06
5.87737e+06
3.90001e+06
-3.90043e+06
2.2842e+06
-1140.6
-3.127e+06
3.12719e+06
-2.82035e+06
2.8226e+06
-1.82842e+06
-727506
1.05562e+06
706826
26057.2
1.11159e+06
1.0166e+07
-1.01619e+07
5.14098e+06
-5.13676e+06
-3.33047e+06
3.33175e+06
-114517
-1.65279e+06
1.45237e+06
3.95283e+06
-3.94979e+06
-4.07518e+06
-603155
606241
-112653
-173411
2.3316e+06
-2.31686e+06
-346172
-277135
202018
-40594.1
41004.7
-137326
-4.81646e+06
4.80804e+06
114167
1.27727e+06
-351997
163207
-8.25968e+06
8.2615e+06
192833
-4.45905e+06
439611
-1.19247e+07
1.19323e+07
582041
4.88361e+06
-4.87976e+06
-214507
-3.16335e+06
-770171
29205.8
-2.39724e+06
-34562.6
-968422
968492
413142
-414715
508661
-3.71102e+06
3.71288e+06
-1.93332e+06
-1.46224e+06
1.93551e+06
-3.2968e+06
3.30392e+06
2.47481e+06
-1.12382e+06
-35298.1
638140
-2.45399e+06
1.84971e+06
314054
-317963
615962
-4.01103e+06
-248532
-1.57647e+06
-90763.7
268143
-433908
1.03136e+06
156996
-101077
-2.93705e+06
2.93831e+06
-644802
645024
-251002
1.7136e+06
-1.6968e+06
-885091
-1.61441e+06
2.46704e+06
-242306
1.21118e+06
50239.1
-624938
727561
-1.00065e+06
1.00097e+06
-1.81129e+06
-102492
214871
1.80682e+07
-1.80569e+07
17620.3
177569
894911
59285.2
140369
-986799
453488
167524
-2.5175e+06
41787.7
30381.6
-30442.9
1.83305e+06
-1.87133e+06
227480
470507
5.55998e+06
-5.5619e+06
2.11238e+06
210543
1.80846e+06
-4.74001e+06
4.74556e+06
41567.4
220714
5.03036e+06
-2.44956e+06
369300
-137582
396923
-106629
71240.3
84113.8
121817
114775
1.97202e+06
-20883.4
222541
-222117
-1.86824e+06
1.87228e+06
428067
-421955
260982
-259048
3.12019e+06
-8.82516e+06
8.83327e+06
-86215.6
223096
-49224.1
2.91228e+06
-4.79471e+06
-3.62351e+06
217471
-1.064e+06
1.06192e+06
-3.00851e+06
3.01018e+06
-6.74427e+06
6.74277e+06
53681.3
-6.03469e+06
211518
-165952
-203683
3.59354e+06
-76452.8
-190296
359379
-11301
6.03942e+06
-268824
817476
5.94045e+06
-57417
63388.6
-228198
379335
-1.25544e+06
1.37508e+06
-1.3748e+06
5.03024e+06
-5.02553e+06
-3.35942e+06
591469
-360019
-2.32414e+06
2.32588e+06
2.34594e+06
280006
-140556
135090
100579
-105797
-98811.1
-773675
1.12488e+06
-1.11376e+06
216832
-4.62219e+06
-116776
-188951
-5.8714e+06
5.88315e+06
-661790
4.24987e+06
-4.24523e+06
295463
-294894
-320737
5.01887e+06
-5.01443e+06
-94557.3
-311668
-132630
-1.07595e+06
-904572
910258
-5.23962e+06
5.24493e+06
100463
507015
4.69421e+06
6.39996e+06
-6.39607e+06
6.34062e+06
-6.33509e+06
798797
-5.67062e+06
5.6751e+06
3.35916e+06
-167641
-1.69776e+06
1.69836e+06
-2.20391e+06
219326
216517
1.21645e+06
29868.4
-30568.9
-4.59931e+06
4.60456e+06
-3.0026e+06
3.00553e+06
5.58756e+06
-5.5881e+06
105475
3.0416e+06
-3.04201e+06
-261208
-8160.52
-15810
4.14642e+06
-4.14213e+06
566633
-6263.77
894335
-394667
-820.347
-1.40624e+07
1.40708e+07
-531709
381476
-218142
-6.39505e+06
6.3988e+06
61357.3
372931
-380260
4.78077e+06
-4.77353e+06
-11190.4
10979.9
2.87828e+06
2.58924e+06
2.79298e+06
102306
4.3264e+06
2.78154e+06
-2.8764e+06
-2.33567e+06
1.52104e+06
-1.52045e+06
436092
338699
-338117
322251
-1.70004e+06
1.7011e+06
38158.3
-69068.6
-5.85513e+06
5.8596e+06
-346466
2.14472e+06
5.74091e+06
2.05903e+06
-58888.5
-5.13971e+06
5.1454e+06
1.30783e+06
-1.29435e+06
-1.66487e+06
-34552.9
5768.85
166675
-308086
372660
-392449
-1.69165e+06
-417895
418115
-5.9755e+06
5.98031e+06
-209117
-736295
710410
141229
73063.7
314541
-293934
45713
-56840.2
65355.5
-70826.3
-2590.4
1.2063e+06
-3.3932e+06
-189695
4.34299e+06
-4.33803e+06
632649
-3.61806e+06
3.61997e+06
1.2133e+06
-1.2141e+06
-4.4334e+06
-163886
-948535
43080.3
140592
1.23977e+06
-1.23938e+06
-253184
-61392.1
1.92884e+06
-230380
907729
-905197
-63994.4
319303
6.49809e+06
-6.49144e+06
-1.35522e+07
1.35609e+07
-2.50004e+06
2.50104e+06
-5.76302e+06
743463
-201642
5.74282e+06
233375
4.12102e+06
-4.0948e+06
386011
-6.14632e+06
6.15444e+06
-3.91796e+06
-260793
254867
38380.4
2.75563e+06
237447
4.27267e+06
330075
-1.21809e+06
-86374.6
-801271
801421
4.85595e+06
-6.84703e+06
6.85252e+06
-2.21272e+06
2.21372e+06
1.15576e+06
3.37359e+06
-6.60483e+06
6.61164e+06
-142552
14644.8
2.31609e+06
4.59727e+06
-2.71915e+06
311214
8.27097e+06
-8.26316e+06
119105
1.01052e+07
-1.01038e+07
-85260.2
85262.3
-4.8112e+06
-5.53216e+06
-58469.1
-4.12976e+06
5.51135e+06
-244874
1.18886e+06
-1.1863e+06
5.38226e+06
-5.37688e+06
-341225
-2.39113e+06
-465194
293337
-3.30846e+06
236158
-234831
6.10402e+06
64562.1
-32344.9
37742.8
3304.18
-3.15221e+06
3.15488e+06
66432.7
-249479
249424
1.40876e+06
2.16027e+06
-2.15897e+06
-189177
3.01191e+06
420886
1.51582e+07
-1.51484e+07
99966.8
-115759
-42537.4
-163502
-804568
108328
392379
-1.05182e+06
-6.85932e+06
6.8633e+06
275396
248817
54594.5
66714.6
-2.90571e+06
140691
249371
-313593
-1.18801e+07
1.1886e+07
-6.35843e+06
-119838
6.33754e+06
1.49663e+06
1.66684e+07
-1.66586e+07
203104
-6.68334e+06
-313582
6.62163e+06
1.22184e+06
-1.22413e+06
-1.04832e+06
1.04833e+06
152991
-164647
289386
-115454
4.1442e+06
-4.13934e+06
-74408.1
-2.42276e+06
-531054
427480
828380
4.57592e+06
-4.5782e+06
-1.25544e+06
-288876
-722717
-6.43476e+06
6.43946e+06
4.83748e+06
-4.83976e+06
-24940
5568.98
1321.74
-119132
-664739
-434649
770836
-770571
74320.6
30920.2
984771
113811
167861
-1.58599e+06
1.58674e+06
73515.8
3.0062e+06
-73421.3
-5.43329e+06
5.44054e+06
2.30607e+06
-2.30209e+06
-3.54083e+06
-182084
4.36674e+06
-4.37242e+06
-745369
-3.03598e+06
238032
698776
-2.18897e+06
6.81435e+06
-6.8078e+06
-123319
-2.73173e+06
-1.32421e+06
1.31842e+06
1.23983e+06
-1.23782e+06
284633
6.69678e+06
-6.6895e+06
1.15096e+07
-1.15015e+07
344678
-335871
-3.36406e+06
-1.57947e+06
897733
-205356
5.51548e+06
-5.51528e+06
34978.6
-6.71156e+06
6.7213e+06
309990
461456
-22109.3
2.57892e+06
-2.58423e+06
42363.9
-553166
-60864.6
160086
-4432.82
-2.18487e+06
2.18573e+06
-309687
950441
2.33246e+06
8.10522e+06
-8.10202e+06
-1.69764e+07
1.69864e+07
-3.60307e+06
-2.28139e+06
-6.03713e+06
6.04577e+06
-1.80929e+07
1.81033e+07
-4.62229e+06
4.62235e+06
-3.28957e+06
3.29136e+06
803374
1.2151e+06
1.49364e+07
-1.49281e+07
106453
1.34977e+06
-1.34931e+06
1.85082e+06
184180
253679
1.80958e+06
-1.80917e+06
5.04981e+06
-3.27872e+06
312535
-159079
4.98649e+06
2.19949e+06
-107816
261991
-1.62684e+06
7.17555e+06
-7.17154e+06
9.1027e+06
-9.10052e+06
3.53953e+06
-3.5372e+06
-5.04576e+06
1.41252e+06
-1.41117e+06
-1.24313e+06
1.24099e+06
43644.6
45274.9
-213455
196515
6.26506e+06
-6.25773e+06
-2.8892e+06
2.89053e+06
1.84594e+07
-1.84486e+07
98684.5
-569895
-79913
372465
-345974
-1.58502e+06
1.58768e+06
-36478.5
-75717.8
-2.01537e+06
71682.5
-1.32101e+06
-4.98264e+06
-6.3822e+06
6.38726e+06
-2.11028e+06
150499
-63655.7
-5.00234e+06
5.00897e+06
301469
4.03032e+06
-4.02569e+06
-55670
-1.05174e+06
-766392
-399017
399076
-421358
1.25917e+07
-1.25839e+07
-3.08608e+06
748878
445459
2.78386e+06
-41072.4
-26575.6
183371
-182432
-1.59491e+06
75594
-794526
-1.45949e+06
4.9583e+06
5.20756e+06
240268
2.29504e+06
-1.85292e+06
1.78119e+06
107093
-105177
-6.25623e+06
1.70839e+06
1.15549e+06
47302.7
-233930
1.44924e+07
-1.44837e+07
2.03264e+06
6.23561e+06
637184
-635464
-970333
904794
-904685
-4.89224e+06
4.89849e+06
556185
-1.73672e+07
1.7377e+07
222109
3.81111e+06
76969.5
40199.1
236155
2.58644e+06
-2.58908e+06
208521
5.58923e+06
-5.58776e+06
-158353
115464
43133.4
-42892.6
-2.11929e+06
-757482
-349247
1.41332e+07
-1.41236e+07
2.16052e+06
-184521
777616
360212
1.37832e+06
-1.37777e+06
7.55266e+06
-7.54878e+06
56220.2
-317227
-1.32982e+06
236995
1.10638e+06
2.04083e+06
411161
-413201
441867
-82027.1
170018
104456
-345899
108532
230443
-366953
665213
9.54185e+06
-9.5341e+06
-56748.1
-5.42071e+06
5.42747e+06
-1.8304e+06
1.83159e+06
96928
-5.10006e+06
5.10561e+06
-2.53311e+06
-3.16855e+06
5.38179e+06
686372
317402
-333242
299905
-6.58308e+06
6.5905e+06
1.67957e+06
105181
-104441
1.62114e+07
-1.6201e+07
-1273.73
-6.24284e+06
6.29945e+06
48726
323962
299384
4.66743e+06
-4.66471e+06
-2.19814e+06
-81023.6
3.08167e+06
-3.07994e+06
-181850
10336
-76714.1
1.72005e+06
-6.93413e+06
6.93928e+06
1.60737e+06
216477
12274.8
-1.24573e+06
7.81299e+06
-7.8068e+06
-980.018
5.8306e+06
-5.70326e+06
-3.70564e+06
7.53516e+06
-7.53007e+06
5.70962e+06
241385
1.20102e+06
-227002
1.54966e+06
-1.54918e+06
964396
-662819
5.64375e+06
-5.63977e+06
4.4086e+06
-4.40862e+06
206461
154852
-5.7548e+06
61150.3
-1.01228e+07
1.01304e+07
-9383.15
281161
49183.8
-51908.6
-2.17053e+06
-5.20527e+06
5.21623e+06
198726
26572.4
-445643
405845
-317639
1.27753e+07
-1.27668e+07