/*--------------------------------*- C++ -*----------------------------------*\
| =========                 |                                                 |
| \\      /  F ield         | OpenFOAM: The Open Source CFD Toolbox           |
|  \\    /   O peration     | Version:  v3.0+                                 |
|   \\  /    A nd           | Web:      www.OpenFOAM.com                      |
|    \\/     M anipulation  |                                                 |
\*---------------------------------------------------------------------------*/
FoamFile
{
    version     2.0;
    format      ascii;
    class       volScalarField;
    location    "4000";
    object      sigmazz;
}
// * * * * * * * * * * * * * * * * * * * * * * * * * * * * * * * * * * * * * //

dimensions      [1 -1 -2 0 0 0 0];

internalField   nonuniform List<scalar> 
27023
(
-7.66699e+06
7.67181e+06
5.46444e+06
-5.46137e+06
-7.5041e+06
7.50879e+06
2.42327e+07
-2.42236e+07
2.94921e+06
-2.94799e+06
1.85609e+07
-1.85523e+07
698893
-702666
-6.82897e+06
574256
474496
-1.45695e+07
1.45778e+07
1.09435e+07
-1.09343e+07
2.39243e+07
-2.39152e+07
1.32629e+07
-1.32552e+07
2.0195e+06
-9.29704e+06
860671
-9.29479e+06
7.88327e+06
4.04629e+06
1.09494e+07
-1.09411e+07
-1.06555e+07
-6.77761e+06
8.29304e+06
1.03565e+07
-1.03469e+07
2.78118e+06
-2.78041e+06
-5.61692e+06
5.6202e+06
-5.41142e+06
-7.24271e+06
7.24738e+06
1.43692e+07
-1.43607e+07
1.22787e+07
-1.22692e+07
7.28321e+06
1.18207e+07
-1.18113e+07
-1.03885e+07
138458
-137654
1.17298e+07
4.93722e+06
8.63865e+06
-3.9484e+06
5.60645e+06
-5.60334e+06
7.20467e+06
1.1728e+06
1.25019e+06
-5.23242e+06
3.63669e+06
9.62244e+06
2.47422e+06
-9.24004e+06
-5.05681e+06
9.99336e+06
-9.98367e+06
1.74206e+07
-1.74122e+07
2.12407e+07
-2.12327e+07
265375
-264545
-2.53599e+07
2.53685e+07
-7.03288e+06
1.78998e+07
-1.78912e+07
1.70919e+07
-1.70835e+07
-2.25087e+07
2.25166e+07
-9.5783e+06
936168
-4.16714e+06
4.05088e+06
8.15185e+06
-8.14662e+06
5.16345e+06
-2.01177e+06
-1.31952e+07
1.32014e+07
-7.04791e+06
-4.20876e+06
193662
-6.81664e+06
-4.2966e+06
4.44116e+06
2.02172e+07
-2.02088e+07
721019
2.20486e+07
-2.204e+07
1.16309e+07
8.17393e+06
4.91654e+06
2.23262e+07
-2.23176e+07
1.3022e+07
-1.30149e+07
2.14329e+07
-2.14249e+07
4.8773e+06
-9.02341e+06
-6.82158e+06
5.1949e+06
546592
-2.01952e+07
2.02044e+07
2.53156e+07
-2.53065e+07
7.88455e+06
-7.87933e+06
2.06495e+07
-2.06409e+07
-3.86545e+06
-733219
718593
-3.84904e+06
4.46688e+06
-2.26144e+07
2.26224e+07
2.48076e+06
1.50923e+07
-1.50837e+07
-2.30921e+07
2.31014e+07
-1.69098e+06
2.35557e+07
-2.35467e+07
-3.79624e+06
-3.93509e+06
1.19836e+07
9.79615e+06
1.26974e+07
-1.269e+07
1.39739e+07
-1.39664e+07
-6.4216e+06
-7.27889e+06
-7.09678e+06
7.14788e+06
6.89141e+06
1.49219e+07
-1.49132e+07
-1.30478e+07
-5.42435e+06
-1.12988e+07
874397
-1.59406e+07
1.59488e+07
-2.10967e+07
2.11057e+07
-5.05075e+06
519267
1.30195e+06
-2.55654e+07
2.55739e+07
-4.56452e+06
4.64983e+06
-7.26635e+06
617681
-1.68377e+06
-4.66442e+06
2.69378e+06
-9.82856e+06
-2.19228e+07
2.19318e+07
-7.07749e+06
-1.30714e+07
-1.39405e+07
-1.26108e+07
1.26175e+07
-1.18639e+07
-4.22799e+06
-2.13054e+07
2.13144e+07
-6.76658e+06
1.00868e+06
2.57661e+07
-2.57571e+07
-1.46829e+07
-2.06188e+07
2.06279e+07
-8.53554e+06
7.26745e+06
-9.41727e+06
2.07949e+07
-2.07867e+07
-6.86657e+06
6.87099e+06
-5.79177e+06
-1.45094e+07
2.07805e+07
-2.07723e+07
30924.5
-30735.5
4.89716e+06
-6.1918e+06
-2.83152e+06
2.83358e+06
-7.90027e+06
657644
1.4944e+06
-2.23304e+07
2.23385e+07
-3.86364e+06
-1.99883e+07
1.99974e+07
-6.68298e+06
2.0072e+07
-2.00636e+07
1.76475e+07
-1.76392e+07
1.46767e+06
-1.46789e+06
951641
2.05648e+07
-2.05565e+07
-1.33789e+07
1.96618e+07
-1.96537e+07
2.15377e+07
8.13252e+06
-2.5175e+07
2.5184e+07
9.75805e+06
1.38013e+07
1.37195e+07
-1.10274e+07
5.3715e+06
180053
-8.45928e+06
1.1371e+07
-1.07684e+07
-2.39768e+07
2.39855e+07
-4.92431e+06
-4.23633e+06
-1.45544e+07
-1.4772e+07
1.77438e+07
-1.3533e+07
1.22114e+07
-1.22027e+07
4.26475e+06
978085
1.25319e+07
2.02046e+07
-2.01965e+07
2.32189e+07
-2.321e+07
1.72085e+06
-3.52881e+06
1.98445e+07
-1.98354e+07
8.78565e+06
-5.23606e+06
-9.36766e+06
2.24447e+06
1.26931e+06
-1.59488e+07
1.5957e+07
-1.2043e+07
1.20504e+07
9.80328e+06
-1.21676e+07
2.39532e+06
-2.37037e+06
-193999
194902
-5.05478e+06
-6.31828e+06
3.00049e+06
1.10824e+07
490480
-4.88516e+06
-2.00107e+07
2.00192e+07
-2.21838e+07
2.21917e+07
-1.07344e+07
1.43637e+07
-2.07543e+07
2.07624e+07
847570
1.9941e+06
-2.07122e+07
2.07209e+07
-2.35279e+06
3.91066e+06
-3.90853e+06
8.10223e+06
7.29389e+06
-1.30363e+06
80895.7
113681
-113125
1.68122e+06
-1.68178e+06
9.75158e+06
-1.1688e+07
1.16972e+07
341471
7.08731e+06
1.06362e+06
-1.06494e+06
-1.01562e+07
-5.91969e+06
-4.19816e+06
7.31621e+06
-1.69e+07
2.25787e+06
1.10512e+07
-1.3198e+07
-4.7422e+06
1.3181e+07
-1.91081e+07
2.12142e+06
8.26393e+06
-1.11086e+07
1.11154e+07
-4.1368e+06
2.67166e+06
1.96663e+07
-1.9658e+07
-1.39828e+07
1.40477e+07
44444.1
-44182.8
-8.5619e+06
8.05489e+06
-8.04971e+06
-5.93164e+06
2.90815e+06
-1.09744e+07
1.09714e+07
2.11207e+07
-2.11124e+07
30911.5
-30538.5
1.33943e+06
-2.48176e+07
2.48262e+07
-1.27354e+06
-1.02628e+07
-2.01684e+07
2.01766e+07
-2.30041e+07
2.30136e+07
4.00431e+06
-8.70759e+06
-1.57861e+06
-9.18066e+06
9.18664e+06
-2.42964e+07
2.43047e+07
-4.22538e+06
-1.35572e+07
-4.66022e+06
-1.36218e+07
-1.36833e+07
-9.2883e+06
-8.90283e+06
9.89696e+06
6.8406e+06
-9.88669e+06
2.46069e+07
-2.45978e+07
-8.21707e+06
3.2628e+06
3.90013e+06
-1.39168e+07
-1.26366e+07
-531065
-7.8965e+06
2.64857e+06
1.03304e+07
1.02769e+06
454878
-2.05347e+06
8.79043e+06
4.80554e+06
-1.98236e+07
-9.41539e+06
1.76052e+07
-1.75969e+07
6.41902e+06
-6.73342e+06
2.68733e+06
-9.22629e+06
9.23236e+06
205647
4.83237e+06
-1.21228e+07
659823
1.21135e+07
217812
-216764
-4.13829e+06
1.1552e+07
9.54083e+06
1.42713e+07
7.58378e+06
-1.01432e+07
4.98254e+06
-1.25386e+07
2.94136e+06
1.71266e+06
1.07114e+06
-1.88486e+07
-2.02495e+07
2.02575e+07
-1.76218e+07
1.65235e+06
1.32781e+07
-7.89736e+06
1.95901e+07
-1.95819e+07
-1.53127e+07
1.53212e+07
1.40599e+07
876338
3.78388e+06
-3.78273e+06
-1.76909e+07
1.76864e+07
1.31916e+07
-1.31827e+07
-64941.4
65298.1
-4.95436e+06
-3.1014e+06
-1.13096e+07
-1.09452e+06
-2.79914e+06
-2.13191e+07
2.13284e+07
-2.06581e+07
2.06674e+07
1.25552e+07
-1.25462e+07
1.37842e+07
-1.37766e+07
-3.12354e+06
184566
-2.84453e+06
-1.08526e+07
5.72707e+06
1.32263e+07
-4.5505e+06
-2.48602e+07
2.48694e+07
-1.19067e+07
6.04715e+06
3.07551e+06
1.58949e+07
1.37215e+07
-1.05456e+07
-3.64824e+06
2.03777e+07
-2.03691e+07
-5.37181e+06
5.44485e+06
5.03441e+06
-5.0315e+06
2.03424e+07
-2.0334e+07
535354
3.34453e+06
-3.70657e+06
3.8753e+06
1.91987e+07
1.92765e+06
-1.865e+07
1.86587e+07
-7.79096e+06
1.05896e+07
646261
-1.17406e+07
1.17499e+07
9.27603e+06
-9.27017e+06
7.91689e+06
-1.66017e+07
-9.66419e+06
-7.91689e+06
7.92278e+06
-1.06094e+07
-1.93078e+06
1.07015e+07
-1.06914e+07
-9.26747e+06
2.38276e+07
-2.38174e+07
1.85877e+07
-1.8579e+07
-1.24439e+07
-1.82441e+07
1.82528e+07
-5.62148e+06
-7.95899e+06
1.8533e+07
-1.85247e+07
-1.42581e+07
-2.03431e+07
2.03511e+07
1.16795e+07
-1.97001e+07
1.97084e+07
-1.20596e+07
1.20682e+07
-3.01105e+06
1.58893e+07
-1.58813e+07
-9.55131e+06
-1.90884e+06
-2.40238e+06
-3.4741e+06
1.52801e+07
-1.52721e+07
-2.36846e+07
2.3693e+07
-8.65141e+06
-1.4469e+07
9.29632e+06
873689
-1.11503e+07
-1.02686e+07
4.90284e+06
-3.81457e+06
3.81582e+06
-1.6798e+07
-2.23705e+07
2.23784e+07
8.56081e+06
876302
-2.00245e+07
2.0033e+07
-1.02323e+07
-1.14348e+07
1.14365e+07
175228
1.15731e+06
-3.30873e+06
-8.83511e+06
-7.38772e+06
1.06458e+07
-1.06355e+07
-1.0232e+07
-212965
1.68118e+07
-1.68032e+07
3.79154e+06
-1.07067e+07
1.07151e+07
-3.07211e+06
1.04911e+07
-1.04847e+07
-2.00796e+07
2.00885e+07
-1.18488e+07
1.18557e+07
1.13238e+07
-8.71973e+06
8.70362e+06
1.12565e+07
-1.28767e+07
1.28841e+07
-7.92386e+06
4.22248e+06
-4.85102e+06
-1.18991e+07
863345
-2.18924e+06
-4.3398e+06
-1.88737e+07
1.25058e+07
-1.24977e+07
8.67574e+06
1.26945e+07
-1.26867e+07
-8.15931e+06
-1.67865e+07
1.6795e+07
-3.08452e+06
-781350
-1.08965e+07
1.09047e+07
1.92568e+07
-1.92486e+07
1.46337e+07
6.15596e+06
9.95272e+06
1.70669e+07
-1.70581e+07
2.1942e+07
-2.19339e+07
6.83478e+06
-5.46197e+06
2.81818e+06
-2.86926e+06
8.62441e+06
-8.61299e+06
-8.89474e+06
-52146.3
-116652
117338
52457.4
-5.49177e+06
629681
-629872
-1.22383e+07
1.22454e+07
-7.48021e+06
7.48519e+06
1.04298e+07
-1.04235e+07
1.68422e+06
1.53742e+07
-1.53661e+07
-1.13024e+07
-5.32943e+06
-1.46631e+07
1.46711e+07
-6.78478e+06
1.63512e+07
-1.63425e+07
-8.79962e+06
-6.98124e+06
1.37857e+07
-1.13438e+07
1.13505e+07
1.35495e+07
997870
-37231.7
-6.39675e+06
-2.01815e+07
2.019e+07
-1.70697e+06
1.20604e+07
-2.47899e+07
2.47985e+07
-60041.6
60352.3
1.23384e+07
-1.2331e+07
1.06396e+07
-1.64284e+06
2.41859e+07
-2.4178e+07
-8.08045e+06
-1.21189e+07
1.74201e+06
4.60499e+06
1.01699e+07
8.1386e+06
4.36697e+06
-856770
-3.53182e+06
-1.31555e+07
9.12236e+06
1.24872e+07
-1.19502e+07
-6.21231e+06
-4.86731e+06
157718
-157240
1.67477e+07
-1.67393e+07
9.78776e+06
-838624
-5.33065e+06
-1.88452e+06
1.088e+07
1.1643e+07
-1.22169e+07
-1.22449e+06
7.67063e+06
-8.28067e+06
-3.18312e+06
6.94687e+06
-6.94225e+06
1.09766e+07
1.53106e+07
-1.45564e+06
-7.62033e+06
2.03517e+07
-2.03432e+07
-2.10067e+07
2.1015e+07
119446
-118827
-994485
-1.58918e+06
-6.23354e+06
-892819
-1.13487e+07
1.1358e+07
6.67587e+06
2.99265e+06
-2.99228e+06
-2.24273e+07
2.24355e+07
-1.75177e+07
1.8439e+07
-1.84306e+07
-2.78247e+06
1.38451e+07
-8.70305e+06
-4.99293e+06
1.37353e+07
1.55337e+06
1.84121e+07
-1.84039e+07
7.32035e+06
-2.42881e+06
2.26757e+07
-2.26661e+07
-7.36327e+06
-1.96955e+07
-6.64995e+06
1.97041e+07
5.01732e+06
-4.99063e+06
9.97334e+06
7.51478e+06
-1.04037e+07
-410518
-1.0441e+07
-5.50417e+06
1.82318e+07
-3.6336e+06
7.30972e+06
-7.30345e+06
-2.09235e+07
2.09317e+07
5.28491e+06
1.55135e+06
-1.96194e+07
1.96278e+07
-1.14944e+07
9.37012e+06
7.58532e+06
3.87161e+06
8.51483e+06
8.34776e+06
-8.34246e+06
-3.05023e+06
1.17328e+07
-1.17238e+07
-2.07368e+07
2.07449e+07
279412
-7.90957e+06
-1.68797e+06
-1.82199e+07
1.73343e+07
-1.73258e+07
7.73996e+06
972736
-5.49408e+06
-1.23728e+07
-5.03266e+06
-8.43068e+06
-3.26094e+06
-7.83101e+06
8.85094e+06
2.10774e+07
-2.10694e+07
1.89802e+07
-1.89714e+07
1.37641e+07
-1.35502e+07
-3.17385e+06
1.24075e+06
2.05721e+07
-2.05641e+07
-1.43536e+07
-1.29971e+07
380312
-5.29717e+06
1.70574e+06
1.36445e+06
-1.36325e+06
-5.77988e+06
-2.26867e+06
2.35065e+07
-2.34973e+07
-699919
5.94716e+06
-958579
2.5143e+07
-2.51347e+07
-8.30017e+06
8.3077e+06
-9.90312e+06
-6.45115e+06
6.45551e+06
-3.02756e+06
-1.41649e+06
698451
1.27821e+06
1.9252e+07
-1.92438e+07
-2.65679e+06
-1.15052e+07
1.15142e+07
2.1433e+07
-2.14245e+07
-8.19943e+06
8.19021e+06
1.39432e+07
-1.39356e+07
-2.27736e+07
2.27831e+07
2.66155e+06
-1.35296e+07
2.30909e+07
-2.30817e+07
-1.41307e+07
-1.19357e+06
1.32092e+07
-1.3202e+07
1.72188e+07
-1.72105e+07
-1.34979e+07
-2.02373e+07
2.02459e+07
-2.35382e+07
2.35459e+07
1.35029e+07
5.8538e+06
8.38161e+06
3.66399e+06
1.53014e+07
-1.52928e+07
-1.88253e+07
1.26025e+06
1.69444e+06
1.88333e+07
6.858e+06
1.09853e+07
-8.39755e+06
1.16286e+07
-1.16201e+07
230499
3.2394e+06
-1.01366e+07
1.5162e+07
-1.51675e+07
5.85091e+06
-724603
193809
-193167
-8.55252e+06
-9.86152e+06
-7.04264e+06
2.31706e+07
-2.31617e+07
-1.41575e+07
-1.04532e+07
-1.38114e+07
6.41441e+06
1.36611e+07
-1.36534e+07
-1.33711e+07
5.80642e+06
1.41704e+07
-7.44175e+06
7.51136e+06
1.38191e+07
-1.23679e+07
1.32516e+07
-1.32441e+07
-1.87716e+07
1.87798e+07
1.21733e+07
-4.84162e+06
7.89807e+06
1.91322e+07
-1.91233e+07
-1.78263e+07
1.78349e+07
-6529.79
-6.35708e+06
1.53921e+07
-1.53836e+07
-8.72607e+06
2.60843e+06
-2.60753e+06
-6.97451e+06
-7.40872e+06
1.89387e+07
-1.13723e+07
-1.18494e+07
-1.42701e+07
7.9162e+06
-8.48953e+06
-2.74003e+06
2.16739e+07
-2.16659e+07
-1.26769e+06
405767
3.99493e+06
-8.43096e+06
-3.54212e+06
-2.10896e+06
-1.356e+06
7.86193e+06
-6.17809e+06
676894
3.75542e+06
-8.43706e+06
6.89633e+06
-1.7301e+07
4.24085e+06
-4.47616e+06
-3.94221e+06
3.94361e+06
8.28584e+06
-2.81357e+06
2.81426e+06
-6.14795e+06
-3.68646e+06
1.55431e+07
-1.5535e+07
7.87397e+06
2.14231e+06
-2.14134e+06
-7.09614e+06
-3.72199e+06
7.41137e+06
-1.01556e+07
1.18674e+07
7.49789e+06
-2.01058e+07
9.26874e+06
6.82223e+06
1.13615e+07
8.13666e+06
-8.13143e+06
2.84519e+06
-3.15395e+06
742537
-742908
1.2545e+07
-290418
8.3624e+06
6.23728e+06
-8.75373e+06
8.76366e+06
-1.39336e+07
-2.79576e+06
6.971e+06
-400713
400893
-7.91552e+06
-5.39534e+06
-74211.3
944271
-4.45002e+06
1.36201e+07
7.95176e+06
-1.01689e+07
-9.0232e+06
9.03177e+06
-1.59655e+07
-1.2517e+07
394670
1.65618e+06
-9.25007e+06
-1.6437e+07
1.64455e+07
720815
-6.67462e+06
-1.53285e+07
-4.09487e+06
4.0964e+06
-8.15531e+06
3.99861e+06
8.23436e+06
-1.99693e+07
1.99778e+07
-3.82416e+06
-1.14973e+07
1.15168e+07
1.54364e+07
-1.54278e+07
6.2192e+06
-8.56695e+06
288917
-288118
-7.71713e+06
785197
2.38207e+06
2.10977e+07
-2.10895e+07
-2.56505e+06
2.41495e+07
-2.41396e+07
1.19895e+06
9.94379e+06
-3.67764e+06
-1.65554e+07
-7.17512e+06
-2.13935e+06
1.65637e+07
1.5162e+07
1.89509e+06
-6.67864e+06
-9.54115e+06
9.55025e+06
9.51842e+06
-9.82572e+06
1.35628e+07
7.66182e+06
9.18402e+06
-2.04291e+06
1.5301e+06
-3.19641e+06
-5.79178e+06
544584
1.97212e+06
-2.88342e+06
-2.34587e+06
73838.3
8.70485e+06
5.29935e+06
-1.14103e+07
-8.30827e+06
-4.17058e+06
-1.39144e+07
1.31265e+07
-1.62269e+07
1.62351e+07
2.7349e+06
-1.17143e+06
-8.54136e+06
8.54934e+06
1.70257e+07
-1.7017e+07
-5.58525e+06
-2.24351e+06
1.12779e+07
-1.69183e+06
1.69308e+06
2.04631e+07
-2.04551e+07
1.43308e+06
406816
-7.24229e+06
-2.29793e+06
-1.77897e+06
-471283
-2.03672e+06
-373447
1.39112e+07
1.50547e+07
-1.50467e+07
8.90415e+06
-8.86034e+06
4.00473e+06
3.47738e+06
2.05481e+07
-2.05399e+07
2.05287e+06
3.97594e+06
8.92561e+06
-2.9547e+06
-1.27809e+07
-5.36684e+06
4.96775e+06
-4.21192e+06
1.51695e+07
-2.39836e+06
-4.76328e+06
1.80225e+07
1.56231e+07
-1.56149e+07
-1.61366e+07
3.07514e+06
9.68888e+06
-6.68959e+06
6.90153e+06
1.80091e+07
-1.79938e+07
-7.88476e+06
-1.84862e+07
-2.32327e+06
2.32372e+06
3.12283e+06
-3.1221e+06
5.35646e+06
7.27353e+06
-6.71778e+06
2.12033e+07
-2.10588e+07
2.10683e+07
3.71675e+06
-3.71485e+06
-3.04884e+06
2.17042e+07
-2.16961e+07
-8.75916e+06
8.57335e+06
-2.55448e+06
52246
-51930.8
-8.00977e+06
-3.91585e+06
1.71883e+07
-4.67004e+06
-2.13699e+07
2.13789e+07
8.60757e+06
1.63008e+07
-1.618e+07
6.15017e+06
4.12726e+06
-584936
9.22049e+06
-9.21034e+06
-2.03894e+07
2.03975e+07
-4.03502e+06
-1.07141e+07
1.0724e+07
-1.97391e+07
1.97475e+07
4.67071e+06
-1.02629e+07
8.72507e+06
-3.34772e+06
8.66342e+06
-8.65669e+06
-6.82348e+06
2.64362e+06
1.47724e+07
-143049
-9.41844e+06
9.42446e+06
-8.76484e+06
4.46462e+06
1.75926e+07
1.8359e+07
-1.83506e+07
1.31089e+07
-2.02847e+06
-6.71362e+06
6.56223e+06
2.31167e+07
-2.3107e+07
-9.33883e+06
1.61221e+07
-1.61134e+07
9.15874e+06
-1.46389e+07
-1.16224e+07
1.16238e+07
8.95449e+06
5.52572e+06
435595
-748094
-1.09048e+07
3.90633e+06
-3.21281e+06
120944
-120202
1.46586e+07
3.12996e+06
-3.12885e+06
1.94883e+07
-1.94795e+07
-2618.44
2.31919e+07
-2.31824e+07
-1.72134e+07
1.72217e+07
-2.31129e+07
2.31206e+07
5.97519e+06
2.13708e+07
-2.13627e+07
1.61102e+06
-6.9959e+06
-810925
-6.9227e+06
4.57392e+06
-6.24949e+06
1.65529e+07
-1.65449e+07
-5.29564e+06
5.29959e+06
4.59642e+06
-628071
374352
1.35146e+07
2.27063e+06
9.85985e+06
-1.46182e+07
2.12152e+06
-2.90189e+06
1.96264e+06
-1.96273e+06
1.36074e+07
-1.05306e+07
1.33848e+07
-8.72626e+06
-4.86508e+06
1.17751e+06
1.0238e+07
-1.02272e+07
9.97055e+06
4.86703e+06
-8.06331e+06
8.10049e+06
-3.40065e+06
-1.03629e+07
-2.06594e+07
-1.24787e+07
1.24868e+07
1.45455e+07
-7.35936e+06
9.45299e+06
-1.02887e+07
1.23593e+07
2.06679e+07
1.02926e+07
1.1449e+07
9.50434e+06
6.21669e+06
9.33838e+06
-3.2426e+06
7.81574e+06
5.71815e+06
4.32594e+06
-1.35788e+06
-4.64263e+06
8.02194e+06
-9.44201e+06
-5.21478e+06
1.68408e+07
-1.68325e+07
-1.20312e+07
3.64488e+06
-3.50599e+06
-4.11501e+06
1.4422e+07
-1.56164e+07
1.88537e+06
-1.72249e+07
-5.92565e+06
2.65661e+06
1.56246e+07
7.68594e+06
-1.13935e+07
4.9689e+06
-2.10252e+06
1.3074e+07
-1.28733e+07
8.82941e+06
204031
-203771
-1.45132e+07
-1.76482e+07
1.76568e+07
813707
2.00056e+07
-1.9997e+07
2.36135e+06
7.89857e+06
-7.89355e+06
-9.43412e+06
109726
2.07512e+06
2.23061e+07
-2.22976e+07
-966559
-1.70622e+07
1.85092e+07
-6.89854e+06
1.95405e+07
-1.95318e+07
-1.08383e+07
3.10586e+06
2.00908e+06
-1.58738e+07
9.01421e+06
-9.00763e+06
136227
-135489
1.29954e+06
5.20923e+06
1.37325e+07
-1.37248e+07
2.02038e+07
-2.01952e+07
-1.56286e+07
3.54085e+06
7.38003e+06
1.89675e+07
-1.8959e+07
812017
-249216
249991
-1.63071e+07
1.6305e+07
-2.00934e+07
2.01018e+07
-1.73511e+07
2.0513e+07
-2.05048e+07
1.49104e+07
-1.49024e+07
9.49783e+06
-4.49994e+06
-1.91532e+07
1.85622e+07
8.7792e+06
680953
-1.85539e+07
3.8583e+06
1.09345e+07
1.02526e+07
1.14042e+07
6.57014e+06
1.95155e+07
-1.95074e+07
-5.61381e+06
-1.76905e+07
1.76989e+07
2.2186e+07
-2.21775e+07
-7.64638e+06
-1.5459e+07
1.54677e+07
8.92276e+06
-8.91412e+06
-8.5125e+06
8.62051e+06
-8.60885e+06
8.30315e+06
-2.10498e+07
2.1058e+07
5.31715e+06
-3.68628e+06
-8.5269e+06
-1.53424e+06
8.31036e+06
-8.30423e+06
3.25327e+06
-7.99728e+06
3.31492e+06
-6.4303e+06
-68326
68839.7
-2.38176e+07
2.38262e+07
-3.22953e+06
5.94014e+06
2.39045e+07
-2.38948e+07
-8.87709e+06
8.64189e+06
4.24634e+06
-1.39764e+07
1.40135e+07
9.52566e+06
-609228
-1.43938e+07
1.88163e+06
-2.34749e+07
2.34842e+07
-9.59899e+06
9.60822e+06
-1.36921e+07
1.37007e+07
706947
-706843
3.73005e+06
-1.3035e+07
-2.61812e+06
-7.29299e+06
-8.63029e+06
-1.77129e+06
1.20124e+06
-1.20166e+06
-3.77977e+06
-474440
7.64812e+06
-9.58136e+06
9.58773e+06
7.25315e+06
-374636
-1.00389e+07
1.5801e+07
-1.57923e+07
-1.01788e+07
1.36546e+06
-1.50433e+07
1.50517e+07
-6.88023e+06
-1.62245e+07
1.62328e+07
-1.217e+07
-7.22508e+06
-9.58942e+06
-4.40984e+06
4.75924e+06
-4.79666e+06
1.87933e+07
4.57153e+06
1.31691e+07
-1.31617e+07
489158
1.15713e+07
-1.15643e+07
1.74772e+06
1.74256e+07
-1.74171e+07
-8.7309e+06
8.73646e+06
-922139
-5.25793e+06
5.26269e+06
-1.63773e+07
1.63857e+07
9.99171e+06
-6.7633e+06
-9.87867e+06
1.17897e+07
-1.17826e+07
9.84731e+06
-3.38751e+06
-9.92496e+06
9.93153e+06
2.22096e+06
2.1413e+07
-2.14033e+07
3.08989e+06
1.27042e+07
2.05042e+07
-2.04962e+07
-287649
288922
-2.75697e+06
1.96341e+07
-1.96257e+07
2.30276e+06
9.09073e+06
-9.08297e+06
1.72882e+06
-1.72867e+06
-187391
9.16653e+06
2.1006e+07
-2.09964e+07
-2.46696e+07
2.46783e+07
8.10579e+06
937308
-3.67476e+06
3.67579e+06
5.67104e+06
39974.6
-39717
-2.18805e+07
2.18884e+07
-6.66865e+06
4.70408e+06
-4.70192e+06
2.76314e+06
-2.00805e+07
2.00891e+07
-5.56978e+06
-2.77058e+06
-2.10026e+07
2.10108e+07
-2.07565e+07
2.07657e+07
-6.16916e+06
601835
-1.37462e+07
7.11703e+06
-4.28199e+06
-2.46336e+06
7.83595e+06
8.8701e+06
-8.90978e+06
8.87862e+06
-1.73171e+07
1.73256e+07
2.0739e+07
-2.07309e+07
1.64716e+07
-8.6717e+06
-1.92888e+06
772109
-1.93183e+07
-8.47209e+06
1.33826e+07
1.24709e+07
-1.34914e+07
1.19017e+07
-1.18926e+07
-1.02759e+07
1.02823e+07
1.91759e+06
-2.35689e+06
-9.15581e+06
358611
-896783
7.21063e+06
-8.08214e+06
-3.41234e+06
9.76369e+06
-9.75482e+06
271977
-1.11048e+07
1.11147e+07
-4.65165e+06
-2.30596e+07
2.30697e+07
-2.14259e+07
2.14347e+07
-3.51922e+06
-1.64533e+07
1.64618e+07
2.56731e+07
-2.56645e+07
1.82563e+07
-1.82481e+07
1.22612e+07
-1.2254e+07
1.82651e+07
4.89513e+06
6.03641e+06
-2.78795e+06
-1.00628e+07
1.00692e+07
-1.67111e+07
1.67194e+07
-5.23118e+06
5.02965e+06
-4.90896e+06
2.3774e+07
-2.3766e+07
9.13614e+06
-1.1985e+07
1.19562e+07
-7.34844e+06
-8.73596e+06
1.26134e+07
-3.92358e+06
8.99919e+06
-8.98118e+06
1.07045e+06
-9.10353e+06
8.4906e+06
872540
-872714
1.55164e+07
3.34219e+06
3.59052e+06
-4.78045e+06
-1.10208e+07
-1.7845e+07
4.28096e+06
5.84851e+06
-5.84507e+06
1.84737e+07
-1.84652e+07
1.18981e+07
-1.18911e+07
-5.01105e+06
4.31887e+06
4.10975e+06
2.9095e+06
-5.09916e+06
-1.5117e+07
5.53473e+06
6.12276e+06
2.90733e+06
-1.75185e+07
1.75124e+07
1.81228e+06
-1.81289e+06
4.8823e+06
4.36145e+06
-1.20059e+07
1.20139e+07
1.27244e+07
-1.2717e+07
2.19869e+07
-2.19783e+07
-6.14704e+06
-2.89186e+06
2.88623e+06
1.57483e+06
-1.59837e+07
1.61826e+07
-1.97851e+07
1.97934e+07
8.92229e+06
-337139
1.65166e+07
-1.65084e+07
-9.53565e+06
9.45562e+06
7.16422e+06
-2.85378e+06
-9.15808e+06
-4.43717e+06
8.57989e+06
-8.57568e+06
1.43563e+07
-1.43487e+07
-1.32895e+07
2.00261e+07
-2.00177e+07
1.87079e+07
-1.86993e+07
1.79618e+07
8.96534e+06
-8.96009e+06
-7.21647e+06
7.22119e+06
2.38979e+06
-5.23742e+06
-1.20422e+07
-9.02455e+06
9.03423e+06
-3.4594e+06
3.46031e+06
506900
1.19457e+07
-1.4949e+07
1.49574e+07
1.0686e+07
4.59728e+06
-2.44762e+07
2.44851e+07
4.49975e+06
1.25736e+07
-1.59302e+07
5.09465e+06
-1.56398e+07
-1.77514e+07
1.77599e+07
6.42994e+06
1.8776e+07
-1.87675e+07
3.55945e+06
6.15801e+06
1.56458e+07
-1.39687e+07
1.39775e+07
-6.86275e+06
7.61826e+06
-66183.4
2.06012e+07
-2.05929e+07
2.00166e+06
-2.71897e+06
1.26944e+07
-1.26851e+07
7.31167e+06
-8.05074e+06
8.00534e+06
2.75658e+06
1.05558e+06
-1.00778e+06
1.17316e+07
-1.17228e+07
2.67367e+06
-3.69764e+06
-7.63976e+06
1.41038e+07
-1.02828e+06
-4.35296e+06
-1.43916e+06
503130
8.1052e+06
1.71503e+07
-6.29429e+06
1.88993e+07
-1.88904e+07
-8.64374e+06
1.19843e+06
-1.19888e+06
1.92413e+07
-1.92326e+07
6.16426e+06
-2.04936e+07
2.05025e+07
7.80097e+06
1.70548e+07
-2.35463e+06
-545599
545393
1.38036e+06
-1.59971e+07
1.60057e+07
-1.07188e+07
1.05484e+06
1.12757e+07
-191849
-1.64443e+07
7.66105e+06
-5.45289e+06
5.45738e+06
1.25236e+07
-1.25163e+07
-8.62279e+06
3.9464e+06
8.08987e+06
-1.85897e+07
1.8598e+07
-1.94245e+06
1.88746e+06
-1.88679e+06
-135219
-2.06977e+07
2.07057e+07
-3.00395e+06
5.75054e+06
-7.02753e+06
5.66528e+06
-5.69695e+06
1.0227e+07
-1.0218e+07
-7.60988e+06
7.54291e+06
-9.83319e+06
9.93506e+06
1.21206e+07
-8.52722e+06
-1.25433e+07
764173
-1.54006e+07
-3.58309e+06
8.68779e+06
-8.67822e+06
-171852
5.89027e+06
-5.88692e+06
1.68786e+07
-1.6871e+07
1.39691e+07
1.88659e+07
1.336e+06
2.3102e+06
9.31228e+06
682417
-1.57001e+07
-1.51481e+07
1.04298e+07
6.72402e+06
-8.66177e+06
-2.95483e+06
8.59024e+06
-1.13778e+07
1.1386e+07
1.24778e+07
-1.24715e+07
1.40914e+07
-1.41037e+07
6.69532e+06
-1.11397e+07
1.11487e+07
1.02927e+06
-1.14882e+07
1.15243e+07
-1.85701e+07
1.85785e+07
4.8414e+06
1.17766e+07
-2.58874e+06
-8.58086e+06
-1.54634e+07
-63249.7
63762
7.5595e+06
-4.05598e+06
4.83436e+06
-4.83406e+06
2.41852e+06
9.27658e+06
-9.26978e+06
-1.58771e+07
1.58852e+07
8.45268e+06
-1.63864e+07
2.13151e+07
-2.1307e+07
-1.43141e+07
1.4322e+07
6.76104e+06
5.41449e+06
5.46101e+06
7.31298e+06
1.21074e+07
-1.20624e+07
5.02243e+06
-1.07188e+07
1.07042e+07
-1.20657e+07
1.20728e+07
1.14659e+07
8.24693e+06
-8.24165e+06
8.65301e+06
-8.64446e+06
1.1545e+07
-6.3167e+06
6.26934e+06
-4.275e+06
3.71556e+06
380398
-4.82925e+06
-8.54797e+06
2.506e+06
-2.50568e+06
-7.32002e+06
8.55921e+06
-1.39868e+07
1.39958e+07
5.57685e+06
6.81009e+06
7.2972e+06
8.57091e+06
1.04722e+07
-1.04657e+07
9.10156e+06
-2.18398e+07
2.1849e+07
9.75125e+06
8.66782e+06
-4.89237e+06
-1.3484e+07
1.35566e+07
-1.3548e+07
4.56889e+06
1.01417e+07
8.25319e+06
-1.89305e+07
1.89386e+07
1.22298e+07
-1.22269e+07
7.39626e+06
-7.84141e+06
-5.60607e+06
-1.72673e+06
6.00286e+06
5.0809e+06
6.69606e+06
-6.26369e+06
787412
-866342
-1.59499e+07
1.59582e+07
1.71385e+06
2.16969e+07
-1.69489e+07
1.69573e+07
1.39247e+07
-1.13511e+07
8.25452e+06
-7.33158e+06
1.13641e+07
-2.00039e+07
2.00119e+07
2.88977e+06
1.14958e+07
-1.66945e+07
1.67026e+07
9.63849e+06
-7.43474e+06
1.18977e+07
12997.1
-12684.2
7.78561e+06
1.96943e+07
-1.96856e+07
7.07954e+06
-476016
6.09072e+06
1.42911e+07
-1.15248e+07
-590246
-2.16883e+07
349374
-348910
-4.6036e+06
1.0078e+07
3.536e+06
262984
-262429
1.06312e+07
-1.47997e+07
1.48085e+07
2.37692e+07
-2.37599e+07
-1.16563e+07
1.16632e+07
8.36318e+06
875329
-886644
-8.44584e+06
-4.11e+06
6.58839e+06
496892
-8.22164e+06
-8.04745e+06
1.59734e+07
-1.59645e+07
-1.61017e+07
1.61105e+07
-2.05e+06
-8.8161e+06
-1.92151e+07
5.54216e+06
-9.6952e+06
-303729
9.04118e+06
9.50013e+06
2.41592e+07
-2.41491e+07
-1.52462e+07
-5.48442e+06
-1.20347e+07
1.2043e+07
-2.58616e+06
-759095
222458
6.76146e+06
-13257.6
13159
-3.60174e+06
2.39709e+06
-2.3958e+06
-199664
-2.13582e+07
2.13671e+07
-3.41144e+06
-9.69921e+06
1.13091e+07
9.70719e+06
-1.57084e+07
1.57056e+07
3.826e+06
-4.90369e+06
-8.08156e+06
1.06595e+06
-2.11438e+07
2.11526e+07
1.03243e+07
-1.03174e+07
-1.97036e+07
3.27273e+06
-2.46614e+07
2.46705e+07
8.65323e+06
-8.64773e+06
-8.40649e+06
1.55402e+07
-2.26085e+06
-1.41586e+07
1.41662e+07
2.14694e+07
-2.14611e+07
-242704
-1.28339e+06
1.00775e+07
1.85945e+07
8.41562e+06
5.07997e+06
-1.58645e+07
1.58732e+07
-3.74139e+06
5.96425e+06
-1.00157e+07
-1.3831e+07
-3.58401e+06
-9.45334e+06
1.38279e+07
-1.3819e+07
1.7288e+07
-2.12016e+07
2.12096e+07
118629
-118080
1.02274e+07
9.29502e+06
2.16569e+07
-1.11597e+07
-1.17721e+07
1.17808e+07
-1.19063e+07
8.65917e+06
-1.62042e+07
8.40147e+06
-3.8009e+06
-2.28812e+07
2.28895e+07
-1.4699e+07
-1.52061e+07
1.5214e+07
-2.4882e+07
2.48913e+07
-2.16474e+07
64186
-63779.6
7.00853e+06
-2.33322e+07
2.33401e+07
-1.3172e+07
1.31811e+07
-3.28675e+06
3.28745e+06
1.14042e+07
4.15177e+06
1.73571e+07
-1.73486e+07
-3.21714e+06
-4.74899e+06
1.55742e+07
-1.55654e+07
-9.07469e+06
-6.41699e+06
1.94657e+07
-1.94574e+07
-8.05993e+06
3.57264e+06
-3.5711e+06
1.22027e+07
49055.3
-6.73103e+06
2.45212e+07
-2.4511e+07
1.644e+07
1.1874e+07
-1.18648e+07
-9.97904e+06
9.98618e+06
1.75748e+06
-1.75738e+06
4.3813e+06
1.44758e+07
-2.16916e+06
2.16979e+06
-1.38569e+07
1.38658e+07
-4.894e+06
1.34778e+06
6.14842e+06
1.19139e+07
3.40419e+06
2.84683e+06
1.87637e+07
-1.8755e+07
1.77041e+07
-1.76955e+07
-2.58223e+07
2.58313e+07
-6.83333e+06
-8.1294e+06
8.01484e+06
1.68848e+07
-1.68761e+07
-7.29006e+06
-210875
211871
-3.32353e+06
-1.24405e+07
8.80586e+06
-8.79534e+06
-1.91315e+07
4.79989e+06
-9.93509e+06
-2.10672e+07
2.10753e+07
-6.60969e+06
-9.33213e+06
9.34053e+06
470517
6.30299e+06
-612599
-1.18663e+07
-1.68531e+07
1.68614e+07
-1.74956e+06
-7.87114e+06
2.09403e+07
-1.26384e+07
1.26457e+07
4.10146e+06
1.76671e+07
-1.76587e+07
183617
-5.7552e+06
-5.22184e+06
1.37486e+06
-4.13792e+06
1.52216e+06
-1.66366e+07
1.6645e+07
1.59271e+07
-1.59188e+07
-2.64238e+06
-2.11692e+07
2.11776e+07
-1.91541e+06
2.65952e+06
1.91457e+06
-7.20098e+06
7.20604e+06
7.90472e+06
-6.60601e+06
3.66867e+06
1.44185e+06
-7.63942e+06
5.90604e+06
1.58474e+07
-1.58398e+07
-3.88438e+06
-8.26605e+06
1.3015e+07
-5.73593e+06
-1.81247e+07
-1.45303e+07
-5.24657e+06
3.63654e+06
1.59511e+06
2.8719e+06
-2.28202e+07
2.28287e+07
-2.16814e+07
2.16895e+07
533184
983600
-982598
-9.22237e+06
-4.43455e+06
7.65162e+06
-950044
2.08292e+06
-1.6219e+07
-1.69816e+06
883037
-2.22446e+07
2.22528e+07
-5.15211e+06
1.45773e+06
1.73855e+07
9.07815e+06
-9.07242e+06
-1.48572e+07
1.80838e+07
4.41572e+06
1.27025e+07
5.3146e+06
-1.15772e+07
1.38785e+06
-1.31848e+06
-4.86921e+06
124003
-2.27915e+07
2.27994e+07
1.10443e+06
-1.11039e+06
6.033e+06
1.16523e+06
1.29642e+07
-1.29538e+07
5.73167e+06
-4.05368e+06
5.64457e+06
-1.43348e+07
1.43439e+07
1.73989e+07
-1.25604e+06
1.18698e+07
-7.89238e+06
347944
-1.39638e+07
555851
-8.34626e+06
-119704
740611
5.73102e+06
606433
5.80993e+06
-1.02644e+07
2.18898e+07
-2.18814e+07
-1.02822e+07
1.02901e+07
6.1491e+06
-6.14716e+06
2.36796e+06
-1.21191e+07
9.77555e+06
-9.13004e+06
9.13629e+06
-1.71199e+07
6.82077e+06
-566046
9.7949e+06
-9.64241e+06
-6.39328e+06
-2.99543e+06
-779947
784255
-9.4203e+06
9.43007e+06
-2.49593e+06
2.49578e+06
1.2915e+07
-1.33034e+07
5.62699e+06
-3.41277e+06
-6.86631e+06
6.34981e+06
149964
-709826
-1.08315e+06
-6.05506e+06
1.32485e+07
-560390
2.83572e+06
1.22114e+07
1.56443e+07
-1.5644e+07
9.8047e+06
-674072
-2.77323e+06
1.71179e+07
-1.71094e+07
1.65183e+07
-1.65096e+07
-8.57941e+06
-3.08786e+06
-5.84771e+06
-7.7209e+06
7.77701e+06
7.32356e+06
-6.38078e+06
-1.94388e+06
-6.31269e+06
-3.99006e+06
3.90692e+06
-2.12635e+06
-2.02114e+06
565837
-563942
2.76493e+06
-1.15067e+07
1.32297e+07
-3.12876e+06
-1.18612e+07
1.18684e+07
-1.94172e+07
1.26106e+07
-1.26013e+07
164580
-164185
7.25213e+06
1.75477e+07
-1.75391e+07
11411
-8.41393e+06
160548
224176
-4.78599e+06
4.78426e+06
-1.53695e+07
1.53781e+07
-4.38989e+06
1.33594e+06
1.1532e+07
2.07367e+07
-2.07276e+07
1.8139e+07
-1.81306e+07
973583
-1.19219e+07
1.19289e+07
8.59019e+06
6.23437e+06
-1.90024e+07
1.90108e+07
2.33572e+06
-6.55601e+06
-7.52668e+06
2.87521e+06
-641.618
434.652
-1.38093e+07
1.38183e+07
-1.14192e+07
1.14284e+07
2.05789e+06
-2.05792e+06
-5.38757e+06
990038
-990209
-1.15158e+07
-1.58978e+07
7.32489e+06
1.28324e+07
-1.28232e+07
1.52698e+06
-1.33423e+07
1.49089e+06
-1.33658e+06
-1.46081e+07
-1.27374e+07
1.27447e+07
-6.66429e+06
-3.79254e+06
-1.45496e+07
-2.23634e+07
2.2373e+07
1.32289e+07
1.55038e+07
-1.54968e+07
1.1587e+07
-1.15776e+07
-8806.81
8731.6
7.59404e+06
8.67501e+06
5.23906e+06
2.07082e+07
8.76777e+06
8.95898e+06
-7.58227e+06
-7.33866e+06
2.08837e+07
-2.08755e+07
1.03872e+06
1.84705e+07
-1.84622e+07
-8.15593e+06
-1.06203e+07
1.06277e+07
-1.78441e+07
7.93116e+06
-1.92961e+07
1.93047e+07
-1.62172e+07
8.55185e+06
1.30523e+07
6.29365e+06
6.42835e+06
-1.5496e+07
1.55048e+07
6.73046e+06
-6.7216e+06
-3.82385e+06
-594767
1.74697e+07
6.59201e+06
-1.75852e+06
-9.29374e+06
9.32177e+06
-3.49424e+06
-2.36151e+07
2.36231e+07
-1.86929e+07
1.87014e+07
1.55251e+06
-3.81354e+06
3.8193e+06
2.05502e+07
-1.43254e+07
9.9623e+06
-1.76996e+06
-1.85583e+07
7.12445e+06
1.96396e+07
330245
1.83423e+06
-517186
-7.16647e+06
-1.07149e+07
1.27641e+07
-1.27547e+07
1.70336e+06
-2.48452e+07
2.48546e+07
1.28296e+07
-1.28209e+07
-9.3069e+06
-5.58822e+06
-3.32961e+06
-2.10702e+06
1.20636e+07
1.97185e+07
-1.97102e+07
1.26644e+07
-4.41892e+06
3.22338e+06
-2.89824e+06
248755
-248097
-2.00202e+07
-267809
1.57567e+07
-1.57486e+07
-7.2116e+06
7.21619e+06
-4.81663e+06
4.8207e+06
-1.28228e+07
1.09418e+07
-633844
1.28276e+07
-1.78467e+06
9.399e+06
-9.39611e+06
-1.05158e+07
-8.10587e+06