/*--------------------------------*- C++ -*----------------------------------*\
| =========                 |                                                 |
| \\      /  F ield         | OpenFOAM: The Open Source CFD Toolbox           |
|  \\    /   O peration     | Version:  v3.0+                                 |
|   \\  /    A nd           | Web:      www.OpenFOAM.com                      |
|    \\/     M anipulation  |                                                 |
\*---------------------------------------------------------------------------*/
FoamFile
{
    version     2.0;
    format      ascii;
    class       volVectorField;
    location    "5000";
    object      D;
}
// * * * * * * * * * * * * * * * * * * * * * * * * * * * * * * * * * * * * * //

dimensions      [0 1 0 0 0 0 0];

internalField   nonuniform List<vector> 
27023
(
(6.738e-07 1.97523e-07 0)
(-6.74372e-07 1.97576e-07 0)
(-5.40989e-07 1.46544e-07 0)
(5.40528e-07 1.46462e-07 0)
(6.64407e-07 1.90731e-07 0)
(-6.64975e-07 1.90791e-07 0)
(-2.42282e-06 1.83816e-06 0)
(2.4214e-06 1.83813e-06 0)
(-3.14272e-07 8.73469e-08 0)
(3.13968e-07 8.71642e-08 0)
(-1.73744e-06 1.05119e-06 0)
(1.73619e-06 1.05122e-06 0)
(-7.36484e-08 6.3164e-08 0)
(7.35734e-08 6.29044e-08 0)
(1.28238e-06 4.32186e-06 0)
(-5.46654e-08 4.85508e-07 0)
(-6.74182e-08 4.58493e-07 0)
(2.50945e-06 3.85345e-06 0)
(-2.5112e-06 3.85351e-06 0)
(-1.77133e-06 3.36935e-06 0)
(1.76961e-06 3.3693e-06 0)
(-2.44452e-06 1.86439e-06 0)
(2.4431e-06 1.86435e-06 0)
(-1.54987e-06 1.55603e-06 0)
(1.54841e-06 1.55601e-06 0)
(-3.38079e-07 2.93658e-06 0)
(1.05615e-06 1.05903e-06 0)
(-9.40884e-07 7.35844e-05 0)
(1.08011e-06 1.08382e-06 0)
(-3.59294e-06 1.95636e-05 0)
(-6.38984e-07 3.13908e-06 0)
(-1.80969e-06 3.40729e-06 0)
(1.80796e-06 3.40724e-06 0)
(2.45175e-06 6.36636e-06 0)
(1.29892e-06 4.39004e-06 0)
(-2.44232e-06 9.87789e-06 0)
(-1.48243e-06 2.59818e-06 0)
(1.4808e-06 2.59814e-06 0)
(-3.23151e-07 8.93376e-08 0)
(3.22871e-07 8.91806e-08 0)
(5.30399e-07 1.43271e-07 0)
(-5.30851e-07 1.43355e-07 0)
(2.22767e-06 1.92546e-05 0)
(6.77718e-07 1.96925e-07 0)
(-6.78295e-07 1.96982e-07 0)
(-2.54586e-06 3.89884e-06 0)
(2.54411e-06 3.89877e-06 0)
(-1.60066e-06 2.15023e-06 0)
(1.59911e-06 2.15019e-06 0)
(-2.31583e-06 9.90024e-06 0)
(-1.56654e-06 2.13174e-06 0)
(1.565e-06 2.13169e-06 0)
(2.51573e-06 6.44975e-06 0)
(-6.37068e-08 3.11924e-08 0)
(6.36075e-08 3.09959e-08 0)
(-2.71649e-06 6.28401e-06 0)
(-2.82202e-06 2.56804e-05 0)
(-1.1582e-05 0.000102535 0)
(1.3058e-06 1.00467e-05 0)
(-5.36207e-07 1.45411e-07 0)
(5.35753e-07 1.45339e-07 0)
(-3.31423e-06 1.94621e-05 0)
(-1.80591e-07 3.95393e-06 0)
(-1.34301e-06 7.01688e-05 0)
(2.44692e-06 1.94711e-05 0)
(-5.98035e-07 3.13112e-06 0)
(-1.69355e-06 3.87453e-06 0)
(-3.73032e-07 2.9279e-06 0)
(1.0364e-06 6.6901e-07 0)
(1.43906e-06 1.00424e-05 0)
(-1.45093e-06 2.60399e-06 0)
(1.4493e-06 2.60396e-06 0)
(-2.08745e-06 2.01687e-06 0)
(2.08596e-06 2.01683e-06 0)
(-3.55181e-06 3.69676e-06 0)
(3.55013e-06 3.69665e-06 0)
(-4.15919e-08 4.51416e-08 0)
(4.15507e-08 4.49199e-08 0)
(2.94884e-06 2.46982e-06 0)
(-2.95036e-06 2.4699e-06 0)
(9.24182e-07 1.92793e-06 0)
(-1.72421e-06 1.04395e-06 0)
(1.72296e-06 1.04398e-06 0)
(-2.06773e-06 2.025e-06 0)
(2.06624e-06 2.02496e-06 0)
(3.88437e-06 3.9327e-06 0)
(-3.88607e-06 3.93282e-06 0)
(1.69343e-06 3.86908e-06 0)
(-1.26556e-07 7.45039e-05 0)
(1.59228e-05 0.000231684 0)
(-1.5451e-05 0.000231551 0)
(-7.40742e-07 2.14163e-07 0)
(7.40105e-07 2.14104e-07 0)
(-6.13374e-07 5.1292e-07 0)
(1.19899e-07 4.81066e-08 0)
(1.49519e-06 1.40093e-06 0)
(-1.49663e-06 1.40093e-06 0)
(9.43307e-07 1.90763e-06 0)
(1.69419e-06 1.49733e-05 0)
(-3.16691e-08 1.20019e-05 0)
(3.35064e-06 2.12836e-05 0)
(1.60043e-05 0.000235023 0)
(-1.52334e-05 0.000235113 0)
(-2.17127e-06 1.70791e-06 0)
(2.16986e-06 1.70789e-06 0)
(-1.92009e-07 1.19229e-05 0)
(-2.42885e-06 1.97347e-06 0)
(2.4274e-06 1.97342e-06 0)
(-2.73186e-06 6.21274e-06 0)
(-1.23893e-05 0.000103868 0)
(-2.51225e-06 2.59921e-05 0)
(-2.42091e-06 1.98387e-06 0)
(2.41946e-06 1.98383e-06 0)
(-1.51854e-06 1.52856e-06 0)
(1.51708e-06 1.52855e-06 0)
(-3.56731e-06 3.74604e-06 0)
(3.56562e-06 3.74593e-06 0)
(-5.75744e-07 2.71036e-08 0)
(9.68743e-07 3.24368e-07 0)
(1.0663e-06 2.91851e-06 0)
(-1.04287e-06 5.11153e-06 0)
(-1.33013e-07 3.94351e-06 0)
(1.66825e-06 9.44443e-07 0)
(-1.66938e-06 9.44427e-07 0)
(-2.61194e-06 2.00704e-06 0)
(2.6105e-06 2.00698e-06 0)
(-7.43314e-07 2.11624e-07 0)
(7.4267e-07 2.11562e-07 0)
(-2.14714e-06 1.67869e-06 0)
(2.14573e-06 1.67867e-06 0)
(1.48595e-06 1.48363e-05 0)
(1.12797e-08 2.29308e-08 0)
(-1.11339e-08 2.24047e-08 0)
(6.27887e-07 3.23856e-06 0)
(-9.79327e-07 5.12458e-06 0)
(3.91163e-06 3.98193e-06 0)
(-3.91334e-06 3.98205e-06 0)
(-3.22556e-07 1.6533e-06 0)
(-2.44701e-06 3.47972e-06 0)
(2.44531e-06 3.47965e-06 0)
(2.20187e-06 1.57701e-06 0)
(-2.20324e-06 1.57702e-06 0)
(2.18311e-07 1.82057e-06 0)
(-2.34617e-06 1.76366e-06 0)
(2.34476e-06 1.76363e-06 0)
(6.30126e-07 3.28616e-06 0)
(2.36075e-06 2.71749e-05 0)
(-1.2619e-06 8.58837e-07 0)
(-1.73635e-06 3.90394e-06 0)
(-1.03838e-06 3.95919e-07 0)
(1.03755e-06 3.95904e-07 0)
(-1.21983e-06 4.99706e-07 0)
(1.21887e-06 4.99698e-07 0)
(2.60965e-06 1.55115e-05 0)
(1.10744e-06 2.91158e-06 0)
(1.18256e-05 0.000138019 0)
(-1.17432e-05 0.000137967 0)
(-1.34237e-06 4.42924e-06 0)
(-2.44997e-06 3.44195e-06 0)
(2.44828e-06 3.44188e-06 0)
(4.62697e-06 1.26866e-05 0)
(2.79513e-06 2.72379e-05 0)
(8.80574e-06 4.38232e-05 0)
(-3.24494e-07 1.10003e-05 0)
(1.40262e-06 6.64538e-07 0)
(-1.40367e-06 6.64533e-07 0)
(2.04789e-06 1.41544e-06 0)
(-2.04923e-06 1.41543e-06 0)
(6.85728e-07 1.99372e-06 0)
(-7.02125e-08 1.95153e-06 0)
(-1.37551e-06 6.90861e-05 0)
(2.92376e-06 2.43869e-06 0)
(-2.92528e-06 2.43877e-06 0)
(9.69867e-06 0.000138433 0)
(-9.62969e-06 0.00013835 0)
(6.98975e-06 7.5152e-05 0)
(-2.12742e-07 1.09184e-05 0)
(2.2676e-07 1.79338e-06 0)
(5.87027e-06 7.52789e-05 0)
(-3.50282e-07 1.6338e-06 0)
(1.73761e-06 3.89841e-06 0)
(2.17939e-06 1.56362e-06 0)
(-2.18075e-06 1.56363e-06 0)
(3.1968e-06 2.15972e-05 0)
(2.94792e-06 5.77613e-06 0)
(3.03088e-06 5.78138e-06 0)
(1.46563e-06 1.39849e-06 0)
(-1.46707e-06 1.39849e-06 0)
(8.5442e-06 4.43547e-05 0)
(2.51802e-06 3.65862e-05 0)
(2.03168e-06 1.39344e-06 0)
(-2.03301e-06 1.39343e-06 0)
(8.45938e-07 1.59118e-06 0)
(-3.06769e-07 6.86729e-06 0)
(-2.60915e-06 2.01701e-06 0)
(2.6077e-06 2.01696e-06 0)
(6.94844e-06 2.14258e-05 0)
(1.92871e-06 1.25678e-06 0)
(-1.93001e-06 1.25676e-06 0)
(9.46942e-07 3.1735e-07 0)
(-1.39824e-06 4.45814e-06 0)
(1.01872e-06 6.83623e-07 0)
(-4.03513e-06 4.67202e-06 0)
(4.03334e-06 4.6719e-06 0)
(6.6397e-07 1.88589e-07 0)
(-6.64539e-07 1.88652e-07 0)
(8.92328e-07 2.77331e-06 0)
(5.02286e-06 1.22473e-05 0)
(-3.96894e-06 4.62781e-06 0)
(3.96715e-06 4.6277e-06 0)
(-4.24871e-10 9.74618e-09 0)
(4.21791e-10 9.69389e-09 0)
(-5.76806e-07 4.92975e-07 0)
(9.31298e-07 2.79053e-06 0)
(3.38708e-07 9.737e-08 0)
(-3.39003e-07 9.76097e-08 0)
(9.69985e-07 1.54336e-06 0)
(-9.6227e-08 1.93194e-06 0)
(-9.01976e-07 4.47681e-05 0)
(3.18575e-06 3.01738e-06 0)
(-3.18736e-06 3.01748e-06 0)
(2.71207e-06 3.72107e-05 0)
(1.68419e-06 9.59845e-07 0)
(-1.68532e-06 9.59828e-07 0)
(2.58482e-06 1.57378e-05 0)
(-2.85729e-06 2.94417e-06 0)
(2.8557e-06 2.94409e-06 0)
(-2.03192e-06 1.82543e-06 0)
(2.03046e-06 1.8254e-06 0)
(-1.8079e-07 6.62073e-08 0)
(1.80623e-07 6.59968e-08 0)
(-2.60363e-06 0.000105215 0)
(-2.95608e-06 3.00282e-06 0)
(2.95448e-06 3.00273e-06 0)
(4.47593e-06 1.25051e-05 0)
(-3.23785e-06 3.59863e-06 0)
(3.23617e-06 3.59852e-06 0)
(-5.55098e-06 7.81577e-06 0)
(-1.84652e-06 5.66127e-06 0)
(2.47972e-06 1.8594e-06 0)
(-2.48114e-06 1.85944e-06 0)
(-1.06775e-06 8.15303e-07 0)
(-7.93625e-06 3.08191e-05 0)
(-3.94577e-06 8.94204e-06 0)
(2.17149e-06 4.82204e-06 0)
(-6.0685e-07 3.12798e-07 0)
(7.98072e-08 2.57808e-05 0)
(9.68676e-07 9.45452e-07 0)
(-4.92481e-06 1.83784e-05 0)
(2.20806e-06 4.89152e-06 0)
(2.72219e-06 2.29526e-06 0)
(-2.72369e-06 2.29533e-06 0)
(1.96896e-06 1.41952e-05 0)
(5.13775e-07 8.2896e-07 0)
(6.99428e-06 2.23134e-05 0)
(5.01148e-06 1.24165e-05 0)
(-4.67469e-06 7.93037e-06 0)
(5.19253e-06 1.51185e-05 0)
(-2.01885e-06 3.51798e-06 0)
(2.01713e-06 3.51793e-06 0)
(-5.104e-07 -4.49047e-09 0)
(-1.29201e-07 1.37136e-06 0)
(-1.10433e-05 5.74182e-05 0)
(-3.27907e-06 3.58853e-06 0)
(3.27739e-06 3.58843e-06 0)
(-2.36848e-06 1.7871e-06 0)
(2.36707e-06 1.78707e-06 0)
(-3.64134e-07 4.56748e-06 0)
(4.06536e-07 8.22151e-07 0)
(-1.65132e-06 9.18919e-07 0)
(1.65019e-06 9.18938e-07 0)
(-5.87531e-06 4.07394e-05 0)
(9.46382e-07 3.75729e-06 0)
(2.71357e-06 8.84016e-06 0)
(-9.57363e-07 1.7343e-05 0)
(-2.63378e-07 6.95914e-06 0)
(1.41761e-06 6.78759e-07 0)
(-1.41867e-06 6.78752e-07 0)
(2.1036e-06 3.84861e-06 0)
(-2.10536e-06 3.84866e-06 0)
(-6.3168e-06 3.13881e-05 0)
(3.44435e-06 9.1078e-06 0)
(-1.18803e-05 0.000250315 0)
(1.17682e-05 0.000250057 0)
(4.83345e-09 3.95539e-08 0)
(-4.80984e-09 3.97686e-08 0)
(1.25608e-06 7.82061e-06 0)
(2.04802e-06 1.03907e-05 0)
(-3.36888e-07 2.87569e-07 0)
(-1.11801e-06 4.22679e-07 0)
(-3.31901e-06 0.000207163 0)
(1.36594e-06 7.94753e-06 0)
(2.68281e-06 2.68901e-06 0)
(-2.68437e-06 2.68909e-06 0)
(3.61072e-06 3.58091e-06 0)
(-3.61239e-06 3.58102e-06 0)
(4.42607e-06 1.80845e-05 0)
(-3.92464e-06 8.16619e-06 0)
(3.86166e-06 4.33149e-06 0)
(-3.86341e-06 4.3316e-06 0)
(-6.64593e-08 7.08626e-08 0)
(-2.22021e-07 5.32419e-07 0)
(2.11193e-06 1.54057e-06 0)
(-2.11331e-06 1.54057e-06 0)
(2.78014e-07 -7.72359e-09 0)
(-4.83765e-07 1.1402e-07 0)
(4.83328e-07 1.13878e-07 0)
(-9.91536e-07 1.53648e-06 0)
(-1.44675e-06 4.85299e-06 0)
(5.993e-07 2.48423e-05 0)
(-7.01893e-07 6.29014e-05 0)
(-9.00576e-09 3.69097e-08 0)
(9.03475e-09 3.66971e-08 0)
(-2.22268e-07 5.2428e-08 0)
(2.22073e-07 5.22662e-08 0)
(-3.76743e-06 1.63669e-05 0)
(1.73549e-06 2.7801e-06 0)
(-1.73713e-06 2.78014e-06 0)
(-6.00418e-08 2.90902e-06 0)
(-1.61811e-06 6.01459e-06 0)
(-1.08594e-07 7.69126e-08 0)
(1.08466e-07 7.65919e-08 0)
(1.16498e-06 1.14831e-06 0)
(7.21762e-07 1.72762e-07 0)
(5.70779e-07 2.88769e-08 0)
(-1.92871e-06 7.86283e-06 0)
(6.41188e-06 1.434e-05 0)
(-4.31477e-07 4.58612e-06 0)
(-1.22723e-06 8.39013e-07 0)
(1.38182e-06 7.95842e-07 0)
(5.62684e-07 1.24616e-06 0)
(-1.38291e-06 7.96274e-07 0)
(7.40913e-06 1.54677e-05 0)
(-1.15894e-07 4.85154e-08 0)
(-3.47291e-06 1.63205e-05 0)
(9.00857e-07 3.17642e-07 0)
(-9.0159e-07 3.17669e-07 0)
(6.39206e-07 2.98991e-06 0)
(-3.00901e-07 5.60439e-07 0)
(-2.23005e-06 1.89566e-06 0)
(2.2286e-06 1.89563e-06 0)
(1.02056e-05 3.88566e-05 0)
(-1.025e-05 3.88655e-05 0)
(-6.97751e-10 9.52906e-09 0)
(6.93293e-10 9.47776e-09 0)
(9.76936e-07 6.66102e-07 0)
(-7.02947e-07 2.18434e-07 0)
(7.0236e-07 2.18397e-07 0)
(3.67034e-06 3.58869e-05 0)
(-5.37224e-07 4.1733e-06 0)
(7.21352e-06 3.44453e-05 0)
(-7.21613e-06 3.44454e-05 0)
(-3.00501e-06 3.02244e-06 0)
(3.00341e-06 3.02235e-06 0)
(-4.77297e-08 2.81111e-08 0)
(4.76673e-08 2.79275e-08 0)
(-1.78638e-07 1.02665e-07 0)
(2.87163e-06 2.45099e-06 0)
(-2.87316e-06 2.45108e-06 0)
(3.59112e-07 9.21926e-06 0)
(1.08997e-06 4.65117e-07 0)
(3.74625e-06 4.37374e-06 0)
(-3.74801e-06 4.37385e-06 0)
(2.08428e-06 1.39674e-06 0)
(-2.08559e-06 1.39673e-06 0)
(-4.56894e-06 0.000101868 0)
(3.39613e-06 1.60029e-05 0)
(1.85352e-07 6.3249e-07 0)
(8.36932e-07 2.664e-07 0)
(-8.37633e-07 2.66442e-07 0)
(2.96212e-06 2.55549e-06 0)
(-2.96366e-06 2.55557e-06 0)
(5.07458e-07 2.88044e-07 0)
(2.87046e-06 5.28735e-06 0)
(5.57599e-07 1.89995e-08 0)
(3.71552e-06 7.97477e-06 0)
(2.86841e-06 5.35824e-06 0)
(1.18132e-06 1.71068e-06 0)
(8.54929e-06 5.98088e-05 0)
(-1.35424e-06 2.31602e-06 0)
(-1.54613e-06 5.96428e-06 0)
(1.35265e-06 2.31595e-06 0)
(-2.48704e-06 1.91744e-06 0)
(2.48561e-06 1.91739e-06 0)
(9.66364e-07 1.00276e-06 0)
(-4.39091e-07 1.90839e-06 0)
(-2.91236e-06 3.58249e-05 0)
(5.44907e-06 1.5306e-05 0)
(1.31358e-06 8.70028e-07 0)
(7.17707e-08 -1.13679e-07 0)
(8.97153e-07 7.6069e-07 0)
(-6.36715e-06 0.000207413 0)
(-1.09142e-06 4.65269e-07 0)
(-5.12863e-06 0.000230237 0)
(-3.21106e-08 4.30966e-07 0)
(5.9526e-07 9.99946e-06 0)
(-1.86819e-06 5.43165e-06 0)
(-2.4822e-06 2.33626e-05 0)
(6.23487e-06 1.05217e-05 0)
(2.03668e-06 5.44291e-06 0)
(-2.01544e-06 1.83506e-06 0)
(2.01397e-06 1.83503e-06 0)
(-7.05676e-07 3.75066e-07 0)
(8.57148e-07 1.56378e-06 0)
(-2.05846e-06 6.28412e-05 0)
(8.66146e-07 2.76019e-07 0)
(-8.66874e-07 2.76062e-07 0)
(-1.91774e-08 2.35573e-06 0)
(-9.10617e-07 4.32304e-06 0)
(1.34965e-06 1.2062e-06 0)
(-9.24745e-08 2.91841e-06 0)
(-1.34905e-06 1.20606e-06 0)
(-1.6785e-09 2.86905e-08 0)
(1.68052e-09 2.85451e-08 0)
(3.84614e-06 5.52507e-05 0)
(-2.83829e-06 7.07864e-06 0)
(-9.79684e-07 2.83531e-07 0)
(-2.94045e-06 5.0565e-06 0)
(-2.04362e-06 7.78821e-06 0)
(2.25973e-06 5.87312e-06 0)
(-6.28294e-07 1.65111e-06 0)
(3.34139e-06 7.85258e-06 0)
(-4.39342e-07 -3.57207e-08 0)
(-2.20964e-07 1.78976e-06 0)
(-1.01471e-06 4.54475e-05 0)
(5.36897e-06 9.15964e-06 0)
(3.70193e-06 4.3039e-06 0)
(-3.70369e-06 4.30401e-06 0)
(7.06737e-06 1.6626e-05 0)
(-7.30135e-07 1.75038e-05 0)
(-1.19945e-05 5.78027e-05 0)
(9.82754e-07 1.51678e-06 0)
(-3.40369e-06 3.89737e-06 0)
(3.40198e-06 3.89726e-06 0)
(1.94708e-06 2.1232e-06 0)
(-1.9486e-06 2.12325e-06 0)
(-3.43622e-06 7.00485e-06 0)
(-1.20331e-07 -1.06059e-07 0)
(-3.85218e-07 9.5986e-08 0)
(3.84895e-07 9.58835e-08 0)
(1.10819e-05 3.49109e-05 0)
(-1.1085e-05 3.49111e-05 0)
(-2.05418e-06 3.06445e-06 0)
(2.05252e-06 3.06439e-06 0)
(-6.19908e-10 1.62913e-08 0)
(6.22632e-10 1.63774e-08 0)
(6.20217e-07 1.59612e-06 0)
(9.15742e-07 8.43405e-06 0)
(2.46688e-06 5.46316e-06 0)
(9.41389e-08 -8.57519e-08 0)
(3.53611e-07 -1.43276e-08 0)
(1.90456e-06 1.20566e-06 0)
(-1.90583e-06 1.20564e-06 0)
(1.92965e-06 1.23175e-06 0)
(-1.93092e-06 1.23173e-06 0)
(-2.39911e-06 4.42392e-06 0)
(2.39729e-06 4.42386e-06 0)
(-1.15413e-06 4.73249e-07 0)
(1.15323e-06 4.73242e-07 0)
(4.05995e-07 1.5225e-06 0)
(-2.82666e-08 1.75677e-06 0)
(4.96338e-07 3.68929e-06 0)
(2.92884e-06 8.10778e-06 0)
(-7.102e-07 1.27877e-06 0)
(-8.14117e-06 3.12906e-05 0)
(1.08706e-06 6.06211e-06 0)
(2.50774e-06 1.89438e-06 0)
(-2.50916e-06 1.89442e-06 0)
(3.20444e-06 8.3149e-06 0)
(-3.57448e-06 3.58003e-05 0)
(-4.16175e-06 8.00035e-05 0)
(-4.68243e-06 9.40932e-06 0)
(-3.3398e-06 6.74098e-06 0)
(1.17429e-06 1.08176e-06 0)
(5.63924e-07 2.904e-06 0)
(-2.59154e-06 2.50178e-06 0)
(2.59e-06 2.50171e-06 0)
(5.87985e-06 7.96908e-05 0)
(-5.69321e-06 7.96986e-05 0)
(-5.03828e-07 1.33742e-07 0)
(5.03391e-07 1.33623e-07 0)
(-2.93743e-06 3.01536e-06 0)
(2.93582e-06 3.01527e-06 0)
(-1.04094e-07 3.35092e-06 0)
(-4.2919e-07 1.30057e-06 0)
(5.82806e-07 2.87671e-06 0)
(-5.41888e-07 1.15652e-08 0)
(-9.03108e-06 2.2183e-05 0)
(-5.9356e-06 0.000167383 0)
(1.69693e-06 9.90837e-07 0)
(-1.69815e-06 9.90802e-07 0)
(1.78408e-06 5.78864e-06 0)
(-1.11854e-06 4.16213e-07 0)
(-9.97695e-08 3.40276e-06 0)
(1.73981e-06 2.81784e-06 0)
(-1.74145e-06 2.81788e-06 0)
(-7.81098e-07 2.50185e-07 0)
(7.80448e-07 2.50146e-07 0)
(-8.98231e-07 7.49851e-07 0)
(6.83592e-06 1.66287e-05 0)
(2.18646e-06 5.89958e-06 0)
(8.15708e-07 1.98447e-07 0)
(-8.16484e-07 1.98528e-07 0)
(6.15063e-06 3.20318e-05 0)
(2.3146e-07 5.91209e-07 0)
(-1.42827e-06 2.19341e-06 0)
(1.42671e-06 2.19336e-06 0)
(1.1551e-06 1.67915e-06 0)
(-2.11593e-06 1.41228e-06 0)
(2.11463e-06 1.41228e-06 0)
(-1.77953e-06 1.09643e-06 0)
(1.77826e-06 1.09647e-06 0)
(1.32505e-06 9.72034e-07 0)
(1.49948e-06 7.76104e-07 0)
(-1.50054e-06 7.76096e-07 0)
(1.26617e-06 5.70549e-06 0)
(2.97752e-06 1.39068e-05 0)
(-3.21662e-06 3.87707e-06 0)
(3.21491e-06 3.87697e-06 0)
(2.93927e-06 5.05799e-06 0)
(3.64174e-06 4.09397e-06 0)
(-3.64347e-06 4.09407e-06 0)
(-6.89303e-06 3.12903e-05 0)
(2.43257e-06 2.30032e-06 0)
(-2.43408e-06 2.30038e-06 0)
(2.14921e-06 3.88007e-06 0)
(-2.15098e-06 3.88012e-06 0)
(5.31172e-07 3.30355e-06 0)
(-1.26123e-06 5.94543e-07 0)
(1.26031e-06 5.94541e-07 0)
(1.09173e-05 7.30925e-05 0)
(6.09446e-07 1.01626e-05 0)
(3.9196e-07 3.28339e-06 0)
(4.62518e-07 1.92099e-06 0)
(-1.68696e-06 1.43023e-06 0)
(1.68554e-06 1.43023e-06 0)
(2.84158e-06 2.45346e-06 0)
(-2.8431e-06 2.45354e-06 0)
(1.89044e-06 5.80493e-06 0)
(6.95618e-06 2.1133e-05 0)
(-1.18286e-06 1.71087e-06 0)
(-3.83719e-07 3.68479e-05 0)
(1.20636e-06 8.62946e-07 0)
(1.18445e-06 1.0561e-06 0)
(-5.90331e-06 7.80921e-05 0)
(3.77297e-07 9.32426e-08 0)
(-3.77614e-07 9.33462e-08 0)
(8.2157e-06 2.16525e-05 0)
(3.63291e-06 3.62868e-06 0)
(-3.63458e-06 3.6288e-06 0)
(-6.45593e-06 4.1255e-05 0)
(-1.32619e-07 3.24916e-06 0)
(2.23346e-06 1.92208e-06 0)
(-2.23492e-06 1.92212e-06 0)
(1.08173e-06 4.47229e-07 0)
(7.10934e-06 3.49007e-05 0)
(-7.11197e-06 3.49008e-05 0)
(-3.83154e-08 2.38307e-06 0)
(-9.6967e-08 -1.26005e-07 0)
(1.58061e-06 1.6766e-05 0)
(1.00318e-06 1.01687e-06 0)
(1.61179e-06 5.59976e-06 0)
(-1.43737e-06 2.16097e-06 0)
(1.43582e-06 2.16093e-06 0)
(4.61675e-06 1.83263e-05 0)
(1.54864e-08 3.74014e-07 0)
(-2.57007e-06 3.10745e-06 0)
(2.56844e-06 3.10738e-06 0)
(-7.71248e-07 4.99363e-06 0)
(1.7844e-06 3.49606e-06 0)
(-1.78614e-06 3.4961e-06 0)
(6.32659e-07 4.78555e-06 0)
(-8.47198e-07 2.96495e-07 0)
(8.46509e-07 2.9647e-07 0)
(1.91667e-06 1.25377e-06 0)
(-1.91797e-06 1.25375e-06 0)
(9.48591e-07 3.67782e-07 0)
(-9.49343e-07 3.67794e-07 0)
(-4.19819e-06 1.45338e-05 0)
(1.05368e-06 1.52238e-06 0)
(-1.05777e-06 1.5229e-06 0)
(-4.90005e-06 1.80824e-05 0)
(1.07438e-06 4.24066e-07 0)
(-1.07523e-06 4.24077e-07 0)
(2.38521e-06 1.03807e-05 0)
(-4.8399e-07 7.05465e-07 0)
(6.59062e-07 2.01348e-06 0)
(2.99198e-06 7.10104e-06 0)
(-9.18501e-08 2.98242e-07 0)
(1.48282e-07 3.40462e-08 0)
(5.09112e-07 3.15411e-07 0)
(5.42847e-06 9.06301e-06 0)
(-1.48476e-06 1.53134e-06 0)
(1.4833e-06 1.53133e-06 0)
(-8.97389e-06 6.8329e-05 0)
(-1.47987e-06 1.56935e-06 0)
(1.4784e-06 1.56934e-06 0)
(1.24007e-05 0.000109924 0)
(2.00718e-06 1.97084e-06 0)
(-2.00867e-06 1.97088e-06 0)
(5.45246e-07 3.71499e-06 0)
(2.546e-07 9.27412e-06 0)
(1.81895e-06 3.4634e-06 0)
(-1.82068e-06 3.46345e-06 0)
(-3.28652e-06 3.79491e-06 0)
(3.28482e-06 3.79481e-06 0)
(-3.92465e-06 8.27773e-06 0)
(-7.77625e-07 1.51197e-06 0)
(-1.11377e-06 8.81602e-07 0)
(-2.2759e-06 2.53016e-06 0)
(2.27434e-06 2.5301e-06 0)
(-3.17366e-06 3.12064e-06 0)
(3.17204e-06 3.12054e-06 0)
(-3.72364e-06 2.59387e-05 0)
(1.19752e-06 5.75354e-06 0)
(-1.13808e-05 0.000254635 0)
(1.11926e-05 0.0002543 0)
(-1.20892e-06 2.26542e-06 0)
(1.20726e-06 2.26529e-06 0)
(1.25378e-05 0.000102835 0)
(2.92409e-09 3.21723e-09 0)
(9.11016e-10 1.32293e-09 0)
(-9.15963e-10 1.33016e-09 0)
(-2.93984e-09 3.23473e-09 0)
(1.89242e-06 1.44244e-05 0)
(-7.12913e-08 6.49572e-08 0)
(7.11972e-08 6.46935e-08 0)
(1.05958e-06 3.97347e-07 0)
(-1.06043e-06 3.97363e-07 0)
(7.26607e-07 2.1068e-07 0)
(-7.2723e-07 2.10738e-07 0)
(-8.53482e-07 3.01866e-07 0)
(8.52789e-07 3.01843e-07 0)
(-2.15111e-07 1.05282e-06 0)
(-1.82877e-06 1.75413e-06 0)
(1.8273e-06 1.75411e-06 0)
(2.57183e-06 6.22733e-06 0)
(6.66468e-06 8.55258e-05 0)
(1.7305e-06 1.69056e-06 0)
(-1.73197e-06 1.69058e-06 0)
(1.53322e-06 5.57987e-06 0)
(-2.12379e-06 2.35513e-06 0)
(2.12225e-06 2.35507e-06 0)
(2.0758e-06 6.43752e-06 0)
(1.20425e-06 3.56629e-06 0)
(-3.34385e-06 6.83449e-06 0)
(9.10138e-07 3.42914e-07 0)
(-9.10865e-07 3.4293e-07 0)
(-2.98368e-06 5.74526e-06 0)
(-2.42426e-07 7.14164e-06 0)
(8.07174e-09 1.97218e-06 0)
(4.275e-06 3.64102e-05 0)
(2.45484e-06 2.2957e-06 0)
(-2.45636e-06 2.29576e-06 0)
(2.27159e-07 1.38063e-09 0)
(-1.29936e-06 9.23202e-07 0)
(2.92338e-06 2.52498e-06 0)
(-2.92491e-06 2.52506e-06 0)
(-1.98686e-10 1.39446e-08 0)
(1.99464e-10 1.40173e-08 0)
(-2.35612e-06 4.45647e-06 0)
(2.3543e-06 4.45641e-06 0)
(-6.07196e-06 3.20162e-05 0)
(1.00247e-06 2.44529e-05 0)
(-3.35478e-06 2.9982e-06 0)
(3.35319e-06 2.99809e-06 0)
(1.02186e-06 1.71289e-06 0)
(1.32162e-06 8.52837e-07 0)
(-1.75774e-07 -1.21599e-07 0)
(-1.25533e-05 0.000193478 0)
(-1.08517e-06 4.48978e-07 0)
(-1.5317e-06 4.23785e-06 0)
(-1.35173e-06 9.72721e-06 0)
(7.3201e-08 7.40032e-08 0)
(4.88171e-07 1.90082e-06 0)
(3.46959e-06 7.91484e-06 0)
(-1.00265e-06 3.21435e-07 0)
(-2.8382e-06 6.22092e-06 0)
(3.52038e-06 9.26962e-06 0)
(7.03291e-07 1.77392e-07 0)
(6.11566e-06 7.81761e-05 0)
(-1.05818e-08 3.88148e-08 0)
(1.06087e-08 3.85965e-08 0)
(-2.03457e-06 2.00179e-06 0)
(2.03308e-06 2.00175e-06 0)
(-1.05955e-06 4.72007e-07 0)
(1.30133e-07 2.62131e-06 0)
(1.1849e-06 6.07008e-06 0)
(2.25753e-06 7.31172e-05 0)
(-1.21588e-05 7.2778e-05 0)
(-2.67737e-06 5.99617e-06 0)
(1.33355e-06 9.56263e-07 0)
(2.58559e-07 5.30932e-06 0)
(-1.15245e-05 0.000111914 0)
(1.23386e-05 0.000111714 0)
(4.15777e-07 1.7329e-06 0)
(-7.04908e-07 1.89645e-07 0)
(7.04285e-07 1.89571e-07 0)
(-1.23054e-06 1.05001e-06 0)
(-7.14027e-06 1.98441e-05 0)
(3.40972e-07 5.35824e-06 0)
(5.17669e-06 4.15845e-05 0)
(-2.6211e-06 2.52587e-06 0)
(2.61955e-06 2.52579e-06 0)
(3.8795e-06 4.40046e-06 0)
(-3.88126e-06 4.40058e-06 0)
(1.09547e-09 3.27303e-08 0)
(-1.07088e-09 3.25507e-08 0)
(3.73908e-07 2.87022e-05 0)
(1.85342e-07 6.03831e-07 0)
(1.17481e-06 4.04352e-06 0)
(1.25769e-07 1.43147e-06 0)
(1.37313e-06 1.69072e-06 0)
(-1.37462e-06 1.69075e-06 0)
(-6.85894e-06 6.36073e-05 0)
(-3.29523e-07 8.2559e-08 0)
(3.29242e-07 8.24305e-08 0)
(3.20961e-06 3.05588e-06 0)
(-3.21121e-06 3.05599e-06 0)
(7.28284e-06 1.68581e-05 0)
(-2.30579e-06 2.23286e-06 0)
(2.30428e-06 2.23281e-06 0)
(4.00737e-07 2.34223e-08 0)
(-3.50433e-06 7.08817e-06 0)
(2.10477e-06 6.98504e-06 0)
(2.48837e-06 2.08019e-05 0)
(-4.55189e-06 1.15333e-05 0)
(-3.98236e-07 7.44624e-06 0)
(-3.18819e-06 3.89695e-06 0)
(3.18647e-06 3.89685e-06 0)
(-8.08192e-06 8.60666e-05 0)
(3.54814e-07 2.33298e-06 0)
(-2.10806e-06 1.42336e-06 0)
(2.10674e-06 1.42336e-06 0)
(2.68131e-06 1.30505e-05 0)
(4.52423e-06 6.33998e-06 0)
(8.04594e-07 1.08718e-06 0)
(-4.52621e-06 6.33993e-06 0)
(-6.08757e-07 6.63208e-08 0)
(6.07907e-07 6.59289e-08 0)
(-2.65163e-06 8.36422e-06 0)
(-8.26465e-07 2.14932e-07 0)
(3.71553e-06 1.26469e-05 0)
(2.44409e-08 -4.12811e-08 0)
(2.48417e-06 6.24213e-06 0)
(7.11241e-07 1.80089e-06 0)
(-1.01797e-05 2.87203e-05 0)
(5.65648e-07 2.94352e-06 0)
(-8.00742e-07 1.86455e-07 0)
(7.99965e-07 1.8637e-07 0)
(3.68294e-06 4.07744e-06 0)
(-3.68467e-06 4.07755e-06 0)
(-1.22369e-06 6.22267e-06 0)
(-5.29033e-07 2.38608e-05 0)
(2.48629e-06 2.38871e-06 0)
(-2.48781e-06 2.38878e-06 0)
(2.45756e-06 5.53325e-06 0)
(-3.49629e-06 1.47717e-05 0)
(-1.12427e-05 0.000109934 0)
(-6.32615e-07 3.26347e-06 0)
(-3.86484e-06 2.01179e-05 0)
(-6.89074e-07 2.11694e-07 0)
(6.88498e-07 2.11656e-07 0)
(6.55295e-07 4.92443e-06 0)
(-1.45181e-06 1.78737e-06 0)
(1.45031e-06 1.78734e-06 0)
(3.4678e-06 3.73268e-06 0)
(-3.46949e-06 3.73279e-06 0)
(-5.46025e-08 3.41013e-06 0)
(1.9867e-06 6.99567e-06 0)
(1.20793e-07 7.0867e-08 0)
(1.01772e-05 2.87211e-05 0)
(-1.59179e-06 8.79083e-07 0)
(1.5906e-06 8.79121e-07 0)
(-2.22856e-06 8.32291e-06 0)
(-1.15946e-07 1.33815e-06 0)
(1.73075e-06 1.12015e-05 0)
(4.0576e-06 1.18163e-05 0)
(2.14728e-06 1.52251e-05 0)
(9.65069e-07 9.16173e-07 0)
(4.20825e-07 1.62096e-06 0)
(8.80848e-07 3.84394e-07 0)
(-1.9218e-06 5.69295e-06 0)
(-3.46938e-06 3.60072e-06 0)
(3.46771e-06 3.60061e-06 0)
(-1.75341e-06 1.05163e-06 0)
(1.75217e-06 1.05166e-06 0)
(-1.01895e-05 4.56052e-05 0)
(1.00228e-05 4.55594e-05 0)
(4.97413e-07 3.26331e-06 0)
(-1.15682e-07 -1.23117e-07 0)
(-3.35104e-06 3.55621e-06 0)
(3.34937e-06 3.5561e-06 0)
(3.57068e-06 6.90723e-06 0)
(3.46351e-06 8.15211e-06 0)
(-6.86665e-08 4.25455e-06 0)
(2.40676e-06 1.98811e-05 0)
(-4.14414e-06 0.000234354 0)
(-1.51618e-07 8.833e-08 0)
(1.51491e-07 8.80356e-08 0)
(9.90289e-07 3.7601e-06 0)
(4.71991e-07 4.6419e-06 0)
(-2.32708e-06 1.71047e-06 0)
(2.32568e-06 1.71044e-06 0)
(1.01242e-07 1.92283e-06 0)
(-4.1235e-06 3.63675e-05 0)
(7.45228e-08 -1.25328e-07 0)
(-3.09328e-06 2.67531e-06 0)
(3.09173e-06 2.67521e-06 0)
(8.54995e-07 1.99618e-07 0)
(-8.55849e-07 1.99708e-07 0)
(1.17039e-06 1.34792e-06 0)
(6.71432e-07 1.8041e-07 0)
(-6.72023e-07 1.80487e-07 0)
(1.92977e-06 4.55216e-05 0)
(3.03262e-07 8.44533e-06 0)
(-9.72094e-07 7.23769e-05 0)
(-8.85349e-07 3.72324e-05 0)
(-3.26534e-06 3.82582e-06 0)
(3.26363e-06 3.82572e-06 0)
(1.38447e-06 2.46225e-05 0)
(1.71779e-06 2.91147e-06 0)
(-1.71945e-06 2.91151e-06 0)
(-4.08674e-06 4.53171e-06 0)
(4.08497e-06 4.53159e-06 0)
(1.01997e-06 1.50795e-06 0)
(-1.02133e-06 1.50835e-06 0)
(-1.16642e-06 4.873e-07 0)
(1.16552e-06 4.87294e-07 0)
(2.16604e-06 1.50774e-06 0)
(-2.16739e-06 1.50774e-06 0)
(-4.10196e-07 2.95354e-06 0)
(5.15162e-06 1.42657e-05 0)
(-2.25772e-06 1.61428e-06 0)
(2.25635e-06 1.61426e-06 0)
(6.73728e-06 2.05163e-05 0)
(1.65419e-07 2.03379e-06 0)
(-1.16885e-06 4.61804e-07 0)
(1.16791e-06 4.61795e-07 0)
(-3.04586e-06 4.12739e-06 0)
(3.04411e-06 4.12731e-06 0)
(1.37632e-06 7.27978e-07 0)
(2.51678e-06 2.4032e-06 0)
(-2.5183e-06 2.40327e-06 0)
(3.4874e-06 3.19171e-06 0)
(-3.48902e-06 3.19182e-06 0)
(-1.37751e-06 7.27924e-07 0)
(-1.48645e-06 7.657e-06 0)
(-1.93506e-06 6.04161e-06 0)
(-3.73398e-06 8.11889e-05 0)
(-2.58313e-06 3.62415e-06 0)
(2.58142e-06 3.62407e-06 0)
(4.42071e-06 6.32062e-06 0)
(-1.55492e-07 1.73107e-06 0)
(-1.2173e-07 7.12838e-08 0)
(-4.42264e-06 6.32056e-06 0)
(-9.17117e-07 1.971e-06 0)
(-1.22607e-06 1.0212e-06 0)
(1.98947e-06 6.48523e-06 0)
(-1.46308e-06 1.81852e-06 0)
(1.46158e-06 1.81849e-06 0)
(-1.55541e-08 1.71954e-06 0)
(-4.19748e-07 1.66072e-06 0)
(2.75691e-06 7.81851e-06 0)
(-9.92428e-06 3.47381e-05 0)
(9.92136e-06 3.47379e-05 0)
(-2.1457e-06 1.38958e-05 0)
(1.0388e-07 2.63688e-06 0)
(-2.76578e-08 4.25212e-08 0)
(2.76568e-08 4.22972e-08 0)
(9.59722e-07 8.48821e-07 0)
(1.13337e-06 1.12575e-06 0)
(2.20362e-06 1.04638e-05 0)
(-2.31311e-06 1.7087e-06 0)
(2.31172e-06 1.70868e-06 0)
(1.40959e-06 8.10911e-07 0)
(1.04665e-05 7.42827e-05 0)
(1.3783e-06 7.40737e-07 0)
(-3.30904e-06 2.56369e-05 0)
(-1.12299e-06 4.67952e-07 0)
(1.12212e-06 4.67946e-07 0)
(5.49353e-06 1.61246e-05 0)
(-6.88581e-07 1.24608e-06 0)
(-1.41044e-06 8.10951e-07 0)
(1.86421e-05 0.000180427 0)
(-1.85942e-05 0.000180419 0)
(-1.3795e-06 7.40683e-07 0)
(3.99502e-06 1.14263e-05 0)
(-1.18416e-06 4.72355e-07 0)
(1.18321e-06 4.72347e-07 0)
(3.51304e-06 4.36064e-06 0)
(-3.51481e-06 4.36074e-06 0)
(-3.33178e-06 8.65418e-06 0)
(6.60418e-07 2.05089e-06 0)
(-2.12728e-06 8.20619e-06 0)
(-1.82724e-06 1.14552e-06 0)
(1.82597e-06 1.14555e-06 0)
(2.54983e-06 2.90678e-06 0)
(-2.55143e-06 2.90686e-06 0)
(8.64918e-09 6.71339e-07 0)
(2.85752e-06 2.06812e-05 0)
(-2.56315e-06 3.65156e-06 0)
(2.56143e-06 3.65148e-06 0)
(2.44912e-06 8.7183e-06 0)
(-3.16386e-07 1.0387e-07 0)
(3.16115e-07 1.03662e-07 0)
(1.50697e-06 5.24594e-06 0)
(8.47498e-07 1.86546e-07 0)
(-4.8158e-06 7.60341e-06 0)
(3.85868e-06 1.18557e-05 0)
(3.33113e-06 8.42509e-06 0)
(7.00127e-06 2.19698e-05 0)
(-1.47658e-06 4.20389e-06 0)
(1.54e-06 4.10674e-06 0)
(6.77399e-07 6.98759e-06 0)
(-3.21495e-06 3.15342e-06 0)
(3.21333e-06 3.15332e-06 0)
(4.51364e-07 4.62428e-05 0)
(-5.90356e-08 9.69851e-07 0)
(-6.66552e-07 3.23428e-06 0)
(2.2037e-06 7.30137e-06 0)
(1.34203e-06 1.7044e-05 0)
(2.4196e-07 3.70967e-07 0)
(1.90118e-07 2.0602e-06 0)
(-3.36626e-06 1.78147e-05 0)
(3.06458e-06 2.37711e-05 0)
(-8.83794e-08 6.98335e-07 0)
(-4.59239e-07 1.3894e-06 0)
(9.67726e-07 8.73809e-07 0)
(-9.14739e-07 2.00376e-06 0)
(8.20131e-06 2.19966e-05 0)
(-1.26247e-06 9.8365e-06 0)
(1.10585e-06 6.41334e-06 0)
(3.87176e-07 9.49675e-08 0)
(-3.87501e-07 9.50644e-08 0)
(-9.16984e-07 8.17625e-07 0)
(3.16922e-07 9.72773e-08 0)
(-3.17204e-07 9.75286e-08 0)
(1.12757e-06 4.07884e-06 0)
(5.89038e-07 2.97639e-06 0)
(-1.70815e-06 1.42422e-06 0)
(1.70674e-06 1.42422e-06 0)
(-8.6287e-07 2.62699e-07 0)
(-2.17212e-07 9.24478e-08 0)
(2.16997e-07 9.21582e-08 0)
(7.92558e-07 7.12467e-07 0)
(2.90221e-06 3.59919e-05 0)
(-8.48371e-07 1.86662e-07 0)
(1.08055e-06 3.68359e-07 0)
(-1.29497e-06 8.98478e-07 0)
(-8.57487e-07 6.58453e-07 0)
(6.25038e-06 1.06884e-05 0)
(-1.15657e-06 1.67939e-06 0)
(-2.67693e-06 1.48309e-05 0)
(-3.46257e-06 9.65728e-06 0)
(-7.21443e-07 2.1928e-07 0)
(7.20835e-07 2.19234e-07 0)
(-5.46326e-07 4.11975e-06 0)
(3.91286e-07 1.49239e-06 0)
(-1.34852e-07 4.49937e-08 0)
(1.34707e-07 4.47847e-08 0)
(-1.27773e-06 7.34903e-07 0)
(9.06662e-06 0.000341966 0)
(-7.95906e-06 6.76202e-05 0)
(-1.45518e-06 5.97962e-06 0)
(1.3942e-06 3.15739e-06 0)
(-1.39587e-06 3.15743e-06 0)
(3.69504e-06 8.087e-06 0)
(3.89046e-07 2.33097e-06 0)
(-6.42917e-06 6.43966e-05 0)
(1.01204e-07 3.34454e-08 0)
(-1.01337e-07 3.36546e-08 0)
(7.2276e-06 5.80339e-05 0)
(5.27887e-06 7.69776e-05 0)
(3.97615e-08 -8.6328e-08 0)
(-2.55686e-07 7.25677e-06 0)
(5.15015e-07 9.9327e-07 0)
(-4.0568e-06 9.6781e-06 0)
(-8.96535e-07 7.1747e-07 0)
(5.13349e-06 2.4089e-05 0)
(1.43069e-06 3.13916e-06 0)
(-1.43241e-06 3.1392e-06 0)
(5.22908e-06 1.13986e-05 0)
(2.87513e-06 6.07816e-06 0)
(-5.96284e-08 1.04457e-06 0)
(-1.92723e-07 1.02615e-06 0)
(8.17903e-06 5.85947e-05 0)
(1.55298e-06 8.28493e-07 0)
(-1.55415e-06 8.2846e-07 0)
(-1.11191e-07 1.72219e-06 0)
(1.11948e-06 3.24906e-06 0)
(5.40982e-06 1.32247e-05 0)
(3.96894e-07 9.72877e-08 0)
(-3.97227e-07 9.73795e-08 0)
(2.89238e-06 1.36404e-05 0)
(-4.84237e-07 4.87292e-07 0)
(-3.22251e-06 1.48931e-05 0)
(2.69353e-06 2.72569e-06 0)
(-2.6951e-06 2.72577e-06 0)
(5.94302e-07 3.19888e-06 0)
(1.31628e-06 1.33144e-06 0)
(-1.31733e-06 1.33092e-06 0)
(-1.39039e-06 6.50042e-07 0)
(1.38931e-06 6.50054e-07 0)
(-6.93438e-06 6.7776e-05 0)
(1.60787e-06 4.16811e-06 0)
(-3.04572e-08 4.55986e-08 0)
(3.04514e-08 4.53675e-08 0)
(9.83257e-07 1.69188e-06 0)
(-6.26531e-08 7.10099e-08 0)
(-1.13939e-05 0.000263219 0)
(-3.29727e-06 3.42171e-06 0)
(3.29561e-06 3.42161e-06 0)
(7.04737e-06 0.000165881 0)
(-2.17747e-06 1.47755e-06 0)
(2.17615e-06 1.47754e-06 0)
(-2.30664e-06 0.00013754 0)
(-5.08604e-06 2.40871e-05 0)
(5.99418e-07 3.06527e-06 0)
(1.61979e-06 9.44723e-07 0)
(9.02944e-07 1.6525e-06 0)
(5.54674e-07 7.04492e-06 0)
(-1.62102e-06 9.44677e-07 0)
(-5.40638e-06 1.34484e-05 0)
(-2.8032e-07 2.76559e-06 0)
(1.13107e-06 3.34805e-06 0)
(1.52286e-06 3.13082e-06 0)
(-1.52457e-06 3.13087e-06 0)
(-1.02407e-06 4.66139e-07 0)
(1.06064e-06 5.19135e-07 0)