/*--------------------------------*- C++ -*----------------------------------*\
| =========                 |                                                 |
| \\      /  F ield         | OpenFOAM: The Open Source CFD Toolbox           |
|  \\    /   O peration     | Version:  v3.0+                                 |
|   \\  /    A nd           | Web:      www.OpenFOAM.com                      |
|    \\/     M anipulation  |                                                 |
\*---------------------------------------------------------------------------*/
FoamFile
{
    version     2.0;
    format      ascii;
    class       volScalarField;
    location    "5000";
    object      sigmaEq;
}
// * * * * * * * * * * * * * * * * * * * * * * * * * * * * * * * * * * * * * //

dimensions      [1 -1 -2 0 0 0 0];

internalField   nonuniform List<scalar> 
27023
(
2.74649e+07
2.74776e+07
2.01139e+07
2.01052e+07
2.63739e+07
2.63865e+07
8.85553e+07
8.85345e+07
1.07125e+07
1.07117e+07
6.30987e+07
6.30757e+07
2.66938e+06
2.67355e+06
2.5552e+07
1.87639e+07
1.78624e+07
5.4398e+07
5.44182e+07
3.90927e+07
3.90785e+07
8.79758e+07
8.79549e+07
4.04216e+07
4.04111e+07
6.59398e+06
2.8832e+07
4.13278e+06
2.80017e+07
3.12409e+07
1.41212e+07
3.92117e+07
3.91972e+07
4.12866e+07
2.50423e+07
3.20844e+07
3.43299e+07
3.43086e+07
1.05518e+07
1.05511e+07
2.01897e+07
2.01985e+07
2.09407e+07
2.65177e+07
2.65303e+07
5.37435e+07
5.37235e+07
3.90959e+07
3.90823e+07
2.88334e+07
3.77453e+07
3.7732e+07
4.03286e+07
530104
527302
4.52919e+07
1.89602e+07
3.37318e+07
1.61526e+07
2.08329e+07
2.08243e+07
2.79772e+07
5.38456e+06
5.32324e+06
2.08504e+07
1.23617e+07
3.51626e+07
8.21604e+06
2.98644e+07
1.98564e+07
3.26763e+07
3.26546e+07
5.74516e+07
5.74373e+07
8.2113e+07
8.20949e+07
939967
937958
9.62257e+07
9.62453e+07
2.15623e+07
6.091e+07
6.0887e+07
5.57088e+07
5.56946e+07
8.72468e+07
8.72647e+07
3.50604e+07
6.02765e+06
1.69687e+07
1.61004e+07
2.8457e+07
2.84435e+07
2.14435e+07
7.84603e+06
4.07791e+07
4.07852e+07
2.15389e+07
1.69065e+07
5.88676e+06
2.66174e+07
1.64675e+07
1.65333e+07
6.91013e+07
6.90841e+07
4.65814e+06
7.86642e+07
7.86455e+07
4.45529e+07
3.1297e+07
2.02599e+07
7.84003e+07
7.83819e+07
4.02557e+07
4.02452e+07
8.27723e+07
8.27542e+07
2.14291e+07
3.09326e+07
2.2802e+07
1.98734e+07
3.26671e+06
7.60919e+07
7.61159e+07
9.7108e+07
9.70864e+07
2.76749e+07
2.76614e+07
7.0153e+07
7.01357e+07
1.50223e+07
2.75759e+06
2.77493e+06
1.31606e+07
1.7485e+07
8.73304e+07
8.73484e+07
9.57064e+06
5.54184e+07
5.53988e+07
8.27356e+07
8.27571e+07
7.85217e+06
8.53562e+07
8.53357e+07
1.33514e+07
1.5701e+07
3.69844e+07
3.59443e+07
4.53971e+07
4.53796e+07
4.80616e+07
4.80462e+07
2.54383e+07
2.47117e+07
2.69955e+07
2.67731e+07
2.54958e+07
5.47454e+07
5.47259e+07
5.10145e+07
2.15645e+07
4.38647e+07
6.12756e+06
5.59604e+07
5.59775e+07
7.46685e+07
7.46895e+07
1.58046e+07
4.69202e+06
8.13597e+06
9.68963e+07
9.69157e+07
1.86664e+07
1.81729e+07
2.77661e+07
4.09923e+06
7.10247e+06
1.91177e+07
1.06745e+07
3.60559e+07
7.91562e+07
7.9177e+07
2.8033e+07
5.0382e+07
5.3509e+07
3.82872e+07
3.82924e+07
4.6091e+07
1.7251e+07
7.476e+07
7.47811e+07
2.12291e+07
6.01831e+06
9.68642e+07
9.68431e+07
5.69227e+07
7.29561e+07
7.29787e+07
2.88801e+07
2.71724e+07
3.00323e+07
8.06053e+07
8.05868e+07
2.51635e+07
2.51758e+07
1.91638e+07
5.61238e+07
8.03298e+07
8.03112e+07
321390
319632
2.25314e+07
2.043e+07
1.22995e+07
1.23009e+07
2.46209e+07
5.87476e+06
8.36672e+06
8.55689e+07
8.55872e+07
1.51078e+07
7.62643e+07
7.62882e+07
2.59667e+07
7.43547e+07
7.43364e+07
5.78484e+07
5.78343e+07
5.43431e+06
5.43634e+06
6.43772e+06
7.67587e+07
7.67402e+07
5.18171e+07
7.52584e+07
7.52399e+07
8.32843e+07
3.12275e+07
9.47439e+07
9.47656e+07
2.99986e+07
5.35378e+07
5.30331e+07
4.19717e+07
2.29654e+07
6.4789e+06
2.71252e+07
4.42661e+07
4.1097e+07
8.76419e+07
8.76611e+07
1.99393e+07
1.7901e+07
5.64616e+07
5.70522e+07
6.87953e+07
5.2235e+07
4.42042e+07
4.41854e+07
2.0245e+07
1.04046e+07
4.7963e+07
7.73253e+07
7.73068e+07
8.50093e+07
8.49888e+07
6.95961e+06
1.77362e+07
7.22588e+07
7.22357e+07
3.31043e+07
1.89833e+07
3.65203e+07
8.98672e+06
6.70508e+06
5.6178e+07
5.61952e+07
4.44846e+07
4.451e+07
3.8743e+07
4.72822e+07
1.09401e+07
1.05603e+07
714337
718045
1.98859e+07
2.44549e+07
2.13834e+07
3.6062e+07
3.50646e+06
1.92894e+07
7.16539e+07
7.16717e+07
8.59961e+07
8.6014e+07
4.1929e+07
5.56232e+07
8.05672e+07
8.0585e+07
2.9868e+06
1.86991e+07
7.23959e+07
7.24148e+07
1.32483e+07
1.60504e+07
1.60346e+07
2.43374e+07
2.81257e+07
8.55866e+06
3.32942e+06
430605
428695
6.45932e+06
6.46261e+06
3.77991e+07
3.9703e+07
3.97223e+07
1.12026e+06
2.76765e+07
4.1843e+06
4.19991e+06
3.01414e+07
2.49013e+07
2.03059e+07
2.88814e+07
6.53496e+07
9.64692e+06
3.46641e+07
4.20617e+07
1.70793e+07
4.21141e+07
7.48484e+07
7.87661e+06
3.18105e+07
4.01504e+07
4.01664e+07
1.38901e+07
1.87508e+07
6.68698e+07
6.68534e+07
5.50905e+07
5.5369e+07
301303
299655
2.81529e+07
3.07105e+07
3.06969e+07
2.37375e+07
1.10401e+07
4.21943e+07
4.22521e+07
7.9188e+07
7.91696e+07
156527
155333
2.0906e+07
9.19642e+07
9.19834e+07
6.08261e+06
3.41848e+07
7.78328e+07
7.78508e+07
8.47936e+07
8.48177e+07
1.68691e+07
3.4394e+07
1.78857e+07
3.32438e+07
3.32577e+07
9.17008e+07
9.17197e+07
2.11509e+07
5.19588e+07
2.03866e+07
5.31646e+07
5.24746e+07
2.78604e+07
3.44644e+07
3.1676e+07
2.66015e+07
3.16524e+07
8.99951e+07
8.99744e+07
2.58524e+07
1.03697e+07
1.53154e+07
5.41865e+07
3.90336e+07
7.72835e+06
2.66265e+07
1.10537e+07
3.41754e+07
7.28233e+06
1.86326e+07
9.82406e+06
3.35426e+07
1.81956e+07
7.68133e+07
3.60238e+07
5.71985e+07
5.71846e+07
2.51521e+07
2.02213e+07
1.13968e+07
3.35151e+07
3.3529e+07
2.48656e+06
1.82863e+07
3.69608e+07
2.48119e+06
3.69008e+07
956367
951409
1.63293e+07
4.47958e+07
3.17993e+07
5.48129e+07
2.98782e+07
3.86826e+07
1.61277e+07
4.85991e+07
1.78049e+07
7.80296e+06
4.81353e+06
7.34335e+07
7.81659e+07
7.81836e+07
6.78422e+07
8.64461e+06
5.31947e+07
2.34348e+07
7.52174e+07
7.51991e+07
4.98279e+07
4.98416e+07
5.46648e+07
9.40565e+06
1.41629e+07
1.41607e+07
6.89433e+07
6.89182e+07
4.64775e+07
4.64589e+07
445591
447965
1.61777e+07
1.29318e+07
4.33731e+07
1.74909e+07
1.87713e+07
7.58877e+07
7.59115e+07
7.56494e+07
7.56729e+07
4.7534e+07
4.75206e+07
4.97235e+07
4.97054e+07
1.20154e+07
6.52811e+06
1.03685e+07
4.1964e+07
1.86314e+07
5.0908e+07
1.78977e+07
9.45625e+07
9.45844e+07
4.60237e+07
2.34059e+07
1.27116e+07
6.18898e+07
5.30884e+07
3.2408e+07
1.22004e+07
7.21874e+07
7.21699e+07
2.12247e+07
2.1119e+07
1.78067e+07
1.77966e+07
7.59389e+07
7.59205e+07
2.85199e+06
1.36061e+07
1.18171e+07
2.00862e+07
7.45194e+07
1.00274e+07
6.3798e+07
6.38211e+07
2.99559e+07
3.47539e+07
2.6347e+06
4.01722e+07
4.01915e+07
3.37233e+07
3.37088e+07
2.67409e+07
6.38695e+07
3.72501e+07
2.72716e+07
2.7282e+07
4.14252e+07
1.84961e+07
3.42783e+07
3.42631e+07
2.8339e+07
9.09785e+07
9.09518e+07
6.48098e+07
6.47869e+07
3.81505e+07
6.7179e+07
6.71997e+07
2.15957e+07
3.0592e+07
7.0926e+07
7.09074e+07
5.47937e+07
7.91471e+07
7.9165e+07
4.63703e+07
6.79469e+07
6.79637e+07
4.45948e+07
4.46202e+07
1.03565e+07
6.11479e+07
6.1128e+07
3.66822e+07
8.34551e+06
8.52933e+06
1.15087e+07
4.75329e+07
4.75228e+07
8.75844e+07
8.76032e+07
3.36503e+07
5.65903e+07
2.78619e+07
4.26282e+06
3.39776e+07
3.13651e+07
2.00028e+07
1.4117e+07
1.41192e+07
6.5469e+07
8.63591e+07
8.6377e+07
3.35225e+07
3.58994e+06
6.78575e+07
6.78738e+07
3.29638e+07
4.41261e+07
4.41507e+07
2.05526e+06
9.97826e+06
1.37026e+07
2.72013e+07
2.86813e+07
3.3252e+07
3.32384e+07
3.97065e+07
1.95062e+07
6.17676e+07
6.17487e+07
1.50611e+07
3.86591e+07
3.8672e+07
1.18454e+07
3.90792e+07
3.90635e+07
7.03598e+07
7.03817e+07
4.55737e+07
4.55913e+07
4.44201e+07
2.6001e+07
2.5971e+07
4.35735e+07
4.7104e+07
4.71219e+07
3.10668e+07
1.91348e+07
1.52505e+07
4.62766e+07
1.91643e+07
9.24168e+06
2.27188e+07
7.3024e+07
3.77607e+07
3.7748e+07
3.43895e+07
3.86374e+07
3.86267e+07
3.26651e+07
5.47508e+07
5.47644e+07
1.159e+07
6.20355e+06
3.93142e+07
3.93292e+07
7.38019e+07
7.37834e+07
5.65816e+07
1.94943e+07
3.01784e+07
5.88941e+07
5.88775e+07
8.33518e+07
8.33334e+07
2.77021e+07
2.1431e+07
1.07141e+07
1.10756e+07
2.7233e+07
2.72033e+07
3.39594e+07
206222
374707
376751
207351
2.11359e+07
2.39927e+06
2.40261e+06
4.36919e+07
4.3709e+07
2.72324e+07
2.72455e+07
3.98007e+07
3.97847e+07
1.30123e+07
4.88395e+07
4.88278e+07
4.36227e+07
2.18324e+07
4.559e+07
4.56009e+07
2.62941e+07
5.48933e+07
5.4878e+07
3.44688e+07
2.4798e+07
5.34218e+07
4.36281e+07
4.36451e+07
5.25949e+07
6.65e+06
5.30076e+06
2.59134e+07
7.00934e+07
7.01104e+07
2.04133e+07
3.76772e+07
9.14523e+07
9.14713e+07
471143
473601
4.68644e+07
4.68519e+07
4.07604e+07
7.19714e+06
9.34576e+07
9.34396e+07
2.43517e+07
3.79564e+07
1.39169e+07
1.90663e+07
3.2852e+07
3.01525e+07
1.74528e+07
2.99969e+06
1.19751e+07
5.12353e+07
3.07583e+07
4.81503e+07
4.58746e+07
2.45751e+07
2.04278e+07
547123
545754
5.45212e+07
5.45074e+07
3.28157e+07
2.88826e+06
2.10922e+07
7.92855e+06
4.21052e+07
4.52825e+07
3.77843e+07
5.39815e+06
2.89601e+07
3.21975e+07
1.18359e+07
2.47273e+07
2.47139e+07
3.3984e+07
5.93099e+07
7.5317e+06
2.99508e+07
7.21299e+07
7.21123e+07
8.12051e+07
8.12234e+07
483182
480457
5.06168e+06
1.66761e+07
2.30506e+07
8.90203e+06
3.47226e+07
3.47263e+07
2.55896e+07
1.13187e+07
1.13186e+07
8.57089e+07
8.57274e+07
6.74562e+07
6.27761e+07
6.27602e+07
1.99105e+07
5.38007e+07
3.3852e+07
2.04919e+07
5.33978e+07
6.9737e+06
7.03032e+07
7.02847e+07
2.88202e+07
7.5268e+06
8.44599e+07
8.44358e+07
2.85323e+07
7.6496e+07
2.14444e+07
7.65118e+07
2.11295e+07
2.11307e+07
3.85576e+07
2.76063e+07
4.06387e+07
1.80751e+07
4.05013e+07
1.72435e+07
7.09561e+07
1.22716e+07
2.6103e+07
2.60938e+07
8.09749e+07
8.09929e+07
2.09358e+07
6.27925e+06
6.85089e+07
6.85261e+07
4.44576e+07
3.70512e+07
3.0645e+07
1.36087e+07
3.36239e+07
3.07405e+07
3.07269e+07
1.19658e+07
3.59507e+07
3.59412e+07
7.99565e+07
7.99747e+07
2.27382e+06
3.08508e+07
6.6216e+06
7.09004e+07
5.81949e+07
5.81722e+07
3.0623e+07
1.00605e+07
2.23799e+07
4.81956e+07
2.00661e+07
2.64262e+07
1.23987e+07
2.82746e+07
3.39929e+07
8.15545e+07
8.15363e+07
6.57198e+07
6.56967e+07
5.33854e+07
5.24718e+07
1.14165e+07
1.50237e+07
7.90316e+07
7.90132e+07
5.57766e+07
5.06974e+07
3.07897e+06
2.08893e+07
6.60643e+06
5.72103e+06
5.71879e+06
2.09874e+07
8.76839e+06
8.62875e+07
8.6266e+07
5.00385e+06
2.37394e+07
1.01885e+07
9.53444e+07
9.53256e+07
2.83745e+07
2.83839e+07
3.06085e+07
2.35304e+07
2.35434e+07
1.2411e+07
6.51835e+06
6.57784e+06
8.31504e+06
7.3601e+07
7.35826e+07
1.23229e+07
3.9597e+07
3.9616e+07
8.29934e+07
8.29747e+07
2.51806e+07
2.48618e+07
5.10343e+07
5.10161e+07
8.35747e+07
8.35975e+07
8.98699e+06
5.21302e+07
8.59637e+07
8.59414e+07
5.46383e+07
5.92208e+06
4.60888e+07
4.60721e+07
6.51687e+07
6.51498e+07
4.27045e+07
7.06656e+07
7.06828e+07
9.06637e+07
9.06815e+07
4.27116e+07
2.2709e+07
3.22084e+07
1.53311e+07
5.69813e+07
5.69615e+07
7.30363e+07
7.37193e+06
6.66899e+06
7.30499e+07
2.06132e+07
3.31461e+07
3.2635e+07
3.59338e+07
3.59235e+07
6.37586e+06
1.09452e+07
3.93669e+07
5.81054e+07
5.81258e+07
2.34587e+07
2.43072e+06
669126
669430
2.69759e+07
3.01853e+07
2.74115e+07
8.44422e+07
8.44214e+07
4.48286e+07
4.01546e+07
4.42089e+07
2.53271e+07
5.10635e+07
5.10447e+07
5.22301e+07
1.92883e+07
4.48675e+07
2.9044e+07
2.91979e+07
4.4214e+07
4.84177e+07
4.65679e+07
4.65517e+07
7.22842e+07
7.23024e+07
4.71713e+07
1.54075e+07
3.06905e+07
6.71829e+07
6.71603e+07
6.42411e+07
6.42594e+07
1.5843e+07
2.53473e+07
5.73879e+07
5.73681e+07
3.39969e+07
1.05898e+07
1.05867e+07
2.66873e+07
2.67678e+07
7.31821e+07
4.42163e+07
4.64746e+07
5.52441e+07
2.92799e+07
3.10782e+07
1.1215e+07
8.32658e+07
8.32475e+07
7.24824e+06
1.33929e+07
1.40426e+07
3.2381e+07
1.51799e+07
2.04957e+07
5.35405e+06
3.1321e+07
2.53625e+07
1.69443e+07
1.31972e+07
2.72133e+07
2.15032e+07
6.68098e+07
1.76959e+07
1.74524e+07
1.47595e+07
1.47621e+07
2.66727e+07
1.18315e+07
1.18313e+07
2.26038e+07
1.18463e+07
4.89979e+07
4.89873e+07
2.83337e+07
8.9931e+06
8.98921e+06
2.39682e+07
1.49507e+07
2.67611e+07
3.38284e+07
3.63805e+07
2.52257e+07
7.7661e+07
2.83323e+07
2.66274e+07
4.39159e+07
2.96995e+07
2.96859e+07
1.0831e+07
1.22843e+07
2.89881e+06
2.90105e+06
3.89911e+07
4.46866e+06
3.18885e+07
2.39747e+07
3.00253e+07
3.00349e+07
5.4032e+07
9.27243e+06
2.81674e+07
1.46999e+06
1.47036e+06
3.0386e+07
2.12031e+07
1.60992e+07
4.9966e+06
1.80936e+07
5.30833e+07
2.57918e+07
4.00075e+07
3.12746e+07
3.12881e+07
6.2012e+07
4.82059e+07
1.28431e+07
1.39248e+07
3.62996e+07
5.61795e+07
5.62015e+07
7.16806e+06
2.32165e+07
5.96079e+07
1.53062e+07
1.53091e+07
3.20777e+07
2.15853e+07
3.27488e+07
7.22726e+07
7.22906e+07
1.30715e+07
3.49116e+07
3.49009e+07
5.13341e+07
5.13174e+07
2.46223e+07
3.1636e+07
949293
949493
2.36002e+07
2.66291e+06
1.09659e+07
8.07448e+07
8.07264e+07
1.04472e+07
9.28646e+07
9.28387e+07
8.33907e+06
3.94507e+07
1.21662e+07
5.51366e+07
2.15942e+07
9.76585e+06
5.51605e+07
5.80894e+07
6.4221e+06
2.32387e+07
3.27757e+07
3.27904e+07
3.08378e+07
3.15801e+07
5.2033e+07
2.33775e+07
3.54349e+07
8.42722e+06
8.29421e+06
1.27101e+07
1.77923e+07
5.39281e+06
9.11003e+06
2.06698e+07
7.51705e+06
1.18415e+07
3.422e+07
1.94459e+07
4.39677e+07
3.25585e+07
1.91958e+07
5.4275e+07
5.06045e+07
6.20323e+07
6.20521e+07
1.94208e+07
7.4915e+06
2.94974e+07
2.95057e+07
6.1896e+07
6.18771e+07
2.15611e+07
9.30293e+06
4.36434e+07
7.4802e+06
7.48399e+06
7.8636e+07
7.86178e+07
7.31354e+06
1.53994e+07
2.85178e+07
1.69675e+07
6.92976e+06
2.00918e+07
9.02841e+06
8.68521e+06
5.3942e+07
4.74178e+07
4.74068e+07
2.73553e+07
2.7407e+07
1.51996e+07
1.29393e+07
7.87011e+07
7.86829e+07
1.75176e+07
1.2855e+07
2.86813e+07
1.22019e+07
4.935e+07
2.17318e+07
1.92963e+07
1.61668e+07
5.91268e+07
9.66007e+06
1.91287e+07
7.02161e+07
4.94517e+07
4.944e+07
6.22791e+07
1.1977e+07
3.23009e+07
2.59496e+07
2.70027e+07
6.84722e+07
6.84179e+07
2.58186e+07
7.17046e+07
8.89289e+06
8.89398e+06
1.11196e+07
1.1118e+07
2.41437e+07
2.95418e+07
2.7025e+07
8.12113e+07
7.69685e+07
7.69927e+07
1.5107e+07
1.5095e+07
2.0574e+07
8.32676e+07
8.32492e+07
3.32253e+07
3.30016e+07
8.42064e+06
347939
346010
2.6433e+07
1.64257e+07
6.62639e+07
1.77022e+07
7.47902e+07
7.48102e+07
2.74569e+07
6.35755e+07
6.31436e+07
2.42977e+07
1.61344e+07
2.51345e+06
2.81642e+07
2.81641e+07
7.81919e+07
7.82104e+07
1.38999e+07
3.26636e+07
3.26585e+07
7.18844e+07
7.19025e+07
1.47806e+07
4.00281e+07
3.32302e+07
1.39374e+07
2.96976e+07
2.96859e+07
2.57883e+07
1.89625e+07
5.74131e+07
4.92921e+06
3.32317e+07
3.32459e+07
3.44379e+07
1.57902e+07
6.80788e+07
6.68413e+07
6.68229e+07
5.12657e+07
6.41696e+06
2.63237e+07
2.64533e+07
8.80341e+07
8.80095e+07
3.66878e+07
5.37502e+07
5.37354e+07
3.54499e+07
5.66875e+07
4.55073e+07
4.54988e+07
2.76899e+07
2.08163e+07
5.30502e+06
3.80437e+06
4.22002e+07
1.50238e+07
1.10874e+07
439572
436663
5.67138e+07
1.15994e+07
1.15958e+07
6.73451e+07
6.73222e+07
4.57702e+06
8.40126e+07
8.39891e+07
6.32859e+07
6.33051e+07
8.92644e+07
8.9282e+07
2.33738e+07
8.21052e+07
8.2087e+07
7.73658e+06
2.85443e+07
3.00109e+06
2.47826e+07
1.86846e+07
2.50972e+07
6.40983e+07
6.40824e+07
1.98973e+07
1.99129e+07
1.63264e+07
3.15315e+06
9.40663e+06
5.21182e+07
9.98528e+06
3.80852e+07
5.65258e+07
2.03095e+07
1.18336e+07
7.11664e+06
7.11735e+06
5.26202e+07
3.28949e+07
5.20143e+07
3.377e+07
1.57938e+07
1.37283e+07
3.11621e+07
3.11349e+07
3.13321e+07
1.93788e+07
2.99484e+07
2.98908e+07
1.32179e+07
4.07363e+07
7.99144e+07
3.81671e+07
3.81762e+07
5.63474e+07
2.73363e+07
3.02405e+07
3.43865e+07
3.79102e+07
7.99326e+07
3.44076e+07
4.47967e+07
3.63499e+07
1.93624e+07
3.14383e+07
1.15143e+07
2.87213e+07
2.22189e+07
1.73609e+07
7.5811e+06
1.85021e+07
3.05611e+07
3.0215e+07
2.06895e+07
6.48383e+07
6.48195e+07
4.6857e+07
2.07843e+07
1.17701e+07
1.53629e+07
5.52496e+07
4.99941e+07
5.7668e+06
6.64129e+07
2.34463e+07
1.06646e+07
5.0024e+07
2.97616e+07
4.29918e+07
1.82794e+07
9.68856e+06
5.06968e+07
4.9944e+07
3.4684e+07
809030
805470
5.66833e+07
6.10718e+07
6.10948e+07
7.13195e+06
6.82675e+07
6.82477e+07
1.94131e+07
2.93183e+07
2.93052e+07
3.70385e+07
1.10148e+06
9.29787e+06
8.60098e+07
8.59908e+07
7.6432e+06
6.62236e+07
7.21195e+07
2.62861e+07
6.70415e+07
6.70189e+07
3.53531e+07
1.08727e+07
9.48092e+06
6.13506e+07
3.04806e+07
3.04661e+07
506422
503734
7.8924e+06
2.04234e+07
5.02648e+07
5.02463e+07
6.90472e+07
6.90305e+07
6.05915e+07
1.33435e+07
2.56506e+07
6.28735e+07
6.28582e+07
6.35201e+06
815136
818510
6.35569e+07
6.35371e+07
6.93704e+07
6.93873e+07
6.75242e+07
7.82538e+07
7.82352e+07
5.08359e+07
5.08186e+07
3.80797e+07
1.79109e+07
7.28192e+07
7.18609e+07
2.87808e+07
6.28074e+06
7.18483e+07
1.21495e+07
3.39192e+07
4.01775e+07
4.30164e+07
2.59936e+07
7.48709e+07
7.48527e+07
1.76448e+07
6.52013e+07
6.52212e+07
7.8601e+07
7.85828e+07
2.80854e+07
4.97963e+07
4.98091e+07
3.06372e+07
3.06292e+07
3.16626e+07
2.90916e+07
2.90796e+07
3.24808e+07
8.12022e+07
8.12201e+07
2.09205e+07
1.42982e+07
3.24529e+07
1.86354e+07
2.49226e+07
2.48319e+07
1.26785e+07
3.1401e+07
1.87401e+07
2.51062e+07
253633
255409
8.74174e+07
8.74364e+07
1.31178e+07
2.26297e+07
8.87519e+07
8.87272e+07
3.44158e+07
2.68139e+07
1.71412e+07
5.23711e+07
5.27993e+07
2.92191e+07
6.0914e+06
5.52461e+07
9.21327e+06
8.64983e+07
8.65212e+07
3.36071e+07
3.36227e+07
5.03056e+07
5.03257e+07
2.33891e+06
2.32899e+06
1.51901e+07
5.09595e+07
1.07795e+07
2.89919e+07
2.67794e+07
1.67875e+07
4.59561e+06
4.59807e+06
1.51624e+07
3.82509e+06
2.6867e+07
3.27235e+07
3.27383e+07
2.50662e+07
5.33001e+06
3.89788e+07
5.27566e+07
5.27413e+07
3.04159e+07
1.9991e+07
5.63852e+07
5.64049e+07
2.44371e+07
5.22187e+07
5.22312e+07
4.67905e+07
2.40365e+07
2.86209e+07
1.70519e+07
2.01099e+07
2.01038e+07
7.27478e+07
1.51221e+07
4.60357e+07
4.60209e+07
4.79003e+06
4.03914e+07
4.03753e+07
7.88369e+06
5.87115e+07
5.8696e+07
3.14125e+07
3.14264e+07
5.05225e+06
2.05322e+07
2.05499e+07
6.20907e+07
6.211e+07
3.8688e+07
2.06695e+07
3.87074e+07
4.32192e+07
4.32023e+07
3.85009e+07
1.29056e+07
3.07335e+07
3.07663e+07
9.97486e+06
8.03666e+07
8.03411e+07
1.10789e+07
4.95856e+07
7.9495e+07
7.9477e+07
911605
911811
9.9741e+06
6.66632e+07
6.66469e+07
8.85609e+06
3.07342e+07
3.07088e+07
6.88656e+06
6.88615e+06
1.33738e+07
2.92309e+07
7.98548e+07
7.98295e+07
9.13632e+07
9.13833e+07
2.86856e+07
1.25659e+07
1.32926e+07
1.32942e+07
2.10336e+07
261169
259649
8.50669e+07
8.50848e+07
2.2513e+07
1.77882e+07
1.77828e+07
1.01231e+07
6.91519e+07
6.91687e+07
1.70004e+07
1.92285e+07
7.91818e+07
7.92004e+07
7.49307e+07
7.49543e+07
2.10936e+07
1.64114e+07
5.30373e+07
2.56012e+07
1.66188e+07
8.30192e+06
2.68492e+07
2.79561e+07
3.50914e+07
3.5331e+07
6.36032e+07
6.36221e+07
7.94226e+07
7.94041e+07
6.36515e+07
3.37921e+07
9.53771e+06
1.95148e+07
7.5263e+07
3.30969e+07
5.19656e+07
4.82384e+07
5.25656e+07
4.20431e+07
4.20259e+07
3.80551e+07
3.80705e+07
8.54062e+06
1.05922e+07
2.92033e+07
1.32427e+07
1.59135e+07
2.59102e+07
2.80053e+07
1.18905e+07
3.29134e+07
3.28929e+07
1.0148e+07
3.61134e+07
3.6132e+07
1.47341e+07
8.88475e+07
8.88747e+07
7.57307e+07
7.57508e+07
1.7218e+07
5.3225e+07
5.32385e+07
9.70596e+07
9.70398e+07
6.01557e+07
6.01408e+07
4.60797e+07
4.6062e+07
7.0908e+07
1.57686e+07
2.17439e+07
1.08941e+07
3.45114e+07
3.45253e+07
5.4163e+07
5.41764e+07
2.0319e+07
2.02979e+07
1.58621e+07
9.17068e+07
9.16886e+07
3.35977e+07
4.70311e+07
4.71201e+07
2.63165e+07
3.34421e+07
4.93371e+07
1.48572e+07
2.81623e+07
2.81075e+07
6.80592e+06
3.48767e+07
3.18583e+07
3.54216e+06
3.54565e+06
5.99706e+07
1.23549e+07
1.32157e+07
1.71582e+07
4.25104e+07
6.94186e+07
1.7071e+07
2.11419e+07
2.11327e+07
6.76147e+07
6.75961e+07
4.13036e+07
4.12871e+07
1.96422e+07
1.75012e+07
1.63214e+07
1.31928e+07
1.56898e+07
5.8815e+07
2.1746e+07
2.40076e+07
9.53773e+06
6.59453e+07
6.59228e+07
6.68785e+06
6.69104e+06
1.79792e+07
1.59743e+07
4.50807e+07
4.50966e+07
4.90065e+07
4.89878e+07
8.50929e+07
8.50738e+07
2.01643e+07
1.11816e+07
1.10598e+07
5.42311e+06
6.17573e+07
6.25188e+07
7.57122e+07
7.57308e+07
3.45085e+07
3.69328e+06
5.58756e+07
5.5853e+07
3.64137e+07
3.62953e+07
2.69527e+07
1.20463e+07
3.5306e+07
1.77649e+07
2.62844e+07
2.61978e+07
5.19581e+07
5.19415e+07
5.11987e+07
7.43191e+07
7.43005e+07
6.44146e+07
6.43915e+07
6.98472e+07
2.66936e+07
2.6644e+07
2.48493e+07
2.48631e+07
1.29938e+07
2.01441e+07
3.64574e+07
2.95068e+07
2.95287e+07
1.32095e+07
1.3211e+07
1.99217e+07
3.58683e+07
4.77819e+07
4.77944e+07
4.1213e+07
1.87027e+07
8.98249e+07
8.98449e+07
1.81141e+07
4.853e+07
6.15172e+07
1.95134e+07
5.06534e+07
5.90422e+07
5.9057e+07
2.0984e+07
6.34418e+07
6.34261e+07
2.09051e+07
2.01803e+07
5.06719e+07
4.45816e+07
4.45945e+07
2.39349e+07
2.42998e+07
4.56156e+06
7.75634e+07
7.75449e+07
9.49896e+06
1.37375e+07
4.20588e+07
4.20413e+07
2.82634e+07
2.80277e+07
2.78272e+07
9.97225e+06
3.99037e+06
3.92649e+06
4.16135e+07
4.15963e+07
1.80304e+07
1.25036e+07
2.9422e+07
5.51536e+07
5.6969e+06
1.38144e+07
4.69574e+06
6.00638e+06
2.72199e+07
6.63254e+07
2.17243e+07
6.87951e+07
6.87727e+07
2.9233e+07
4.30914e+06
4.31197e+06
6.57545e+07
6.57352e+07
2.26391e+07
7.11765e+07
7.11983e+07
2.85963e+07
6.50838e+07
1.0894e+07
2.07952e+06
2.07816e+06
9.45024e+06
5.61733e+07
5.61909e+07
3.47038e+07
5.56618e+06
3.51797e+07
1.83672e+07
6.36456e+07
3.07085e+07
2.15835e+07
2.16009e+07
4.47386e+07
4.47213e+07
3.37665e+07
1.61901e+07
2.78345e+07
6.1752e+07
6.17676e+07
9.43957e+06
7.98909e+06
7.98627e+06
2.5679e+06
7.98269e+07
7.98451e+07
1.20177e+07
1.76846e+07
2.64544e+07
2.43929e+07
2.43842e+07
3.47457e+07
3.47255e+07
2.42817e+07
2.93731e+07
3.89096e+07
3.87448e+07
4.74904e+07
3.21198e+07
4.87276e+07
6.28094e+06
6.03909e+07
1.9863e+07
2.88034e+07
2.87752e+07
7.79728e+06
2.08018e+07
2.07922e+07
6.48848e+07
6.48758e+07
5.35163e+07
7.36589e+07
5.30085e+06
1.3849e+07
2.82262e+07
6.6384e+06
6.11014e+07
5.88732e+07
4.0617e+07
2.52053e+07
3.38172e+07
1.23877e+07
3.35041e+07
4.08874e+07
4.0904e+07
3.83746e+07
3.83595e+07
5.21663e+07
5.31318e+07
2.52682e+07
3.77758e+07
3.77958e+07
6.80356e+06
4.46573e+07
4.46376e+07
6.23749e+07
6.23904e+07
1.51642e+07
4.54713e+07
1.00815e+07
3.38468e+07
5.98499e+07
252226
254079
2.90037e+07
1.71334e+07
1.9682e+07
1.5122e+07
9.32293e+06
3.13264e+07
3.13131e+07
5.02763e+07
5.02884e+07
2.894e+07
6.36739e+07
8.17657e+07
8.17474e+07
4.4026e+07
4.40361e+07
2.63867e+07
2.1096e+07
2.1478e+07
2.64477e+07
4.70389e+07
4.73048e+07
1.85869e+07
4.22671e+07
4.23454e+07
4.55825e+07
4.56e+07
4.47532e+07
3.01755e+07
3.01619e+07
2.89093e+07
2.88758e+07
3.6634e+07
2.35205e+07
2.35393e+07
1.36997e+07
1.94038e+07
5.18114e+06
2.05933e+07
2.71311e+07
9.43263e+06
9.43276e+06
2.27784e+07
2.71611e+07
4.93501e+07
4.93686e+07
1.90374e+07
2.75533e+07
2.8434e+07
3.27768e+07
3.79008e+07
3.78857e+07
3.46736e+07
7.93933e+07
7.94156e+07
3.14357e+07
3.36238e+07
1.50353e+07
5.26657e+07
4.22264e+07
4.2215e+07
1.55402e+07
3.90512e+07
3.2278e+07
7.30515e+07
7.30697e+07
4.84023e+07
4.83853e+07
2.21352e+07
2.33981e+07
2.18991e+07
1.5704e+07
2.18174e+07
1.97413e+07
2.63222e+07
2.44173e+07
4.16794e+06
6.38378e+06
5.0743e+07
5.07555e+07
8.73025e+06
8.35317e+07
5.5973e+07
5.59874e+07
5.38599e+07
3.37969e+07
3.22222e+07
2.62898e+07
3.38227e+07
7.74781e+07
7.74959e+07
1.15026e+07
3.62303e+07
5.31316e+07
5.31449e+07
3.04598e+07
2.85154e+07
4.62984e+07
81761.3
80591.3
2.73474e+07
6.79472e+07
6.79262e+07
2.82751e+07
1.0349e+07
2.37904e+07
5.49997e+07
4.46371e+07
2.54672e+06
8.35097e+07
1.34259e+06
1.34157e+06
1.9271e+07
3.95023e+07
1.25318e+07
979399
979524
3.25152e+07
4.85738e+07
4.85879e+07
8.6392e+07
8.63701e+07
4.43063e+07
4.43234e+07
3.22938e+07
3.10952e+06
3.11083e+06
3.28358e+07
1.72665e+07
2.41719e+07
4.6826e+06
2.75574e+07
2.58188e+07
6.14653e+07
6.1476e+07
5.61856e+07
5.62033e+07
8.87664e+06
2.80748e+07
7.52495e+07
1.82386e+07
3.74246e+07
1.19603e+06
3.5343e+07
3.67137e+07
9.13078e+07
9.12813e+07
5.87205e+07
2.19635e+07
4.42748e+07
4.42995e+07
1.03327e+07
2.67404e+06
2.37297e+06
2.66383e+07
90054
89203.9
1.55777e+07
1.02001e+07
1.01984e+07
8.25797e+06
7.34625e+07
7.34813e+07
1.27796e+07
2.9459e+07
4.38897e+07
2.94972e+07
6.12538e+07
6.12115e+07
1.40084e+07
2.041e+07
3.02989e+07
6.42437e+06
7.31749e+07
7.3194e+07
3.9382e+07
3.94962e+07
7.62876e+07
1.21048e+07
9.20948e+07
9.21166e+07
3.22173e+07
3.22032e+07
2.65401e+07
6.12865e+07
9.479e+06
4.41107e+07
4.41201e+07
8.29633e+07
8.2945e+07
3.49459e+06
7.78007e+06
3.3078e+07
7.18291e+07
2.65661e+07
1.72364e+07
5.20427e+07
5.20565e+07
1.30839e+07
2.31584e+07
3.19476e+07
5.33668e+07
1.34217e+07
3.14745e+07
4.90395e+07
4.90209e+07
6.80124e+07
8.17891e+07
8.18073e+07
771191
767379
3.93987e+07
2.93025e+07
8.40582e+07
3.57935e+07
4.42895e+07
4.43051e+07
4.50178e+07
2.92703e+07
6.24762e+07
2.65394e+07
1.51539e+07
8.67289e+07
8.67474e+07
5.76095e+07
5.85747e+07
5.85947e+07
9.24652e+07
9.24871e+07
8.40341e+07
304248
302483
2.72979e+07
9.01616e+07
9.01797e+07
4.52101e+07
4.52283e+07
1.26775e+07
1.26783e+07
4.43595e+07
1.46566e+07
6.47128e+07
6.46936e+07
1.30263e+07
1.90838e+07
5.11688e+07
5.11546e+07
3.32977e+07
2.49615e+07
6.59447e+07
6.59285e+07
2.77494e+07
1.33149e+07
1.33095e+07
4.70839e+07
1.09645e+07
2.42225e+07
9.30632e+07
9.30368e+07
6.3565e+07
4.22838e+07
4.2267e+07
3.30775e+07
3.30921e+07
7.21564e+06
7.21504e+06
1.55443e+07
5.61998e+07
8.68209e+06
8.68495e+06
4.89859e+07
4.90045e+07
1.57961e+07
9.87307e+06
2.41855e+07
4.50338e+07
1.31953e+07
9.33021e+06
6.89174e+07
6.88954e+07
6.00731e+07
6.00572e+07
9.74468e+07
9.74682e+07
2.67873e+07
2.86961e+07
2.85705e+07
5.88694e+07
5.8852e+07
2.17081e+07
1.0531e+06
1.05839e+06
1.37303e+07
4.80245e+07
3.01589e+07
3.01558e+07
7.3615e+07
1.93698e+07
3.90389e+07
8.15821e+07
8.16e+07
2.56732e+07
2.79667e+07
2.80077e+07
4.76016e+06
2.2366e+07
4.1999e+06
4.63955e+07
5.66361e+07
5.66583e+07
7.80573e+06
2.34671e+07
8.03806e+07
4.60827e+07
4.61002e+07
1.52773e+07
6.02735e+07
6.02575e+07
6.60225e+06
1.91577e+07
1.92489e+07
5.97704e+06
1.54973e+07
7.71926e+06
6.28648e+07
6.2884e+07
6.10838e+07
6.1061e+07
1.12861e+07
7.60688e+07
7.60867e+07
7.54839e+06
1.36868e+07
7.55353e+06
2.50955e+07
2.51047e+07
2.63177e+07
2.57687e+07
1.51148e+07
4.55264e+06
2.66372e+07
2.39589e+07
6.0877e+07
6.08531e+07
2.13255e+07
2.51001e+07
5.10321e+07
1.95288e+07
7.01472e+07
5.69017e+07
1.97114e+07
2.05564e+07
6.83459e+06
1.23369e+07
8.37718e+07
8.37903e+07
8.29671e+07
8.29854e+07
4.20551e+06
3.3224e+06
3.32912e+06
3.43592e+07
2.06905e+07
2.66602e+07
3.64392e+06
9.98847e+06
6.30074e+07
6.71359e+06
3.15118e+06
8.46053e+07
8.46237e+07
2.22438e+07
1.93814e+07
6.70586e+07
3.49295e+07
3.49146e+07
5.76711e+07
6.97925e+07
1.57428e+07
4.93052e+07
2.08251e+07
4.32046e+07
8.48564e+06
6.37878e+06
1.81517e+07
1.91938e+07
8.8386e+07
8.8404e+07
3.66714e+06
3.67684e+06
2.32337e+07
4.14043e+06
4.21229e+07
4.20859e+07
1.84955e+07
2.27343e+07
2.32434e+07
4.74933e+07
4.75086e+07
6.74142e+07
6.55689e+06
3.71576e+07
2.63283e+07
7.57867e+06
5.39203e+07
1.06736e+07
3.23572e+07
3.17674e+06
3.81049e+06
2.22288e+07
4.2881e+06
1.90354e+07
3.99325e+07
8.4407e+07
8.43884e+07
3.66681e+07
3.66794e+07
2.3092e+07
2.30912e+07
1.1307e+07
4.65998e+07
3.27541e+07
3.21374e+07
3.215e+07
6.62429e+07
2.62617e+07
3.76039e+06
3.28215e+07
2.93949e+07
1.91211e+07
1.3328e+07
3.26249e+06
3.25481e+06
3.12339e+07
3.12561e+07
9.043e+06
9.04379e+06
5.00286e+07
4.13944e+07
2.44905e+07
2.12242e+07
2.64077e+07
2.01946e+07
790931
2.42025e+06
5.18692e+06
2.38408e+07
4.11382e+07
1.10781e+07
9.56263e+06
3.69056e+07
6.09135e+07
6.09258e+07
3.87071e+07
1.37311e+07
8.94272e+06
6.40424e+07
6.40231e+07
5.56015e+07
5.55859e+07
2.73522e+07
1.36641e+07
2.24375e+07
2.59076e+07
2.61127e+07
2.42579e+07
2.56937e+07
8.40186e+06
2.52142e+07
1.63001e+07
1.59146e+07
8.60687e+06
1.90283e+07
2.09886e+06
2.0802e+06
1.09482e+07
3.64691e+07
5.15192e+07
1.24679e+07
3.56953e+07
3.56954e+07
7.41375e+07
4.14752e+07
4.14585e+07
1.34644e+06
1.33908e+06
2.93196e+07
5.9573e+07
5.95574e+07
5.73165e+06
3.22932e+07
1.95875e+07
9.70264e+06
1.69698e+07
1.69476e+07
5.0599e+07
5.06135e+07
1.80396e+07
7.86991e+06
3.64332e+07
7.46259e+07
7.46035e+07
5.97899e+07
5.97754e+07
8.28311e+06
3.62626e+07
3.62731e+07
2.73809e+07
2.45958e+07
7.08557e+07
7.08744e+07
1.3001e+07
2.61246e+07
2.99967e+07
9.79184e+06
41406.4
42116.5
4.55758e+07
4.55911e+07
3.90824e+07
3.91014e+07
7.80085e+06
7.80093e+06
2.13197e+07
3.72427e+06
3.72813e+06
4.42325e+07
6.16375e+07
2.89665e+07
4.25767e+07
4.25595e+07
5.13768e+06
5.19108e+07
5.99749e+06
1.76688e+07
5.67447e+07
4.61949e+07
4.62126e+07
2.5094e+07
1.6509e+07
5.60657e+07
8.22558e+07
8.22797e+07
5.12784e+07
5.94483e+07
5.94204e+07
3.65118e+07
3.6499e+07
12995.9
12857.6
2.43658e+07
2.97824e+07
1.64279e+07
8.01019e+07
2.70836e+07
3.00697e+07
2.43372e+07
2.43526e+07
7.84697e+07
7.84513e+07
1.93522e+07
7.0997e+07
7.09786e+07
3.22998e+07
3.82791e+07
3.8293e+07
6.92394e+07
3.09509e+07
6.51897e+07
6.52056e+07
6.2266e+07
2.96809e+07
4.05039e+07
2.40463e+07
2.51714e+07
5.13072e+07
5.13218e+07
2.45783e+07
2.45725e+07
1.99662e+07
4.51833e+06
6.77633e+07
2.58468e+07
6.98279e+06
3.70804e+07
3.72285e+07
1.4189e+07
9.0768e+07
9.07862e+07
6.2514e+07
6.25294e+07
7.84331e+06
1.34932e+07
1.35586e+07
7.93928e+07
5.57527e+07
3.81591e+07
7.30926e+06
7.20686e+07
2.78086e+07
7.59954e+07
5.77777e+06
7.84888e+06
1.70456e+07
2.26348e+07
4.12668e+07
4.20079e+07
4.19911e+07
5.57767e+06
9.40929e+07
9.41154e+07
4.76612e+07
4.764e+07
2.89622e+07
2.17744e+07
1.1241e+07
1.13228e+07
4.65938e+07
7.43156e+07
7.42968e+07
4.96825e+07
1.72869e+07
1.51147e+07
1.1254e+07
935689
932298
7.75059e+07
4.27558e+06
4.98848e+07
4.98734e+07
2.67051e+07
2.67174e+07
1.87871e+07
1.88047e+07
4.07244e+07
4.13102e+07
4.84337e+06
4.07748e+07
8.48121e+06
2.92114e+07
2.92567e+07
4.16926e+07
2.80503e+07
2.80615e+07
3.18919e+07
5.84786e+07
5.84881e+07
1.15309e+07
1.94793e+07
1.88447e+07
2.32337e+07
1.73612e+07
9.64479e+06
2.59229e+07
7.86224e+07
7.86408e+07
3.501e+07
3.47149e+07
3.47305e+07
9.51754e+07
9.51953e+07
3.25791e+07
2.01551e+07
5.03348e+07
5.03474e+07
1.85484e+07
3.23751e+07
1.35995e+07
2.95172e+07
1.68197e+07
5.48125e+07
3.24637e+07
3.24512e+07
1.09872e+07
1.19567e+07
1.19571e+07
9.05094e+07
9.05269e+07
3.49773e+07
3.68996e+07
2.4001e+07