/*--------------------------------*- C++ -*----------------------------------*\
| =========                 |                                                 |
| \\      /  F ield         | OpenFOAM: The Open Source CFD Toolbox           |
|  \\    /   O peration     | Version:  v3.0+                                 |
|   \\  /    A nd           | Web:      www.OpenFOAM.com                      |
|    \\/     M anipulation  |                                                 |
\*---------------------------------------------------------------------------*/
FoamFile
{
    version     2.0;
    format      ascii;
    class       volScalarField;
    location    "5000";
    object      sigmaxx;
}
// * * * * * * * * * * * * * * * * * * * * * * * * * * * * * * * * * * * * * //

dimensions      [1 -1 -2 0 0 0 0];

internalField   nonuniform List<scalar> 
27023
(
-1.81816e+07
1.81892e+07
1.17181e+07
-1.17129e+07
-1.83667e+07
1.83745e+07
9.8812e+07
-9.87894e+07
4.40688e+06
-4.4008e+06
7.15226e+07
-7.14996e+07
795551
-812900
-2.85772e+07
2.33805e+06
1.58231e+06
-6.12542e+07
6.12759e+07
4.4919e+07
-4.48995e+07
9.82441e+07
-9.82212e+07
5.02501e+07
-5.02346e+07
7.90564e+06
-3.51343e+07
3.72564e+06
-3.46716e+07
3.40465e+07
1.64017e+07
4.49603e+07
-4.4942e+07
-4.56847e+07
-2.82905e+07
3.55085e+07
4.094e+07
-4.09162e+07
4.22448e+06
-4.22159e+06
-1.16881e+07
1.16936e+07
-2.30787e+07
-1.75067e+07
1.75143e+07
6.04648e+07
-6.0443e+07
4.75331e+07
-4.75137e+07
3.14496e+07
4.58664e+07
-4.58473e+07
-4.45622e+07
491.01
-491.552
5.02109e+07
2.09761e+07
3.72468e+07
-1.70106e+07
1.11652e+07
-1.11605e+07
3.09194e+07
4.78796e+06
5.52917e+06
-2.2416e+07
1.45623e+07
3.99742e+07
9.7939e+06
-3.56267e+07
-2.1532e+07
3.92016e+07
-3.91775e+07
6.84614e+07
-6.84433e+07
9.11075e+07
-9.10874e+07
166299
-164320
-1.07401e+08
1.07422e+08
-2.66746e+07
6.91086e+07
-6.90855e+07
6.66916e+07
-6.66736e+07
-9.67123e+07
9.67322e+07
-3.98313e+07
3.83685e+06
-1.79884e+07
1.72447e+07
2.27778e+07
-2.27687e+07
1.99651e+07
-8.13538e+06
-5.03793e+07
5.03892e+07
-2.66108e+07
-1.79246e+07
864102
-2.93061e+07
-1.83502e+07
1.86688e+07
8.02181e+07
-8.01985e+07
3.23818e+06
8.96806e+07
-8.96596e+07
4.95614e+07
3.48349e+07
2.13123e+07
8.99687e+07
-8.9948e+07
4.97227e+07
-4.9708e+07
9.18947e+07
-9.18746e+07
2.21206e+07
-3.62948e+07
-2.70463e+07
2.19709e+07
2.30913e+06
-7.44717e+07
7.44954e+07
1.06434e+08
-1.0641e+08
2.23826e+07
-2.23734e+07
8.15409e+07
-8.15212e+07
-1.64634e+07
-1.95691e+06
1.98954e+06
-1.5381e+07
1.89696e+07
-9.69717e+07
9.69917e+07
9.34992e+06
6.28571e+07
-6.28352e+07
-9.23915e+07
9.24145e+07
-6.5123e+06
9.55705e+07
-9.55481e+07
-1.54636e+07
-1.6939e+07
4.57141e+07
4.07134e+07
3.85054e+07
-3.84908e+07
4.82616e+07
-4.82471e+07
-2.76116e+07
-2.91282e+07
-3.01946e+07
3.01636e+07
2.87365e+07
6.21081e+07
-6.20863e+07
-5.62934e+07
-2.33128e+07
-4.85981e+07
3.36239e+06
-5.75542e+07
5.75736e+07
-8.38913e+07
8.39137e+07
-1.90836e+07
1.9892e+06
5.43676e+06
-1.08045e+08
1.08066e+08
-1.97969e+07
1.97297e+07
-3.08149e+07
2.50523e+06
-6.07447e+06
-2.02233e+07
9.83693e+06
-4.08494e+07
-8.81975e+07
8.82197e+07
-3.06482e+07
-5.59253e+07
-5.95426e+07
-4.77252e+07
4.7736e+07
-5.10435e+07
-1.8216e+07
-8.3868e+07
8.38899e+07
-2.56246e+07
4.31872e+06
1.07114e+08
-1.07091e+08
-6.31228e+07
-8.10718e+07
8.1095e+07
-3.40863e+07
3.04071e+07
-3.61576e+07
8.93416e+07
-8.9321e+07
-1.73292e+07
1.73367e+07
-2.28968e+07
-6.22436e+07
8.91542e+07
-8.91335e+07
24403.9
-24226.3
1.94056e+07
-2.44178e+07
-1.03677e+07
1.0374e+07
-3.00276e+07
2.32501e+06
6.37791e+06
-9.52569e+07
9.52773e+07
-1.65633e+07
-7.49212e+07
7.49447e+07
-2.86922e+07
8.39467e+07
-8.3926e+07
6.9065e+07
-6.90472e+07
1.79341e+06
-1.79338e+06
4.5081e+06
8.64452e+07
-8.64244e+07
-5.74373e+07
8.38364e+07
-8.38159e+07
9.24336e+07
3.46459e+07
-1.03931e+08
1.03954e+08
3.68887e+07
5.93076e+07
5.87998e+07
-4.67842e+07
2.16482e+07
274648
-3.20605e+07
4.89808e+07
-4.57949e+07
-9.92965e+07
9.93182e+07
-2.13035e+07
-1.58404e+07
-6.25984e+07
-6.33496e+07
7.62332e+07
-5.80309e+07
5.04275e+07
-5.04058e+07
1.99072e+07
3.40744e+06
5.35229e+07
8.61769e+07
-8.61563e+07
9.47594e+07
-9.47372e+07
7.167e+06
-1.36274e+07
7.37128e+07
-7.3689e+07
3.71748e+07
-2.15556e+07
-4.03253e+07
9.47399e+06
5.55788e+06
-5.83071e+07
5.83267e+07
-5.03436e+07
5.03673e+07
4.2452e+07
-5.22809e+07
1.04699e+07
-1.02364e+07
-22214.5
21713
-2.16623e+07
-2.69914e+07
1.24379e+07
4.29408e+07
2.39101e+06
-2.08109e+07
-8.20957e+07
8.21162e+07
-9.53131e+07
9.53329e+07
-4.62455e+07
6.1628e+07
-8.92425e+07
8.92626e+07
1.39378e+06
7.98249e+06
-8.23671e+07
8.23877e+07
-1.25325e+07
1.41466e+07
-1.41364e+07
3.03033e+07
3.10365e+07
-5.99537e+06
-193262
-874.216
892.954
879142
-879588
4.17701e+07
-4.67076e+07
4.67296e+07
1.3256e+06
3.03165e+07
1.8214e+06
-1.82295e+06
-3.78624e+07
-2.54765e+07
-2.03402e+07
3.14836e+07
-7.25431e+07
9.68012e+06
4.24358e+07
-5.0923e+07
-1.78788e+07
5.0929e+07
-8.26007e+07
8.38645e+06
3.5306e+07
-3.03587e+07
3.03707e+07
-1.64294e+07
1.06196e+07
7.8115e+07
-7.80959e+07
-6.06669e+07
6.09589e+07
62822.7
-62455.9
-3.30067e+07
1.77886e+07
-1.77809e+07
-2.59072e+07
1.21563e+07
-4.68558e+07
4.68808e+07
8.89809e+07
-8.89602e+07
-33694.9
33698.8
5.88777e+06
-1.03697e+08
1.03718e+08
-5.41606e+06
-4.0683e+07
-8.6451e+07
8.64713e+07
-9.12718e+07
9.12967e+07
1.7472e+07
-3.76262e+07
-6.14917e+06
-2.62921e+07
2.63026e+07
-1.02582e+08
1.02603e+08
-1.71859e+07
-5.78172e+07
-2.12819e+07
-5.87083e+07
-5.84026e+07
-3.48916e+07
-3.8255e+07
3.84382e+07
2.93205e+07
-3.8412e+07
1.00814e+08
-1.00791e+08
-3.08841e+07
1.20796e+07
1.66591e+07
-5.9879e+07
-4.82176e+07
-3.38264e+06
-3.02988e+07
1.13374e+07
4.08022e+07
4.24935e+06
1.84092e+06
-8.9074e+06
3.73623e+07
2.02603e+07
-8.51795e+07
-4.01075e+07
6.85016e+07
-6.84839e+07
2.56329e+07
-2.49241e+07
1.19569e+07
-2.74997e+07
2.75106e+07
1.01601e+06
2.01982e+07
-4.59759e+07
2.75337e+06
4.59125e+07
93641.2
-93706.8
-1.73551e+07
4.95966e+07
3.72356e+07
6.0938e+07
3.27904e+07
-4.31357e+07
1.8572e+07
-5.38566e+07
1.54429e+07
6.73159e+06
4.54037e+06
-8.12219e+07
-8.67971e+07
8.6817e+07
-7.54703e+07
7.12112e+06
5.81008e+07
-2.92638e+07
8.37154e+07
-8.36949e+07
-5.98149e+07
5.98329e+07
6.04799e+07
5.63162e+06
5.08981e+06
-5.0886e+06
-7.62942e+07
7.62701e+07
5.37258e+07
-5.37044e+07
12981.4
-13036.3
-1.87047e+07
-1.34025e+07
-4.82044e+07
-5.0031e+06
-1.28427e+07
-8.29962e+07
8.30205e+07
-8.13107e+07
8.13348e+07
5.31974e+07
-5.3179e+07
4.48039e+07
-4.47886e+07
-1.15089e+07
307775
-1.17214e+07
-4.64375e+07
2.11854e+07
5.66548e+07
-1.93997e+07
-1.03712e+08
1.03736e+08
-5.10536e+07
2.58863e+07
1.30564e+07
6.84302e+07
5.88366e+07
-3.99899e+07
-1.44886e+07
8.31171e+07
-8.30967e+07
-2.33411e+07
2.33974e+07
1.33857e+07
-1.33783e+07
8.54559e+07
-8.54352e+07
2.2258e+06
1.22553e+07
-1.43792e+07
1.88278e+07
8.25974e+07
8.93284e+06
-7.12341e+07
7.12575e+07
-3.31732e+07
4.11402e+07
2.63664e+06
-4.71543e+07
4.71765e+07
2.31961e+07
-2.31867e+07
3.04001e+07
-7.10723e+07
-4.12349e+07
-2.84412e+07
2.84513e+07
-4.5695e+07
-7.40415e+06
4.15932e+07
-4.1572e+07
-3.51017e+07
9.57128e+07
-9.56849e+07
7.25483e+07
-7.25253e+07
-4.73201e+07
-6.48858e+07
6.49066e+07
-2.38879e+07
-3.3988e+07
7.90452e+07
-7.90244e+07
-6.09022e+07
-8.7562e+07
8.7582e+07
5.08626e+07
-7.90965e+07
7.91161e+07
-5.03858e+07
5.04113e+07
-1.20648e+07
5.05703e+07
-5.0554e+07
-4.08108e+07
-8.24895e+06
-9.67944e+06
-1.3315e+07
5.82975e+07
-5.82824e+07
-9.876e+07
9.87811e+07
-3.70757e+07
-6.24423e+07
3.48981e+07
3.79623e+06
-4.22404e+07
-3.88074e+07
2.12203e+07
-4.82184e+06
4.82307e+06
-7.24224e+07
-9.59048e+07
9.59247e+07
3.68078e+07
3.76295e+06
-7.95325e+07
7.9552e+07
-3.98472e+07
-4.90094e+07
4.90248e+07
479770
5.83712e+06
-1.44469e+07
-3.32062e+07
-3.15409e+07
4.08546e+07
-4.08343e+07
-4.39262e+07
-1.01979e+06
7.00415e+07
-7.00202e+07
1.60783e+07
-4.41429e+07
4.41609e+07
-1.29048e+07
2.6615e+07
-2.66044e+07
-7.85479e+07
7.85701e+07
-3.11777e+07
3.11898e+07
4.895e+07
-3.25666e+07
3.25175e+07
4.82303e+07
-3.94008e+07
3.94154e+07
-3.4175e+07
1.62361e+07
-1.85287e+07
-5.11121e+07
3.76823e+06
-9.54273e+06
-1.77171e+07
-8.10334e+07
4.71946e+07
-4.71768e+07
3.75273e+07
4.81002e+07
-4.80843e+07
-3.54798e+07
-6.56212e+07
6.5639e+07
-1.27754e+07
-3.41971e+06
-4.49839e+07
4.50024e+07
8.21999e+07
-8.21793e+07
6.27855e+07
2.30491e+07
3.74077e+07
6.86538e+07
-6.86337e+07
9.31734e+07
-9.31529e+07
2.97654e+07
-2.32645e+07
1.19281e+07
-1.22405e+07
3.32856e+07
-3.32536e+07
-3.79482e+07
-224388
-410585
412811
225617
-2.33275e+07
755483
-762098
-3.92715e+07
3.92862e+07
-2.03766e+07
2.03852e+07
2.59693e+07
-2.59589e+07
5.97144e+06
5.93538e+07
-5.93377e+07
-4.83834e+07
-2.29999e+07
-5.60193e+07
5.6035e+07
-2.89845e+07
6.49025e+07
-6.48832e+07
-3.79486e+07
-2.84973e+07
5.92096e+07
-2.89028e+07
2.89142e+07
5.81743e+07
4.35737e+06
-36931.7
-2.77078e+07
-8.14027e+07
8.14227e+07
-8.0993e+06
4.628e+07
-1.03424e+08
1.03446e+08
12597.7
-12639.8
5.22974e+07
-5.22821e+07
4.53793e+07
-7.22775e+06
1.03728e+08
-1.03708e+08
-3.03872e+07
-4.65655e+07
8.59468e+06
2.05164e+07
3.9647e+07
3.39268e+07
1.88501e+07
-1.64468e+06
-1.34173e+07
-5.66017e+07
3.62729e+07
5.34537e+07
-5.10546e+07
-2.59389e+07
-2.14715e+07
47894.7
-48162.8
6.53894e+07
-6.53716e+07
3.88893e+07
-3.16399e+06
-2.29096e+07
-8.2839e+06
4.67555e+07
5.00765e+07
-4.66589e+07
-5.0715e+06
3.25226e+07
-3.5683e+07
-1.21115e+07
2.10599e+07
-2.10509e+07
4.1796e+07
6.57678e+07
-6.24651e+06
-3.27484e+07
8.29759e+07
-8.29556e+07
-9.01273e+07
9.01479e+07
-17086.2
16721.4
-4.45055e+06
-6.02628e+06
-2.60195e+07
-3.18649e+06
-4.31202e+07
4.31342e+07
2.84172e+07
3.5855e+06
-3.58516e+06
-9.55782e+07
9.55987e+07
-7.50168e+07
7.35837e+07
-7.35646e+07
-1.3179e+07
5.953e+07
-3.73497e+07
-2.16736e+07
5.90302e+07
6.57406e+06
7.83997e+07
-7.83791e+07
3.1637e+07
-9.11546e+06
9.10238e+07
-9.09985e+07
-3.1569e+07
-8.47252e+07
-2.48055e+07
8.47453e+07
2.23626e+07
-2.2321e+07
4.26978e+07
3.11368e+07
-4.47743e+07
-1.80349e+06
-4.47557e+07
-2.08306e+07
7.85656e+07
-1.45136e+07
2.74907e+07
-2.74801e+07
-8.98207e+07
8.98409e+07
2.259e+07
6.20621e+06
-7.93787e+07
7.93986e+07
-4.92632e+07
4.06565e+07
3.31049e+07
1.56649e+07
3.67769e+07
1.79925e+07
-1.79848e+07
-1.2754e+07
4.45987e+07
-4.4582e+07
-8.88333e+07
8.88536e+07
1.0174e+06
-3.38852e+07
-6.17999e+06
-7.85099e+07
6.57009e+07
-6.56776e+07
3.34681e+07
3.83784e+06
-2.38678e+07
-5.3266e+07
-2.18273e+07
-3.17512e+07
-1.22652e+07
-3.15871e+07
3.76517e+07
9.04431e+07
-9.04229e+07
7.28302e+07
-7.28069e+07
5.91095e+07
-5.81464e+07
-1.30511e+07
5.86263e+06
8.7912e+07
-8.78917e+07
-6.17101e+07
-5.59679e+07
1.64474e+06
-2.28865e+07
6.97665e+06
3.15752e+06
-3.15063e+06
-2.38436e+07
-9.44591e+06
9.57613e+07
-9.5738e+07
-2.49229e+06
2.55418e+07
-4.92316e+06
1.06584e+08
-1.06563e+08
-3.15934e+07
3.16082e+07
-3.76187e+07
-1.86355e+07
1.86441e+07
-1.32094e+07
-6.00944e+06
3.12207e+06
5.72352e+06
8.20451e+07
-8.20246e+07
-1.17102e+07
-4.62991e+07
4.63204e+07
9.20362e+07
-9.20152e+07
-3.08656e+07
3.06734e+07
4.48529e+07
-4.48378e+07
-9.16737e+07
9.16979e+07
1.05922e+07
-5.79379e+07
9.41033e+07
-9.40795e+07
-6.06381e+07
-4.45755e+06
4.4772e+07
-4.47575e+07
7.29858e+07
-7.2965e+07
-5.14704e+07
-8.18116e+07
8.18318e+07
-1.0079e+08
1.0081e+08
5.1478e+07
2.48587e+07
3.57559e+07
1.61819e+07
6.42461e+07
-6.42242e+07
-8.09338e+07
4.89921e+06
6.18969e+06
8.09513e+07
2.57613e+07
4.13815e+07
-3.59182e+07
4.43979e+07
-4.43818e+07
920127
1.18333e+07
-4.35445e+07
6.47965e+07
-6.48196e+07
2.52125e+07
-2.85621e+06
62149.1
-60757.3
-3.2333e+07
-3.71292e+07
-3.00087e+07
9.39227e+07
-9.39003e+07
-5.4238e+07
-4.47112e+07
-5.30869e+07
2.78032e+07
4.26399e+07
-4.26246e+07
-5.76724e+07
2.17555e+07
5.42881e+07
-3.18917e+07
3.21198e+07
5.30985e+07
-5.33695e+07
4.59362e+07
-4.59214e+07
-8.0354e+07
8.03743e+07
5.2259e+07
-1.85071e+07
3.38926e+07
7.481e+07
-7.47869e+07
-7.34799e+07
7.35008e+07
104496
-2.76735e+07
6.46375e+07
-6.46158e+07
-3.74282e+07
6.94006e+06
-6.93732e+06
-2.95537e+07
-3.01361e+07
8.12403e+07
-4.88311e+07
-5.11378e+07
-6.12546e+07
3.30802e+07
-3.52886e+07
-1.18395e+07
9.25962e+07
-9.25759e+07
-5.08376e+06
1.19498e+06
1.62669e+07
-3.59447e+07
-1.53593e+07
-8.52455e+06
-5.04427e+06
3.40318e+07
-2.70117e+07
2.40205e+06
1.36865e+07
-3.2057e+07
2.63336e+07
-7.42264e+07
1.84392e+07
-1.90268e+07
-4.94416e+06
4.94549e+06
3.14673e+07
-9.6967e+06
9.69836e+06
-2.54473e+07
-1.43461e+07
5.97612e+07
-5.97456e+07
3.22913e+07
6.99975e+06
-6.99948e+06
-2.69541e+07
-1.59296e+07
3.01285e+07
-3.93887e+07
4.51194e+07
2.87374e+07
-8.62436e+07
3.5091e+07
2.9095e+07
4.86719e+07
1.96189e+07
-1.96107e+07
1.17274e+07
-1.19313e+07
265517
-265925
4.79619e+07
-1.4376e+06
3.56174e+07
2.64824e+07
-3.51497e+07
3.51674e+07
-5.98582e+07
-1.09063e+07
3.04241e+07
-71761.7
71568.4
-3.38633e+07
-2.32226e+07
-705584
4.04933e+06
-1.69068e+07
5.86252e+07
3.01566e+07
-4.39021e+07
-3.64831e+07
3.65003e+07
-6.86408e+07
-5.3562e+07
1.13373e+06
6.56673e+06
-3.98617e+07
-6.22311e+07
6.22544e+07
2.57756e+06
-2.69952e+07
-6.59537e+07
-5.22302e+06
5.22445e+06
-3.50622e+07
1.6006e+07
3.56084e+07
-8.24479e+07
8.24686e+07
-1.534e+07
-4.34818e+07
4.35079e+07
5.68586e+07
-5.68372e+07
2.67989e+07
-3.57006e+07
216438
-214318
-2.90487e+07
1.40662e+06
1.05228e+07
8.99919e+07
-8.99713e+07
-1.04756e+07
9.73537e+07
-9.73266e+07
5.53053e+06
4.30878e+07
-1.4489e+07
-6.36559e+07
-2.68363e+07
-9.11147e+06
6.36795e+07
6.47499e+07
7.5694e+06
-2.70251e+07
-3.83729e+07
3.83918e+07
3.71473e+07
-3.82076e+07
5.79196e+07
2.86377e+07
3.92041e+07
-8.6441e+06
6.60029e+06
-1.35052e+07
-2.17759e+07
2.53426e+06
8.43041e+06
-1.34256e+07
-8.93501e+06
451667
3.77262e+07
2.20149e+07
-4.88601e+07
-3.5873e+07
-1.62488e+07
-5.99494e+07
5.61766e+07
-5.2544e+07
5.25606e+07
1.10307e+07
-4.46219e+06
-3.44711e+07
3.44846e+07
7.05006e+07
-7.04792e+07
-2.39539e+07
-9.3696e+06
4.84037e+07
-5.56804e+06
5.56824e+06
8.74668e+07
-8.74467e+07
5.98352e+06
1.30401e+06
-3.11149e+07
-8.75168e+06
-7.17547e+06
-1.71249e+06
-7.72575e+06
-1.91649e+06
5.97678e+07
5.79378e+07
-5.7922e+07
3.36621e+07
-3.36021e+07
1.50822e+07
1.44143e+07
8.76984e+07
-8.7678e+07
7.66563e+06
1.53664e+07
3.40814e+07
-1.27721e+07
-5.47793e+07
-2.32625e+07
2.13507e+07
-1.78347e+07
6.5353e+07
-1.0026e+07
-2.03652e+07
7.76521e+07
6.01573e+07
-6.0141e+07
-6.91484e+07
1.18065e+07
3.81105e+07
-2.86897e+07
2.97807e+07
7.66353e+07
-7.65738e+07
-3.00967e+07
-7.94864e+07
-3.31283e+06
3.31474e+06
5.96194e+06
-5.95984e+06
2.20621e+07
3.1725e+07
-2.91485e+07
9.05317e+07
-8.245e+07
8.24749e+07
1.27272e+07
-1.27183e+07
-1.46259e+07
9.26855e+07
-9.2665e+07
-3.7199e+07
3.67107e+07
-1.00571e+07
-20813
20750.6
-3.05272e+07
-1.44917e+07
7.36738e+07
-1.96568e+07
-8.49283e+07
8.49501e+07
3.26955e+07
7.0288e+07
-6.97769e+07
2.64114e+07
1.73516e+07
-2.39264e+06
3.47582e+07
-3.47423e+07
-8.70451e+07
8.70656e+07
-1.62815e+07
-4.06128e+07
4.06231e+07
-8.17699e+07
8.17905e+07
1.80454e+07
-4.41418e+07
3.70945e+07
-1.45974e+07
3.21687e+07
-3.21538e+07
-2.84351e+07
1.31512e+07
6.35916e+07
-637736
-2.60408e+07
2.6051e+07
-3.78764e+07
1.82076e+07
7.55276e+07
7.60458e+07
-7.60249e+07
5.6526e+07
-7.46444e+06
-2.88167e+07
2.83272e+07
9.37516e+07
-9.37259e+07
-4.025e+07
6.37743e+07
-6.37554e+07
3.91545e+07
-6.28881e+07
-5.02525e+07
5.02513e+07
3.36877e+07
2.31567e+07
1.79889e+06
-2.77761e+06
-4.67706e+07
1.47975e+07
-1.1965e+07
34503
-34706.5
6.29414e+07
7.53417e+06
-7.53089e+06
7.52077e+07
-7.51847e+07
34760.7
9.18666e+07
-9.18422e+07
-6.16227e+07
6.16422e+07
-9.9115e+07
9.91345e+07
2.56464e+07
9.13664e+07
-9.13462e+07
7.43296e+06
-3.08414e+07
-1.29111e+06
-2.84357e+07
1.98218e+07
-2.69931e+07
7.10572e+07
-7.10386e+07
-1.87279e+07
1.87386e+07
1.8735e+07
-2.56731e+06
1.44156e+06
5.79108e+07
1.01079e+07
4.22172e+07
-6.26709e+07
9.58373e+06
-1.25321e+07
2.74713e+06
-2.74698e+06
5.83805e+07
-4.02356e+07
5.75771e+07
-3.74116e+07
-1.81831e+07
7.3709e+06
3.87964e+07
-3.87663e+07
3.80636e+07
2.11107e+07
-3.3843e+07
3.38726e+07
-1.43195e+07
-4.47852e+07
-8.86791e+07
-4.73918e+07
4.74068e+07
6.2415e+07
-3.01238e+07
3.67245e+07
-3.87613e+07
4.70064e+07
8.87007e+07
3.87744e+07
4.93537e+07
4.04599e+07
2.37213e+07
3.71062e+07
-1.2039e+07
3.24575e+07
2.4364e+07
1.85706e+07
-5.80399e+06
-1.99289e+07
3.41044e+07
-3.66959e+07
-2.25261e+07
7.20356e+07
-7.20147e+07
-5.17936e+07
1.44282e+07
-1.32105e+07
-1.54924e+07
6.15433e+07
-5.97318e+07
7.1576e+06
-7.38377e+07
-2.56186e+07
1.12111e+07
5.97578e+07
3.27017e+07
-4.8111e+07
2.05123e+07
-8.90365e+06
5.6237e+07
-5.53915e+07
3.80986e+07
55294.5
-56291.2
-6.26503e+07
-6.80663e+07
6.80897e+07
3.23361e+06
7.81572e+07
-7.81365e+07
9.34188e+06
1.64861e+07
-1.64789e+07
-4.07655e+07
313296
9.47745e+06
9.55686e+07
-9.55473e+07
-4.57742e+06
-7.33614e+07
7.97557e+07
-2.92523e+07
7.55431e+07
-7.55207e+07
-4.17034e+07
1.17015e+07
7.25386e+06
-6.80796e+07
3.59374e+07
-3.59245e+07
9415.24
-9497.12
4.77565e+06
2.23329e+07
4.2785e+07
-4.27698e+07
8.06732e+07
-8.06535e+07
-6.71589e+07
1.47852e+07
2.98793e+07
7.44267e+07
-7.44081e+07
3.64487e+06
-143403
142396
-7.02798e+07
7.0263e+07
-8.06819e+07
8.07016e+07
-7.47168e+07
8.73433e+07
-8.73227e+07
5.57457e+07
-5.5725e+07
4.14521e+07
-1.92573e+07
-8.14876e+07
7.96971e+07
3.38536e+07
2.23882e+06
-7.96798e+07
1.44894e+07
4.17745e+07
4.41941e+07
4.81396e+07
2.83839e+07
8.33365e+07
-8.33163e+07
-2.15386e+07
-6.36503e+07
6.36705e+07
9.0028e+07
-9.00074e+07
-3.14437e+07
-6.00921e+07
6.01097e+07
3.59068e+07
-3.58931e+07
-3.56853e+07
3.43875e+07
-3.43656e+07
3.56078e+07
-9.02096e+07
9.02299e+07
2.27831e+07
-1.57302e+07
-3.619e+07
-6.81372e+06
3.10531e+07
-3.09748e+07
1.37224e+07
-3.45246e+07
1.65784e+07
-2.74622e+07
-3725.54
3716.88
-9.86204e+07
9.86417e+07
-1.39618e+07
2.51789e+07
9.52755e+07
-9.52499e+07
-3.80405e+07
3.30598e+07
1.81459e+07
-5.90186e+07
5.93506e+07
3.58677e+07
-2.2593e+06
-6.14905e+07
8.07861e+06
-9.43069e+07
9.4331e+07
-3.8993e+07
3.90129e+07
-5.70335e+07
5.70556e+07
1.45452e+06
-1.46801e+06
1.60526e+07
-5.62431e+07
-1.13115e+07
-3.15561e+07
-3.30246e+07
-6.80481e+06
1.00925e+06
-1.00968e+06
-1.62009e+07
-2.14149e+06
3.10341e+07
-3.56001e+07
3.56143e+07
2.79283e+07
-2.10565e+06
-4.31751e+07
6.25325e+07
-6.25133e+07
-3.81452e+07
6.04346e+06
-6.3383e+07
6.34045e+07
-2.64256e+07
-6.30314e+07
6.30484e+07
-5.20261e+07
-2.86167e+07
-3.57905e+07
-1.88624e+07
2.13308e+07
-2.14078e+07
8.06971e+07
1.80561e+07
4.65173e+07
-4.65029e+07
2.14317e+06
3.73309e+07
-3.73163e+07
6.32155e+06
6.92016e+07
-6.91827e+07
-2.21716e+07
2.21806e+07
-3.87114e+06
-2.09478e+07
2.0961e+07
-6.9451e+07
6.94722e+07
4.29097e+07
-2.52307e+07
-4.26854e+07
3.66102e+07
-3.6596e+07
4.24904e+07
-1.41885e+07
-3.79114e+07
3.79367e+07
9.39048e+06
8.0893e+07
-8.08673e+07
1.13124e+07
5.46915e+07
8.80825e+07
-8.80624e+07
-186126
187750
-3.53653e+06
7.80644e+07
-7.80452e+07
9.70115e+06
3.63086e+07
-3.62854e+07
3.67556e+06
-3.67464e+06
-1.10032e+06
3.55535e+07
8.04325e+07
-8.04071e+07
-1.02254e+08
1.02276e+08
3.29044e+07
3.84404e+06
-4.71749e+06
4.71865e+06
2.36826e+07
-22809.2
22726.3
-9.41596e+07
9.41794e+07
-2.52956e+07
7.56068e+06
-7.55796e+06
1.13182e+07
-8.06194e+07
8.06393e+07
-2.10458e+07
-1.09993e+07
-8.88059e+07
8.88266e+07
-8.07457e+07
8.07699e+07
-2.47539e+07
2.2229e+06
-5.89081e+07
2.76138e+07
-1.81979e+07
-9.39695e+06
3.04677e+07
3.36656e+07
-3.84287e+07
3.84985e+07
-7.21576e+07
7.21789e+07
8.84994e+07
-8.84788e+07
7.06611e+07
-3.72046e+07
-8.29736e+06
3.06052e+06
-8.32814e+07
-3.64111e+07
5.75182e+07
5.35038e+07
-5.80586e+07
4.85271e+07
-4.85064e+07
-2.9011e+07
2.90225e+07
7.20096e+06
-1.01669e+07
-3.55242e+07
1.72156e+06
-3.65492e+06
2.96561e+07
-3.25778e+07
-1.37537e+07
3.88845e+07
-3.88626e+07
867030
-4.34876e+07
4.35104e+07
-1.79878e+07
-9.10561e+07
9.10839e+07
-8.53036e+07
8.5325e+07
-1.29285e+07
-6.39938e+07
6.40115e+07
1.0808e+08
-1.08058e+08
7.13944e+07
-7.13765e+07
3.45252e+07
-3.45118e+07
7.85417e+07
1.90566e+07
2.48371e+07
-1.16115e+07
-3.02909e+07
3.03028e+07
-6.50332e+07
6.50507e+07
-2.24492e+07
2.20427e+07
-1.90718e+07
1.01863e+08
-1.01843e+08
3.79842e+07
-5.18017e+07
5.18066e+07
-2.97683e+07
-3.71337e+07
5.44051e+07
-1.6502e+07
3.4562e+07
-3.45021e+07
5.00673e+06
-3.86976e+07
3.56661e+07
756637
-756909
6.65686e+07
1.37306e+07
1.36108e+07
-1.95077e+07
-4.71695e+07
-7.68195e+07
1.84459e+07
1.19409e+07
-1.19354e+07
7.67908e+07
-7.67697e+07
3.92157e+07
-3.92009e+07
-2.14925e+07
1.84743e+07
1.7845e+07
1.03884e+07
-1.89198e+07
-6.50694e+07
2.38854e+07
2.60932e+07
1.14318e+07
-7.41537e+07
7.41282e+07
1.26717e+06
-1.26776e+06
2.0282e+07
1.62936e+07
-5.05749e+07
5.05935e+07
3.50523e+07
-3.50388e+07
9.43856e+07
-9.43643e+07
-2.41938e+07
-1.23244e+07
1.22385e+07
6.08769e+06
-6.86006e+07
6.94534e+07
-8.4388e+07
8.44087e+07
3.81302e+07
-1.45522e+06
6.32907e+07
-6.32676e+07
-4.06577e+07
4.0422e+07
3.0159e+07
-1.19947e+07
-3.90582e+07
-1.92611e+07
3.22602e+07
-3.21947e+07
4.94076e+07
-4.93922e+07
-5.68442e+07
8.3908e+07
-8.38872e+07
7.20435e+07
-7.20202e+07
7.73201e+07
3.3477e+07
-3.34347e+07
-2.11996e+07
2.12089e+07
1.2048e+07
-2.23183e+07
-4.55002e+07
-3.54423e+07
3.54667e+07
-4.1406e+06
4.14134e+06
2.03641e+06
4.49519e+07
-5.79437e+07
5.79609e+07
4.57566e+07
2.00662e+07
-1.01122e+08
1.01144e+08
1.93686e+07
5.38832e+07
-6.82981e+07
2.13375e+07
-6.03822e+07
-7.00062e+07
7.00248e+07
2.42131e+07
7.46306e+07
-7.46114e+07
1.40837e+07
2.42171e+07
6.03986e+07
-5.41144e+07
5.41323e+07
-2.77942e+07
2.95525e+07
-338611
8.69927e+07
-8.69721e+07
7.71487e+06
-1.30982e+07
5.01082e+07
-5.00868e+07
3.1389e+07
-3.25608e+07
3.23482e+07
3.54322e+06
2.38344e+06
-2.23096e+06
4.79708e+07
-4.79503e+07
1.0053e+07
-1.47408e+07
-3.26168e+07
6.08895e+07
-4.6042e+06
-1.66331e+07
-5.58724e+06
2.30287e+06
3.14025e+07
7.36141e+07
-2.53862e+07
7.03465e+07
-7.03232e+07
-3.33034e+07
1.0995e+06
-1.09975e+06
7.55252e+07
-7.55046e+07
2.57411e+07
-8.02969e+07
8.03194e+07
3.24478e+07
7.26849e+07
-1.02968e+07
-81409.7
81283.2
5.14262e+06
-6.50285e+07
6.50491e+07
-4.18744e+07
4.51915e+06
4.32106e+07
-520008
-7.06056e+07
3.32878e+07
-2.23178e+07
2.233e+07
3.9231e+07
-3.92163e+07
-3.71208e+07
1.68312e+07
3.21555e+07
-7.28674e+07
7.28858e+07
-8.3451e+06
4.83779e+06
-4.83613e+06
-872700
-8.86549e+07
8.86751e+07
-1.25419e+07
2.17144e+07
-2.94904e+07
2.56022e+07
-2.56619e+07
4.09268e+07
-4.09046e+07
-2.95331e+07
3.22389e+07
-4.26593e+07
4.2769e+07
5.22901e+07
-3.59043e+07
-5.38692e+07
4.06955e+06
-6.65836e+07
-1.40896e+07
3.43111e+07
-3.42831e+07
-1.01505e+06
1.33371e+07
-1.33311e+07
7.21726e+07
-7.21591e+07
5.9611e+07
8.14066e+07
5.40162e+06
1.27735e+07
3.48403e+07
2.83828e+06
-6.76254e+07
-6.5141e+07
4.48388e+07
2.79178e+07
-3.72109e+07
-1.23692e+07
3.68718e+07
-4.68009e+07
4.68205e+07
4.75262e+07
-4.75102e+07
5.91334e+07
-5.97383e+07
2.65018e+07
-4.45008e+07
4.45229e+07
4.69397e+06
-4.93445e+07
4.95007e+07
-7.35552e+07
7.3574e+07
1.85609e+07
5.04014e+07
-1.08322e+07
-3.70204e+07
-6.64029e+07
8241.03
-8301.98
3.22726e+07
-1.7453e+07
2.11968e+07
-1.84659e+07
9.88641e+06
3.46459e+07
-3.46304e+07
-6.10757e+07
6.10919e+07
3.31809e+07
-7.04921e+07
9.10432e+07
-9.10229e+07
-5.44149e+07
5.443e+07
2.90312e+07
2.0509e+07
2.33057e+07
3.01343e+07
5.19578e+07
-5.20691e+07
2.09151e+07
-4.64982e+07
4.65036e+07
-3.20738e+07
3.20862e+07
4.93543e+07
2.06492e+07
-2.06407e+07
3.4352e+07
-3.43226e+07
4.4654e+07
-2.65542e+07
2.64643e+07
-1.63037e+07
1.43355e+07
1.65695e+06
-1.85846e+07
-3.3084e+07
3.42426e+06
-3.42042e+06
-2.771e+07
3.3116e+07
-5.70189e+07
5.70403e+07
2.23717e+07
2.96045e+07
3.13729e+07
3.64046e+07
3.13435e+07
-3.13311e+07
3.87088e+07
-8.74603e+07
8.74837e+07
3.8005e+07
3.70794e+07
-1.84692e+07
-5.81479e+07
5.18866e+07
-5.18697e+07
1.82619e+07
4.34007e+07
3.54651e+07
-8.11241e+07
8.11444e+07
5.30446e+07
-5.30287e+07
2.74091e+07
-2.90474e+07
-2.40104e+07
-6.42471e+06
2.47084e+07
2.15175e+07
2.87905e+07
-2.67789e+07
3.13493e+06
-3.7186e+06
-6.15458e+07
6.15626e+07
7.57352e+06
9.289e+07
-6.66704e+07
6.66886e+07
5.96956e+07
-4.25267e+07
3.55409e+07
-2.94829e+07
4.25609e+07
-8.59033e+07
8.59233e+07
1.23081e+07
4.43056e+07
-6.41938e+07
6.42105e+07
3.67645e+07
-3.16696e+07
5.11342e+07
7333.9
-7225.22
3.15813e+07
7.69012e+07
-7.68797e+07
3.06106e+07
-2.12881e+06
2.61645e+07
6.11645e+07
-4.95014e+07
-2.23021e+06
-9.28656e+07
53683.2
-53879.3
-2.00636e+07
4.34171e+07
1.42938e+07
81600.2
-80023.4
4.02976e+07
-5.81327e+07
5.81514e+07
9.57442e+07
-9.57208e+07
-3.06476e+07
3.06595e+07
3.56654e+07
1.77673e+06
-1.76239e+06
-3.61449e+07
-1.77894e+07
2.53616e+07
2.71806e+06
-3.23136e+07
-3.03483e+07
6.8346e+07
-6.8342e+07
-6.52005e+07
6.52212e+07
-8.45208e+06
-3.35508e+07
-8.30572e+07
2.18236e+07
-4.14932e+07
-1.24074e+06
3.90124e+07
4.05965e+07
9.57419e+07
-9.57145e+07
-6.52592e+07
-2.36419e+07
-5.01355e+07
5.01603e+07
-1.08067e+07
-3.01028e+06
961048
2.90428e+07
11867.6
-11792.7
-1.5952e+07
8.15181e+06
-8.15024e+06
-627677
-8.4436e+07
8.4457e+07
-1.43436e+07
-3.67196e+07
4.85164e+07
3.6751e+07
-6.77676e+07
6.77355e+07
1.58239e+07
-1.89789e+07
-3.40908e+07
4.59442e+06
-8.36661e+07
8.3687e+07
4.4001e+07
-4.40691e+07
-8.46426e+07
1.36133e+07
-1.01226e+08
1.01249e+08
1.85578e+07
-1.85498e+07
-3.24437e+07
6.73942e+07
-9.20033e+06
-5.42424e+07
5.42568e+07
9.20871e+07
-9.20666e+07
-917187
-5.23535e+06
3.93141e+07
7.97602e+07
3.24691e+07
2.02918e+07
-6.22328e+07
6.2251e+07
-1.52013e+07
2.55233e+07
-3.8692e+07
-5.92894e+07
-1.5071e+07
-3.72702e+07
5.64985e+07
-5.64771e+07
7.48761e+07
-9.08179e+07
9.08382e+07
112236
-111867
4.37337e+07
3.53819e+07
9.31238e+07
-4.31959e+07
-4.97052e+07
4.97241e+07
-5.03986e+07
3.33405e+07
-6.94215e+07
3.17368e+07
-1.61201e+07
-9.70487e+07
9.70694e+07
-6.35333e+07
-4.73072e+07
4.73233e+07
-1.02361e+08
1.02385e+08
-9.30965e+07
-11531.4
11497.5
3.01276e+07
-1.0005e+08
1.0007e+08
-5.29641e+07
5.29854e+07
-3.55483e+06
3.55516e+06
4.89669e+07
1.59e+07
7.29196e+07
-7.28982e+07
-1.36726e+07
-2.02829e+07
6.11278e+07
-6.11091e+07
-3.77385e+07
-2.76023e+07
7.71544e+07
-7.71355e+07
-3.2062e+07
9.11035e+06
-9.10564e+06
5.22803e+07
109884
-2.76344e+07
9.84396e+07
-9.84119e+07
7.05685e+07
4.86313e+07
-4.86105e+07
-3.65573e+07
3.65736e+07
3.3733e+06
-3.37281e+06
1.63771e+07
6.21867e+07
-5.95833e+06
5.95979e+06
-5.65208e+07
5.65422e+07
-1.90793e+07
6.57199e+06
2.52644e+07
5.04159e+07
1.46027e+07
1.10329e+07
6.96714e+07
-6.96489e+07
7.05558e+07
-7.05364e+07
-1.07338e+08
1.07361e+08
-2.92749e+07
-3.31649e+07
3.28727e+07
6.8303e+07
-6.82825e+07
-2.69761e+07
-259007
259904
-1.41661e+07
-5.33006e+07
3.53305e+07
-3.53165e+07
-8.19157e+07
2.09396e+07
-4.2917e+07
-9.04609e+07
9.0481e+07
-2.82655e+07
-3.49556e+07
3.49897e+07
1.89785e+06
2.57052e+07
-2.2658e+06
-5.11876e+07
-6.35375e+07
6.35607e+07
-7.73131e+06
-2.90598e+07
8.95186e+07
-4.14997e+07
4.15146e+07
1.69921e+07
7.0669e+07
-7.06497e+07
1.00901e+06
-2.13512e+07
-2.1616e+07
5.86983e+06
-1.52231e+07
6.57509e+06
-7.04342e+07
7.04554e+07
6.79735e+07
-6.79501e+07
-1.19177e+07
-8.69722e+07
8.69927e+07
-6.1405e+06
1.29445e+07
6.13319e+06
-2.7374e+07
2.73813e+07
3.13059e+07
-2.71645e+07
1.57945e+07
5.45824e+06
-3.01613e+07
2.33855e+07
6.77332e+07
-6.77107e+07
-1.73321e+07
-3.12366e+07
5.62168e+07
-2.2962e+07
-7.78278e+07
-6.27772e+07
-2.21224e+07
1.45126e+07
6.70454e+06
1.24413e+07
-9.48829e+07
9.49038e+07
-9.24455e+07
9.2466e+07
2.55981e+06
2.38306e+06
-2.39713e+06
-3.86799e+07
-1.73286e+07
3.01919e+07
-3.8325e+06
7.64698e+06
-6.97448e+07
-6.6383e+06
3.0164e+06
-9.44797e+07
9.45001e+07
-2.01997e+07
6.36343e+06
7.45401e+07
1.96623e+07
-1.96538e+07
-6.38589e+07
7.75386e+07
1.80083e+07
5.45212e+07
2.27367e+07
-4.87823e+07
5.46983e+06
-5.85384e+06
-1.82352e+07
483659
-9.79316e+07
9.79516e+07
2.77406e+06
-2.75937e+06
2.56663e+07
4.49961e+06
4.97145e+07
-4.9677e+07
2.23598e+07
-1.76289e+07
2.2304e+07
-5.65276e+07
5.65474e+07
7.47192e+07
-5.64123e+06
4.56009e+07
-3.12931e+07
1.09318e+06
-5.98511e+07
1.95687e+06
-3.57588e+07
-592036
3.08482e+06
2.44843e+07
2.47617e+06
2.28453e+07
-4.40857e+07
9.37841e+07
-9.37633e+07
-4.2183e+07
4.21989e+07
2.59654e+07
-2.59768e+07
9.89623e+06
-5.17936e+07
3.8625e+07
-2.97498e+07
2.97616e+07
-7.35029e+07
2.90603e+07
-2.37692e+06
3.89368e+07
-3.63077e+07
-2.36074e+07
-1.31132e+07
-2.20111e+06
2.22115e+06
-3.72642e+07
3.72889e+07
-3.51349e+06
3.51391e+06
5.54611e+07
-5.06918e+07
2.39246e+07
-1.44787e+07
-2.93035e+07
2.34357e+07
720493
-2.85138e+06
-5.05182e+06
-2.60303e+07
5.04411e+07
-2.12629e+06
1.12983e+07
4.61027e+07
6.73941e+07
-6.74019e+07
4.23852e+07
-3.2995e+06
-1.05848e+07
7.20528e+07
-7.20314e+07
6.55821e+07
-6.55626e+07
-3.32781e+07
-1.39338e+07
-2.47473e+07
-3.06907e+07
3.0916e+07
2.89466e+07
-2.7735e+07
-8.22017e+06
-2.73133e+07
-1.72779e+07
1.69058e+07
-9.04018e+06
-7.85915e+06
1.22187e+06
-1.22581e+06
1.16415e+07
-4.44831e+07
5.69641e+07
-1.32464e+07
-4.4687e+07
4.46952e+07
-8.2794e+07
4.96291e+07
-4.96082e+07
387030
-386037
3.15559e+07
7.00107e+07
-6.99915e+07
143891
-3.58304e+07
825937
2.1017e+06
-1.9622e+07
1.96023e+07
-6.04345e+07
6.04531e+07
-1.89851e+07
5.18996e+06
4.4505e+07
8.21912e+07
-8.21679e+07
7.1136e+07
-7.1118e+07
3.32179e+06
-4.51669e+07
4.51812e+07
3.33082e+07
2.69931e+07
-7.98157e+07
7.98367e+07
1.23465e+07
-2.84359e+07
-3.2594e+07
1.10441e+07
-34389
34258.8
-5.44188e+07
5.44384e+07
-4.58514e+07
4.58733e+07
2.86729e+06
-2.86715e+06
-2.32667e+07
1.00297e+06
-1.00328e+06
-4.92265e+07
-6.83414e+07
3.15187e+07
5.06929e+07
-5.06719e+07
5.94923e+06
-5.73755e+07
5.44185e+06
-5.32467e+06
-6.27843e+07
-3.96422e+07
3.9657e+07
-2.80702e+07
-1.67302e+07
-6.22835e+07
-8.91879e+07
8.9213e+07
5.67743e+07
6.61962e+07
-6.61724e+07
4.46661e+07
-4.46472e+07
-25736.8
25645
2.95422e+07
3.44802e+07
1.95157e+07
8.88889e+07
3.30401e+07
3.54784e+07
-2.95094e+07
-2.90363e+07
8.80685e+07
-8.80479e+07
3.98991e+06
7.89694e+07
-7.89488e+07
-3.54064e+07
-4.38141e+07
4.3831e+07
-7.67277e+07
3.41651e+07
-7.66365e+07
7.66558e+07
-6.93433e+07
3.44061e+07
4.99265e+07
2.48231e+07
2.7729e+07
-6.10846e+07
6.11036e+07
2.7473e+07
-2.74568e+07
-1.46515e+07
-2.52527e+06
7.50894e+07
2.81531e+07
-7.23168e+06
-4.04161e+07
4.05474e+07
-1.32105e+07
-1.00985e+08
1.01005e+08
-7.39159e+07
7.39349e+07
6.90258e+06
-1.56145e+07