/*--------------------------------*- C++ -*----------------------------------*\
| =========                 |                                                 |
| \\      /  F ield         | OpenFOAM: The Open Source CFD Toolbox           |
|  \\    /   O peration     | Version:  v3.0+                                 |
|   \\  /    A nd           | Web:      www.OpenFOAM.com                      |
|    \\/     M anipulation  |                                                 |
\*---------------------------------------------------------------------------*/
FoamFile
{
    version     2.0;
    format      ascii;
    class       volScalarField;
    location    "5000";
    object      sigmaxy;
}
// * * * * * * * * * * * * * * * * * * * * * * * * * * * * * * * * * * * * * //

dimensions      [1 -1 -2 0 0 0 0];

internalField   nonuniform List<scalar> 
27023
(
-1.50172e+07
-1.50242e+07
-1.11049e+07
-1.11e+07
-1.43077e+07
-1.43146e+07
-1.39841e+07
-1.39789e+07
-5.6004e+06
-5.59843e+06
-1.37137e+07
-1.37063e+07
-1.31015e+06
-1.31676e+06
-2.45866e+06
1.07706e+07
1.0293e+07
-2.44613e+06
-2.44934e+06
-1.97002e+06
-1.96679e+06
-1.25812e+07
-1.25764e+07
-1.33e+06
-1.32479e+06
-375691
3.61825e+06
-1.37065e+06
3.32215e+06
-2.98172e+06
-732288
-2.39783e+06
-2.3955e+06
-2.07752e+06
-1.60953e+06
-1.80701e+06
-1.08616e+06
-1.0814e+06
-5.58867e+06
-5.58753e+06
-1.11165e+07
-1.11215e+07
-1.93314e+06
-1.44928e+07
-1.44997e+07
-2.37226e+06
-2.36908e+06
-1.58667e+06
-1.58356e+06
-2.59246e+06
-793982
-790698
-2.27413e+06
-83072.2
-82849
-2.10301e+06
-1.72826e+06
-1.52853e+06
-2.87152e+06
-1.14833e+07
-1.14784e+07
-1.62231e+06
-1.9914e+06
-870700
-3.08554e+06
-367697
-1.76091e+06
7078.84
3.80005e+06
-2.77967e+06
-1.43684e+06
-1.43197e+06
-4.12951e+06
-4.12433e+06
-1.45217e+06
-1.4519e+06
-339429
-337271
-5.70706e+06
-5.70869e+06
1.35764e+06
-1.30051e+07
-1.29977e+07
-4.55835e+06
-4.55325e+06
-738839
-738743
-1.75834e+06
-2.90371e+06
-2.77007e+06
-2.66655e+06
-1.46881e+07
-1.46808e+07
7.99237e+06
-2.06266e+06
-455291
-457085
1.90621e+06
-3.105e+06
-3.36661e+06
-1.84116e+06
-211081
-130552
-8.75085e+06
-8.7446e+06
-2.0418e+06
-8.93608e+06
-8.93131e+06
-2.21334e+06
-1.80405e+06
-3.47399e+06
-9.35369e+06
-9.34883e+06
-438965
-434560
-860136
-859794
2.75711e+06
438430
-1.25087e+06
-2.02612e+06
-1.46436e+06
-2.82992e+07
-2.83079e+07
-1.34231e+07
-1.34195e+07
-1.41724e+07
-1.41651e+07
-9.45176e+06
-9.44522e+06
-1.71827e+06
-1.47434e+06
-1.46946e+06
-1.16999e+06
-2.48185e+06
51489.7
51549.9
3.45215e+06
-2.78466e+06
-2.78194e+06
-1.54978e+07
-1.55047e+07
3.34036e+06
-1.36651e+07
-1.36594e+07
-621511
-2.07185e+06
137070
-2.46324e+06
-2.22835e+07
-2.22749e+07
-1.89429e+07
-1.89353e+07
-3.01174e+06
-887298
-653343
-643186
-1.98288e+06
-2.86781e+06
-2.86518e+06
-1.76367e+06
-2.81499e+06
-1.38021e+06
-3.16405e+06
-1.99722e+07
-1.99774e+07
-1.39373e+07
-1.39449e+07
2.34989e+06
2.54185e+06
-3.80136e+06
-7.10551e+06
-7.10731e+06
-2.91661e+06
-2.67154e+06
-2.48382e+06
-2.01574e+06
3.11116e+06
-3.10662e+06
4.32362e+06
-2.46499e+06
-1.44542e+07
-1.4461e+07
-2.0726e+06
-2.05788e+06
-1.66031e+06
-439203
-440093
-1.53116e+06
-3.01262e+06
-1.52212e+07
-1.52291e+07
3.05576e+06
-2.65382e+06
-1.36269e+07
-1.36232e+07
-604186
-1.58965e+07
-1.59045e+07
792074
-2.55051e+06
3.4308e+06
-958389
-957138
-1.36325e+07
-1.36393e+07
-20775.7
-1.81756e+06
-385627
-384483
-180017
-179024
8.98144e+06
-756774
-5.35632e+06
-5.35419e+06
2.66382e+06
3.23953e+06
-3.5263e+06
-3.01144e+06
-3.01237e+06
-1.48974e+06
-2.74995e+07
-2.75079e+07
-1.46423e+06
-4.16283e+06
-4.16094e+06
-4.67589e+06
-4.66996e+06
-2.69455e+06
-2.69525e+06
-2.72008e+06
-3.28288e+06
-3.28117e+06
-1.60156e+06
-2.37232e+06
-2.37132e+06
-216125
-2.01999e+06
-1.60305e+07
-1.60351e+07
2.91159e+06
-1.95751e+06
-2.03696e+06
-2.52395e+06
7.87342e+06
-3.73731e+06
4.90988e+06
-842646
-2.03198e+06
-7.08155e+06
-7.08453e+06
-2.86257e+06
7.36996e+06
-371412
-1.11018e+06
-1.47376e+06
-605724
-2.70018e+06
-2.69825e+06
3.68009e+06
5.83034e+06
455631
-1.72083e+06
-1.71985e+06
-1.34575e+07
-1.34521e+07
-1.71107e+06
7.96271e+06
-2.48362e+07
-2.48289e+07
-1.14079e+06
-1.78642e+06
-1.58736e+06
-1.82671e+06
-2.5173e+06
-1.92867e+07
-1.92916e+07
-1.97336e+06
-1.97664e+06
-2.54651e+06
-2.09208e+06
-3.06665e+06
-2.93346e+06
-72934.7
-72395
-2.28675e+06
-1.96431e+06
1.06246e+07
-4.23334e+06
-1.48083e+06
-2.89089e+06
-4.97703e+06
-4.97956e+06
-1.06347e+06
-1.0636e+06
-2.09741e+06
-2.03307e+06
-947210
-947627
-1.59099e+06
1.00636e+07
-1.19605e+07
-1.19676e+07
-358274
-6.81666e+06
-6.8112e+06
2.26974e+06
-2.57045e+06
-3.68289e+06
-1.88614e+06
19164.9
18233.8
-2.36059e+06
-2.36167e+06
-2.48747e+06
-2.31357e+06
-2.31814e+06
134803
-2.81106e+06
-2.28207e+06
-2.29097e+06
2.17121e+06
5.44434e+06
1.34872e+06
-2.92707e+06
-430156
-2.38458e+06
1.5427e+06
-3.31183e+06
5.40745e+06
-3.23492e+06
-850384
-2.02587e+06
-1.70715e+06
-2.11265e+07
-2.1135e+07
-868109
9.51447e+06
-7.16476e+06
-7.15924e+06
-674158
-656079
-168967
-168036
4.63694e+06
-1.69987e+07
-1.69911e+07
-1.15444e+06
-1.53725e+06
-2.47912e+06
-2.49583e+06
-3.57889e+06
-3.57731e+06
-6279.35
-6218.68
1.16567e+07
-6.19231e+06
-6.19447e+06
-2.12894e+06
-155328
-572472
-573414
-2.08577e+07
-2.08654e+07
-3.20836e+06
-2.69597e+06
9.90212e+06
-1.70778e+07
-1.70853e+07
-5.65169e+06
-5.65331e+06
8.7311e+06
-2.22279e+06
1.57772e+06
-1.76993e+06
-1.83826e+06
1.3037e+06
-614286
-852638
-1.90484e+06
-850417
-1.26757e+07
-1.26711e+07
4.58567e+06
2.43105e+06
-1.97701e+06
-2.31228e+06
-756751
3.84135e+06
5.81539e+06
-2.46802e+06
-184779
-3.61475e+06
1.07188e+07
-3.21506e+06
-1.79461e+06
-1.6747e+06
-656726
-1.65005e+06
-5.17788e+06
-5.17193e+06
7.35278e+06
3.0223e+06
-1.51923e+06
-1.6776e+07
-1.67833e+07
1.30717e+06
-2.42334e+06
254443
-291072
431852
-388378
-386517
-3.29984e+06
-1.65428e+06
-4.46311e+06
-2.19011e+06
-1.69598e+06
-1.71762e+06
3.86728e+06
-1.18944e+06
4.31748e+06
3.13112e+06
-1.50424e+06
-891696
-1.28275e+06
-1.28368e+06
-260006
-3.3328e+06
-1.64895e+06
2.70337e+06
-1.28482e+06
-1.28403e+06
-3.28498e+06
-3.28941e+06
-1.4818e+06
3.88048e+06
-7.24217e+06
-7.24069e+06
-105242
-106770
-2.65335e+06
-2.64974e+06
-205143
-206283
3.55641e+06
-2.57514e+06
-2.35321e+06
9.71966e+06
8.22221e+06
-1.88491e+07
-1.8857e+07
-1.93372e+07
-1.9345e+07
-1.82903e+06
-1.82291e+06
-2.27424e+07
-2.27335e+07
4.61303e+06
3.76634e+06
-1.09956e+06
-2.5781e+06
4.88123e+06
-231840
-2.47248e+06
-1.43323e+07
-1.43366e+07
-1.42529e+06
-1.59991e+06
-2.94365e+06
-1.79508e+06
-1.99375e+06
2.38145e+06
-445268
-5.05922e+06
-5.05614e+06
-422459
-730442
-9.43431e+06
-9.42932e+06
-3.97741e+06
-3.97572e+06
-1.19915e+06
5.61721e+06
-160099
4.21779e+06
123031
-3.02038e+06
-1.57082e+07
-1.57149e+07
-2.30159e+06
-4.36864e+06
-766712
-1.6786e+06
-1.68346e+06
-1.82912e+07
-1.82832e+07
5.83348e+06
-438482
-2.63258e+06
-9.57597e+06
-9.58258e+06
-2.26079e+06
1.00979e+07
-626757
-626354
1.77387e+06
-2.34554e+07
-2.3448e+07
-1.40831e+07
-1.40756e+07
-127467
-2.66709e+07
-2.66785e+07
-1.90284e+06
-1.48939e+06
-1.56806e+06
-1.56666e+06
-2.24566e+06
-1.52208e+06
-1.5225e+06
-986009
-5.82434e+06
-5.82816e+06
-2.60037e+06
-2.60457e+06
-949867
-2.95874e+07
-2.95777e+07
-1.7373e+06
-2.14933e+06
-1.26127e+06
2.28651e+06
-3.45521e+06
-3.44782e+06
-6.6366e+06
-6.63885e+06
-2.53199e+06
-2.07223e+06
1.33057e+06
-1.44566e+06
1.07994e+06
2.40099e+06
-3.17676e+06
-7.05722e+06
-7.05866e+06
-1.01449e+06
-409435
-409659
-2.81154e+06
-670736
-6.6003e+06
-6.6058e+06
-1.04039e+06
-1.50956e+06
-1.52683e+06
1.1766e+06
4.62417e+06
-2.1365e+06
3.66495e+06
-2.7143e+06
-642935
-641977
-1.94375e+06
1.12472e+07
-3.07697e+06
-3.07454e+06
-2.64552e+06
-2.51854e+06
-2.51942e+06
-1.8357e+06
-2.11922e+07
-2.11836e+07
-1.53701e+07
-1.53782e+07
-2.45803e+07
-2.45898e+07
-1.36191e+06
2.02104e+06
1.97848e+06
-2.47684e+06
-2.31461e+07
-2.3155e+07
-1.79391e+06
7.97482e+06
1.62127e+06
-2.43218e+06
1.08837e+07
-1.72915e+06
9.69877e+06
-203512
-522638
-517732
-3.05576e+06
-349736
-343978
-3.01196e+06
-3.82024e+06
-3.82555e+06
-1.80876e+06
-3.09385e+06
-1.79312e+06
-1.79465e+06
-1.54039e+06
-1.53933e+06
-986134
3.89308e+06
2.71152e+06
-4.25339e+06
-4.25002e+06
-2.61589e+06
-2.61474e+06
-3.25592e+06
-2.91961e+06
-841397
-897500
134656
138854
14948.4
-11286.5
-121606
-122280
-11372
-2.10493e+06
-1.19595e+06
-1.20091e+06
-2.01958e+07
-2.0204e+07
-1.43678e+07
-1.4375e+07
-2.17393e+07
-2.17305e+07
7.05474e+06
-2.94234e+06
-2.93634e+06
-1.88175e+06
-3.87606e+06
-2.64996e+06
-2.65595e+06
-2.20978e+06
-3.5321e+06
-3.52824e+06
-1.75962e+06
-1.92436e+06
-1.07617e+06
-2.37338e+07
-2.3743e+07
-2.29078e+06
-3.07395e+06
3.05992e+06
-3.66839e+06
-5.45476e+06
-5.45861e+06
1.08662e+07
599852
-5.39969e+06
-5.4016e+06
-230530
-231787
-2.65938e+06
-2.65295e+06
-1.93105e+06
-1.59635e+06
-888441
-888215
1.52502e+06
-623439
6.30301e+06
-159990
-1.13846e+06
-2.5827e+06
-2.10062e+06
-1.63883e+06
2.99278e+06
-2.14858e+06
-1.87552e+06
-1.65344e+06
-1.32266e+06
5.20874e+06
-3.00453e+06
-104131
-104904
-3.88593e+06
-3.88076e+06
1.15973e+06
812216
-2.43863e+06
-1.32834e+06
-300154
-1.47464e+06
110312
-1.78366e+06
-234840
142256
3.86451e+06
-1.21128e+07
-1.21057e+07
2.3114e+06
-1.50357e+06
-2.89383e+06
-3.01267e+06
-5.48041e+06
-5.47753e+06
-396392
-396960
-14000.5
-13999
-1.67845e+06
9.21322e+06
-1.57316e+06
4.94986e+06
216962
213404
-1.80919e+06
-5.60852e+06
-5.60809e+06
-2.09932e+06
-2.10023e+06
-1.16726e+06
-5.03207e+06
-5.02788e+06
8.77971e+06
-1.65343e+06
-2.13161e+06
-3.25411e+06
-2.37874e+06
-2.18441e+06
-2.28741e+06
-2.28593e+06
-1.90682e+06
1.18713e+06
-1.95652e+07
-1.95579e+07
-1.53942e+06
-714612
5.01763e+06
-709455
-2.00209e+06
-1.96126e+06
-2.06878e+06
2.5061e+06
-2.44159e+06
1.03919e+07
-2.41837e+06
2.47894e+06
-315035
-240202
-8.13771e+06
-8.13108e+06
-713596
-713846
-2.98057e+06
-1.99341e+06
-5.19365e+06
-5.19715e+06
-1.87699e+06
-1.54007e+06
-3.01617e+06
-1.35165e+06
-2.75856e+06
-1.69706e+07
-1.6963e+07
-2.38479e+06
-612003
-609802
-1.06154e+06
-1.06206e+06
-1.23191e+06
-2.74568e+06
-2.62495e+06
-326266
-1.4098e+07
-1.40925e+07
-2.38521e+06
5.50415e+06
-3.12282e+06
-1.72975e+06
-1.79279e+06
4.31775e+06
4.40747e+06
4.89247e+06
-2.65721e+06
-1.6171e+06
-1.61669e+06
-1.63853e+07
-1.63781e+07
-2.56678e+06
-2.49003e+06
-818196
8.02336e+06
-2.08919e+06
-2.08851e+06
-1.87959e+06
-2.1469e+06
-1.55384e+06
-1.50592e+06
-1.55392e+06
-3.18315e+06
-3.18235e+06
-1.79259e+06
-1.65313e+06
-1.46194e+07
-1.46135e+07
2.68036e+06
-3.40345e+06
5.10074e+06
-4.15884e+06
-4.15783e+06
-7.13666e+06
-7.14031e+06
2.55176e+06
-1.20451e+07
-1.20521e+07
-1.7346e+06
-2.14483e+06
-3.40527e+06
-3.68459e+06
-2.12192e+06
-2.12076e+06
-3.45403e+06
-2.22708e+06
-2.23259e+06
-199179
-198758
3.05494e+06
2.91078e+06
-2.38414e+07
-2.38324e+07
-1.71721e+07
-1.71791e+07
-576799
-1.27547e+06
-1.64698e+07
-1.64636e+07
-1.38462e+06
2.75023e+06
-1.92151e+07
-1.92069e+07
-1.85627e+06
-1.85392e+06
-5.49836e+06
-5.82572e+06
-5.82913e+06
-68148.8
-68155.9
-5.50382e+06
-2.76073e+06
-1.77901e+06
-2.05673e+06
-2.38561e+06
-2.38304e+06
-556085
3.55984e+06
-2.66601e+06
-551834
1.19434e+06
1.45483e+06
-2.81991e+06
62908.4
65077.9
3.65319e+06
3.4648e+06
-1.67315e+06
-60833.2
-66349.6
-3.22195e+06
291520
-129412
-129666
4.33143e+06
3.3345e+06
-3.15363e+06
-1.4667e+07
-1.46611e+07
-4.75267e+06
-1.28944e+06
-5.20898e+06
-1.23818e+06
-2.48569e+07
-2.48475e+07
-1.64588e+06
4.95161e+06
-4.71979e+06
-2.69964e+06
-2.64024e+06
-5.21338e+06
-2.01315e+06
-1.86294e+07
-1.86215e+07
-1.25013e+06
-1.2519e+06
-1.54556e+06
2.07257e+06
-1.78345e+06
-1.49069e+07
-1.48991e+07
-3.5951e+06
-3.5977e+06
9.14614e+06
-1.47817e+06
-2.80101e+06
-2.79833e+06
-2.61087e+06
-5.73349e+06
-5.73213e+06
-2.48678e+06
-3.75988e+06
-683881
-2.5251e+06
-2.44215e+06
-1.87017e+06
-1.66571e+06
-1.7536e+06
-1.89231e+06
-2.63445e+06
-2.63355e+06
-3.36841e+06
7.72137e+06
-599019
-1.96563e+06
-3.46506e+06
1.10596e+07
2.07625e+06
-3.08011e+06
-3.33339e+06
9.72718e+06
4.56972e+06
4.95872e+06
1.63123e+06
165780
-3.21532e+06
-2.279e+06
-7.38799e+06
-7.38959e+06
4.80237e+06
-5.4793e+06
-5.47787e+06
-2.3986e+06
-430065
-3.03214e+06
-3.02457e+06
2.46102e+06
-4.39344e+06
-4.39062e+06
5.86925e+06
-2.51996e+06
-3.77665e+06
-5.57389e+06
-30640.6
5.49279e+06
336771
1.79357e+06
-3.14832e+06
-1.95434e+06
-1.62326e+07
-1.62251e+07
-2.09052e+06
4.45323e+06
-945037
-946183
-1.57802e+06
-2.44289e+06
-1.07177e+06
-2.27057e+06
-1.84854e+06
-1.84552e+06
-1.51855e+06
1.2757e+06
-2.76384e+06
-267240
-266797
-500962
-1.95602e+06
9.27871e+06
-1.97063e+06
6.88151e+06
-2.21253e+06
5.06223e+06
-2.79452e+06
-1.34025e+06
-1.34086e+06
-1.98969e+06
-1.41238e+06
7.40523e+06
7.38125e+06
-2.79369e+06
-1.48171e+07
-1.48221e+07
3.9821e+06
-1.43357e+06
-1.82491e+06
-7.69757e+06
-7.69931e+06
-3.10627e+06
9.6899e+06
-3.20298e+06
-4.5055e+06
-4.50803e+06
-697009
1.17322e+06
1.16022e+06
-1.48778e+07
-1.48754e+07
-2.66012e+06
-2.40008e+06
-339527
-339173
2.6061e+06
-1.43451e+06
-2.94848e+06
-1.63349e+06
-1.6326e+06
-3.0493e+06
-2.39684e+07
-2.39615e+07
-3.72938e+06
-3.01278e+06
-811997
-1.07305e+07
2.18884e+06
-3.10218e+06
-1.07368e+07
-614688
256269
-1.35798e+06
-1.7063e+06
-1.7112e+06
1.31652e+06
1.22576e+06
-1.34125e+06
3.26528e+06
-2.489e+06
-1.94241e+06
-3.32088e+06
-2.41554e+06
2.29531e+06
-2.77615e+06
-2.92222e+06
9.31311e+06
1.23853e+06
6.83012e+06
-160250
-1.40408e+06
-1.15526e+06
-1.42036e+06
7.92752e+06
-1.755e+06
-1.87049e+06
-2.94082e+07
-2.94178e+07
9.8056e+06
-3.79643e+06
-1.25137e+06
-1.24816e+06
-3.46897e+06
-3.46642e+06
-703402
-2.49309e+06
-1.15072e+06
-3.70376e+06
-3.70689e+06
-1.94101e+06
-1.94044e+06
-2.92716e+06
8.8767e+06
-2.98256e+06
8.90661e+06
-1.87985e+06
1.15751e+07
3.78675e+06
4.88323e+06
-1.22192e+06
-2.18596e+06
-2.17988e+06
2.626e+06
2.70178e+06
5.35372e+06
-1.67247e+06
-1.10807e+06
-1.10747e+06
9.48655e+06
1.49307e+06
4.50993e+06
-2.22877e+06
-1.35496e+06
-2.96816e+06
-894144
-1.74197e+06
-1.72668e+06
-2.26244e+06
-3.26996e+06
-1.56114e+06
-3.39213e+06
-3.38596e+06
-1.97095e+06
4.12502e+06
-3.25488e+06
-1.577e+06
-1.12575e+06
-62296
-62700.2
4.94327e+06
62028.9
-4.64827e+06
-4.64964e+06
-6.08036e+06
-6.07914e+06
8.44304e+06
-3.47926e+06
-3.2042e+06
-35207.8
-2.03339e+07
-2.03415e+07
-6.91716e+06
-6.91341e+06
8.48775e+06
-2.02748e+06
-2.02657e+06
-1.09671e+06
-828002
-462798
-148982
-148103
5.486e+06
6.85109e+06
709910
-1.90534e+06
-1.26906e+07
-1.26979e+07
4.48678e+06
-1.99833e+06
-2.27556e+06
-2.79418e+06
-2.85104e+06
-826961
2.70224e+06
2.71179e+06
-2.23823e+06
-2.23913e+06
-310293
947636
941248
-4.44125e+06
-4.44359e+06
21526.8
-2.25994e+06
-1.48275e+06
-2.36507e+06
-8.92097e+06
-8.91756e+06
3.61365e+06
7.81486e+06
-577906
-2.82533e+06
-1.72974e+07
-1.73051e+07
-1.74988e+06
-997135
-442523
-4.06493e+06
-4.06267e+06
-2.16945e+06
1.57623e+06
-2.56866e+06
-3.84388e+06
-2.06505e+07
-2.06435e+07
-2.72075e+06
-3.37849e+06
-3.3744e+06
-2.57367e+06
-851148
-716502
-510208
3.85859e+06
-2.24924e+06
-2.92529e+06
-1.80272e+06
-1.59977e+06
5.3051e+06
3.3637e+06
-121185
-120765
-852364
-6.35173e+06
-6.34995e+06
-1.57736e+07
-1.57658e+07
-2.64224e+06
-1.92663e+07
-1.92588e+07
-2.46806e+07
-2.46877e+07
-31797.2
-31783
-2.01054e+06
-1.0451e+06
-1.04459e+06
-1.79129e+06
-1.85714e+06
-1.6004e+06
-1.42972e+06
-2.88967e+06
-3.38385e+06
-1.41349e+06
-1.4027e+06
-8.14783e+06
-8.15528e+06
-1.40661e+06
-1.29724e+06
5.38782e+06
-1.02261e+06
-1.96835e+06
-1.70194e+06
-2.04522e+06
1.05062e+07
-1.93889e+06
-3.65477e+06
-3.65467e+06
-1.11018e+06
2.54711e+06
-1.18893e+06
-1.49468e+06
3.75513e+06
6.22303e+06
39096.8
40976.7
3.26734e+06
-1.58201e+06
1.05886e+06
994832
-2.1484e+06
-2.04847e+06
147243
-792376
-797714
-2.32049e+06
4.73268e+06
-45703.4
-8.59384e+06
207855
150386
-8.60177e+06
-2.19443e+06
-1.79787e+06
1.49339e+06
-1.89471e+06
3.78817e+06
-2.3446e+06
-2.41628e+06
-2.6689e+06
-3.18167e+06
-2.57613e+06
-1.4044e+06
-43329.7
-1.99835e+06
-2.05547e+06
-2.05321e+06
-1.48003e+06
9.75377e+06
3.02227e+06
5.27034e+06
-1.36589e+06
-7.12203e+06
92043.2
710466
-1.93508e+06
-2.20988e+06
-7.13371e+06
-3.32101e+06
-2.60605e+06
-2.20433e+06
-3.23339e+06
-149110
-280256
-2.17294e+06
-256847
-255069
-1.28472e+06
-1.44882e+07
-1.44946e+07
3.8049e+06
-1.2529e+07
-1.25207e+07
1.02537e+07
-1.61932e+07
-1.61859e+07
-1.61662e+06
-627251
-1.40604e+06
230263
231045
-3.59085e+06
-1.65741e+06
-723200
-1.86852e+06
-1.48193e+07
-1.48112e+07
-5.48406e+06
3.20566e+06
4.44108e+06
-1.70372e+06
-1.72786e+06
-1.71531e+06
-35403.1
-35264.9
4.01883e+06
-2.05402e+06
-2.42987e+07
-2.42895e+07
-6.23356e+06
-6.22866e+06
-1.0222e+06
-1.70083e+06
-1.07334e+06
-6.41153e+06
-6.40509e+06
-3.09341e+06
-225170
-224818
-2.00715e+06
-2.00463e+06
-6.15225e+06
-6.15618e+06
-865422
-1.66006e+06
-1.65913e+06
-1.44851e+07
-1.44824e+07
-2.62535e+06
-2.72807e+06
-27229.2
-798995
4.53246e+06
3.51559e+06
-802075
2.20286e+06
1.22648e+06
-2.45572e+06
-2.61336e+06
-2.28287e+06
-1.95838e+06
-1.95745e+06
1.28037e+06
-2.51815e+07
-2.51886e+07
-8.37364e+06
-8.36947e+06
3.72229e+06
-3.15337e+06
-3.15818e+06
-1.11643e+06
-1.10764e+06
-1.77439e+06
-973195
-953490
-3.08646e+06
-405904
-406059
-2.3968e+06
-1.40265e+06
-1.81522e+06
1.01213e+07
2.34975e+06
2.42993e+06
-2.01341e+06
-1.73199e+06
4.78593e+06
-2.83842e+06
12905.2
12868.1
-8.48806e+06
-8.49116e+06
-2.01394e+06
-1.67517e+06
-2.16625e+07
-2.16551e+07
-2.0474e+06
238897
-3.09265e+06
661388
402065
3.35323e+06
3.36551e+06
-1.38818e+06
-3.26732e+06
-1.87218e+07
-1.87286e+07
-1.70201e+06
-1.70589e+06
-2.70993e+06
-2.71261e+06
-1.27631e+06
-1.27069e+06
-2.62106e+06
-1.55236e+06
-1.96516e+06
-2.66551e+06
241719
9.14971e+06
-2.02829e+06
-2.02926e+06
-2.418e+06
-1.88082e+06
-2.07141e+06
-9.70896e+06
-9.7153e+06
6.00049e+06
-2.78391e+06
-1.02984e+06
-3.48294e+06
-3.47915e+06
1.61386e+06
1.10806e+07
-2.47496e+06
-2.478e+06
6.68633e+06
-3.37429e+06
-3.38007e+06
-1.64905e+06
-809805
2.46388e+06
-1.22316e+06
-1.36662e+06
-1.34083e+06
-571169
-359940
-1.7447e+07
-1.74397e+07
-2.52108e+06
-1.82905e+07
-1.82831e+07
3.59289e+06
-4.49121e+06
-4.48711e+06
-1.69478e+07
-1.69554e+07
-2.14712e+06
-5.98777e+06
-5.99671e+06
-2.37741e+06
-2.37968e+06
-954177
3.15667e+06
-1.41373e+06
-2.09689e+07
-2.09606e+07
-1.51564e+06
-1.81635e+06
977968
981682
-3.14652e+06
-2.74281e+07
-2.74193e+07
3.90811e+06
-2.4705e+06
-1.46769e+06
-1.46733e+06
-259639
-258008
-4.97565e+06
-6.44009e+06
-6.43519e+06
-1.20037e+06
-823613
-816789
-3.82895e+06
-3.82866e+06
7.68909e+06
-179229
-2.65036e+07
-2.64951e+07
-1.07799e+07
-1.07834e+07
2.77778e+06
6.99485e+06
-6.62882e+06
-6.62998e+06
-1.60286e+06
-103346
-102697
-1.06847e+06
-1.06853e+06
5.57456e+06
-9.52724e+06
-9.52406e+06
-1.47899e+06
-5.5149e+06
-5.51906e+06
1.33081e+06
9.73362e+06
-2.84519e+06
-2.84662e+06
-1.98252e+07
-1.9833e+07
-1.07372e+06
9.42141e+06
-1.11208e+06
6.80848e+06
-1.98365e+06
1.94374e+06
5.4623e+06
3.96564e+06
-2.96848e+06
-3.01184e+06
-2.96874e+06
-2.97098e+06
-1.43441e+06
-1.43368e+06
-1.72819e+06
-2.51387e+06
-3.41689e+06
1.11682e+07
-561665
-2.44897e+06
-1.55161e+06
-1.21945e+06
-2.27096e+06
-2.51793e+06
-2.51371e+06
-1.9816e+07
-1.98241e+07
3.65385e+06
-3.03702e+06
-175772
7.58269e+06
9.00611e+06
-1.62914e+06
1.89153e+06
-1.1895e+06
-1.65063e+06
-1.64306e+06
5.8495e+06
-994442
-996983
23850
-2.63778e+07
-2.6386e+07
-1.36932e+07
-1.37003e+07
8.06967e+06
-4.137e+06
-4.14223e+06
-8.86455e+06
-8.86227e+06
-6.27434e+06
-6.26794e+06
-2.41061e+07
-2.40968e+07
-1.26837e+06
671433
-1.53804e+06
-2.22282e+06
-1.67732e+07
-1.67804e+07
-4.39048e+06
-4.3959e+06
-1.25541e+06
-1.21799e+06
1.33474e+06
-949794
-949410
-2.54504e+06
-2.23553e+06
-2.06843e+06
3.69085e+06
-2.38172e+06
-2.55634e+06
-1.6005e+06
675218
672054
-2.77362e+06
-2.88569e+06
-2.82435e+06
-1.64246e+06
-1.64456e+06
-637705
-1.88442e+06
4.28069e+06
-1.97135e+06
-1.71921e+06
-1.37657e+06
-2.10204e+06
-1.16388e+07
-1.16337e+07
-3.5644e+06
-3.56209e+06
-1.80357e+07
-1.80282e+07
-1.96087e+06
-3.22838e+06
-924687
6.12616e+06
2.90334e+06
-1.27725e+06
-1.47795e+06
-3.22966e+06
216760
-79608.6
-80226.9
-2.64006e+06
-2.64109e+06
-1.54989e+06
5.43719e+06
-2.62209e+06
-2.62887e+06
-2.60169e+07
-2.60069e+07
-773655
-773093
156437
-1.02059e+06
-989012
1.21969e+06
1.30427e+06
1.0951e+06
-1.73588e+06
-1.73693e+06
-2.53088e+06
-1.99335e+06
-1.25787e+07
-1.25735e+07
-812122
-893724
-1.95618e+06
-3.29914e+06
-2.65533e+06
-1.75683e+06
3.15882e+06
3.19169e+06
-2.17357e+07
-2.1728e+07
-2.08426e+06
-3.36144e+06
-3.35957e+06
-1.51216e+07
-1.51146e+07
-252084
1.90953e+06
1.95634e+06
-1.23501e+07
-1.23574e+07
2.4518e+06
-1.6036e+06
658195
-744622
-749658
-6.56207e+06
-6.56315e+06
1.14579e+07
454972
-2.45094e+06
-2.45574e+06
-1.36979e+06
-2.20345e+06
-9.84101e+06
-9.84473e+06
-2.70122e+06
-1.19308e+06
-1.31161e+06
-3.00406e+06
-6.3777e+06
-4.71392e+06
-4.71872e+06
4.71687e+06
-5.13292e+06
-5.12847e+06
9.95629e+06
142996
-6.38389e+06
-2.18618e+06
-2.19038e+06
-1.47977e+06
-158359
2.62628e+06
-3.45389e+06
-3.45246e+06
4.10039e+06
-2.64661e+06
-2.14133e+06
-2.13813e+06
-576835
-1.85732e+06
-1.8253e+06
-4.97868e+06
-2.20493e+06
-2.17761e+06
-2.14851e+06
-2.14473e+06
9.32338e+06
-756656
-1.80132e+06
-1.45977e+06
-2.16533e+06
1.79254e+06
-490670
-3.22971e+06
5.00213e+06
-1.4942e+06
-1.02464e+06
-2.34505e+07
-2.34435e+07
-6.11691e+06
-1.8866e+06
-1.88767e+06
-1.11854e+07
-1.11771e+07
-547113
-1.43658e+07
-1.4374e+07
-1.57004e+06
41500.6
-3.16814e+06
-438254
-437625
4.92552e+06
-3.3441e+06
-3.3471e+06
625534
-2.19505e+06
1.17839e+06
1.06031e+07
-1.72674e+06
-2.94498e+06
-5.51909e+06
-5.52912e+06
-2.12724e+07
-2.1264e+07
-2.32191e+06
-3.42662e+06
-3.62829e+06
-7.08048e+06
-7.08738e+06
-3.30712e+06
-4.38675e+06
-4.3853e+06
-1.3616e+06
-1.86648e+06
-1.86699e+06
-2.754e+06
1.88116e+06
-2.62365e+06
-2.35066e+06
-2.36261e+06
-1.33335e+06
-1.32667e+06
-143171
-2.95177e+06
-2.15512e+06
-2.03121e+06
-2.33415e+06
-2.49648e+06
-2.314e+06
-2.64817e+06
-1.49698e+06
9.25096e+06
-1.37293e+06
-1.36327e+06
4.45449e+06
-1.14136e+07
-1.14084e+07
-1.30846e+06
-1.29416e+06
-1.37983e+06
8643.43
-1.49663e+06
705092
3.32899e+06
3.55146e+06
-537998
-1.98587e+06
-2.0742e+06
3.4357e+06
-2.4134e+06
-3.4105e+06
-2.50963e+06
-2.59015e+06
-2.5914e+06
-57929.9
-53992.4
-124080
-91908
6.93046e+06
-1.96925e+06
-1.97462e+06
-2.97471e+06
-2.21812e+06
-1.21641e+06
-5.29066e+06
-5.29539e+06
884815
-2.45085e+06
-1.87474e+06
-2.82178e+06
-949401
5185.17
5109.93
-1.32822e+06
-3.92128e+06
-1.84613e+06
1.34644e+06
-2.15184e+06
-8.68833e+06
-8.68404e+06
-4.00199e+06
-4.00866e+06
4.99392e+06
-1.29026e+06
-1.41142e+06
-1.41076e+06
-2.32045e+06
-2.32658e+06
-1.93474e+06
7.60739e+06
-2.84041e+06
-2.01605e+06
-3.20271e+06
-2.83544e+06
-1.63446e+06
-1.43083e+06
-1.54277e+06
-2.44388e+07
-2.44481e+07
-2.28405e+06
-1.63754e+07
-1.63679e+07
-729146
-718733
160413
-820088
-857324
2.182e+06
8.92243e+06
-2.86012e+06
8.0448e+06
190022
-4.85574e+06
-4.85414e+06
2.87947e+06
184538
-2.75981e+06
-2.76336e+06
-707361
-3.3717e+06
-1.54541e+06
-2.3713e+06
-1.88878e+07
-1.88802e+07
-1.36756e+06
-1.63733e+07
-1.63806e+07
478697
-2.59143e+06
1.63686e+06
-1.66599e+06
-1.91983e+06
-1.91548e+06
-944454
-1.21112e+06
-2.60895e+06
-1.39223e+06
-1.39405e+06
-2.84332e+06
-2.84055e+06
2.99832e+06
3.07058e+06
-2.21207e+06
8.58275e+06
-2.22774e+06
-2.71653e+06
-2.51549e+06
-2.4521e+06
-1.85915e+06
-3.13849e+06
-3.73274e+06
-3.73844e+06
-3.02264e+06
4717.36
-3.95546e+06
-3.96029e+06
-2.07759e+06
910579
-1.72611e+06
4.49664e+06
937420
-1.28589e+06
-1.28733e+06
-1.90604e+06
-450791
-5.32257e+06
-5.33069e+06
3.79878e+06
-1.74928e+06
-2.33069e+06
-45989.8
-45402.8
2.0004e+06
-1.37152e+07
-1.37069e+07
-3.23038e+06
5.86468e+06
-1.84843e+06
-1.19679e+06
-1.24954e+06
1.05294e+06
4426.75
-310702
-311523
-3.48973e+06
-2.6146e+06
-1.59226e+06
-266050
-265239
1.60947e+06
-2.58813e+06
-2.59207e+06
-1.63466e+07
-1.63401e+07
-2.38603e+07
-2.38695e+07
-2.73766e+06
-1.70914e+06
-1.70517e+06
-2.81304e+06
-3.5671e+06
7.19674e+06
-2.11895e+06
3.37998e+06
5.09832e+06
-1.07319e+06
-1.0472e+06
-3.68851e+06
-3.69158e+06
-2.88909e+06
4.29914e+06
237847
-602423
-1.88739e+06
317128
-1.19895e+06
-2.50658e+06
-2.49924e+07
-2.49845e+07
-1.42693e+06
-2.98366e+06
-2.66891e+06
-2.67139e+06
-2.34591e+06
-510525
1.27228e+06
-2.80584e+06
18958.5
18675.4
-2.91775e+06
-4.82298e+06
-4.82201e+06
4.76209e+06
-1.14954e+07
-1.15025e+07
-959867
310076
-2.49425e+06
308699
293510
308057
-1.33092e+06
7.61987e+06
-1.28575e+06
-2.82748e+06
-1.20595e+07
-1.20669e+07
-862367
-637427
646678
-1.15964e+06
-1.60935e+07
-1.60986e+07
-1.78044e+07
-1.77966e+07
-457426
-1.44873e+06
-3.02641e+06
-1.38543e+06
-1.39113e+06
-707908
-707686
-1.97296e+06
-3.66155e+06
-3.40679e+06
-205491
-464490
-924938
-3.37091e+06
-3.37542e+06
-535970
-1.81808e+06
2.30857e+06
-1.02778e+06
-969981
2.60695e+06
-2.92134e+06
-2.91785e+06
-1.59881e+06
-2.03248e+06
-2.03315e+06
-416659
-414592
-1.64124e+06
3.78926e+06
-823870
-2.77416e+06
-1.88746e+06
-1.89454e+06
-2.00697e+06
-6.14719e+06
-874938
4.39587e+06
-2.76778e+06
-2.76609e+06
-2.76727e+06
-1.33858e+06
-2.89347e+07
-2.89446e+07
-1.45936e+07
-1.45985e+07
-824797
-88179.3
-87602.6
-1.45841e+06
-1.81884e+06
-1.81929e+06
-2.18964e+06
-2.19321e+06
-6.12204e+06
-6.12267e+06
-2.52984e+06
4.00389e+06
-2.77369e+06
-2.77153e+06
-2.62187e+06
-3.35875e+06
-3.38972e+06
-3.38559e+06
-2.13525e+06
-1.14685e+06
-7.15362e+06
-7.14783e+06
-3.57508e+06
-7.20954e+06
-7.20701e+06
-1.2243e+06
6.33026e+06
-2.08498e+06
-2.35225e+07
-2.35152e+07
-321643
-2.40027e+06
-2.39656e+06
-9.79058e+06
-9.79571e+06
-4.00409e+06
-4.00358e+06
4.94105e+06
-2.03789e+06
-4.64176e+06
-4.64317e+06
-2.98547e+06
-2.98883e+06
677919
-4.27367e+06
5.85646e+06
-2.0157e+06
-616386
1.26748e+06
-2.40826e+07
-2.40757e+07
-4.66024e+06
-4.65643e+06
-1.45636e+07
-1.45675e+07
-2.91193e+06
-1.45424e+06
-1.30762e+06
-4.11929e+06
-4.11621e+06
2.86212e+06
-563099
-565917
-3.03834e+06
-1.73716e+06
-1.79106e+06
-1.78504e+06
833397
-1.82679e+06
-2.08908e+06
-1.16642e+06
-1.1666e+06
-2.22514e+06
2.05587e+06
2.07396e+06
-2.58473e+06
-1.7597e+06
-2.1973e+06
-1.73543e+06
-1.44516e+07
-1.44563e+07
-1.84008e+06
3.39924e+06
-22557.2
-2.09279e+07
-2.09364e+07
-2.05195e+06
-4.19806e+06
-4.19423e+06
-3.75938e+06
5.34032e+06
-2.18017e+06
-1.62625e+06
5.76316e+06
-2.834e+06
-2.28538e+06
-2.28779e+06
-2.1496e+06
-2.147e+06
-950145
-5.56374e+06
-5.56633e+06
-3.65696e+06
-2.64785e+06
-3.66315e+06
-6.85581e+06
-6.86457e+06
-1.00164e+06
5.95543e+06
-2.87249e+06
-636551
-4.86188e+06
7.93308e+06
-1.30698e+06
-1.30389e+06
8.04334e+06
1.24003e+06
-2.13527e+06
-1.02026e+06
-1.12297e+06
-1.54835e+06
-1.20995e+06
9.52114e+06
-1.96907e+06
-2.85604e+06
-5.59301e+06
-5.59539e+06
-2.48693e+06
-2.48791e+06
-1.94411e+06
-1.79604e+06
-1.7978e+06
-2.06398e+06
8.60457e+06
-4.87196e+06
937810
4.6323e+06
-1.61399e+06
2.23166e+06
-1.32287e+06
-3.39527e+06
-3.39645e+06
8.42743e+06
1.06722e+07
159094
-1.93577e+07
-1.93494e+07
-1.5742e+06
-82084.7
-1.51202e+06
-2.44542e+06
-2.40994e+06
-430217
4.12734e+06
-1.94646e+06
6.32741e+06
1.10791e+07
-1.46598e+06
-1.46638e+06
-1.959e+06
-1.96946e+06
-2.03571e+06
-1.09031e+06
-6.77683e+06
-6.77275e+06
-321391
9.27628e+06
7.9794e+06
-3.02296e+06
-3.0263e+06
-1.6161e+06
-2.25575e+06
-142818
-1.03231e+06
4.35614e+06
-1.39115e+06
6.10462e+06
-2.04385e+06
-1.8021e+06
-1.54369e+06
-1.90578e+06
-2.14506e+06
90288.2
-2.24388e+06
134566
134415
-1.73559e+06
-1.73678e+06
-580143
-375440
-4.15719e+06
-1.72863e+06
-2.88107e+06
-1.44206e+07
-1.4427e+07
-953917
-2.02668e+06
-1.80082e+06
439607
2.86658e+06
2.89538e+06
-3.34456e+06
-1.73926e+06
-1.7302e+06
-719283
-724395
-4.64763e+06
-4.64898e+06
-1.36464e+06
-3.44418e+06
6.85174e+06
9.71594e+06
-1.57378e+06
4.90179e+06
-198932
-13672.8
-1.05819e+06
-2.41846e+06
-3.31986e+06
6.31964e+06
-405518
213712
-1.87228e+06
-1.87751e+06
-2.73117e+06
7.69661e+06
1.50574e+06
-2.67703e+06
-2.67501e+06
-4.15569e+06
-4.15199e+06
-331418
-2.33816e+06
-2.45696e+06
-1.20733e+06
-1.22978e+06
-592238
-2.77541e+06
-2.39772e+06
-2.80336e+06
-2.60666e+06
-2.45394e+06
-1.72749e+06
1.03295e+07
-1.1598e+06
-1.14874e+06
-2.10131e+06
195051
-1.29661e+06
-2.33616e+06
580931
600541
-114465
-1.65991e+06
-1.65686e+06
-769777
-765529
-3.40264e+06
-4.16752e+06
-4.16343e+06
-3.30691e+06
-2.22852e+06
1.12981e+07
5.35913e+06
-183654
-141173
-2.99822e+06
-3.00223e+06
-3.13229e+06
3.81372e+06
96527.9
-1.6373e+07
-1.63653e+07
-5.17886e+06
-5.17274e+06
4.57976e+06
-26895.1
-39620.2
-336338
-1.36296e+06
-3.3739e+06
-3.37572e+06
-421040
-2.27595e+06
-2.89623e+06
2.23054e+06
-2352.44
-2328.66
-2.21078e+06
-2.21413e+06
-1.86105e+06
-1.86622e+06
-4.04495e+06
-4.04452e+06
-1.87045e+06
-1.74521e+06
-1.74756e+06
-1.1382e+06
-317489
-3.18086e+06
-2.14615e+06
-2.14291e+06
-865183
-2.39393e+06
2.46647e+06
9.86633e+06
-2.1217e+06
-2.22657e+07
-2.22744e+07
-1.84797e+06
-3.44514e+06
-1.63152e+06
-1.90688e+07
-1.90764e+07
-2.07304e+06
-1.3648e+06
-1.36328e+06
-620149
-616505
22.073
16.0456
342374
3.79513e+06
3.29164e+06
825675
3.50784e+06
-2.30534e+06
355568
-683148
-3.75666e+06
-3.75512e+06
1.10137e+07
-1.50352e+06
-1.50193e+06
-1.48487e+06
-1.82006e+06
-1.81947e+06
-483651
-1.30702e+06
-5.67154e+06
-5.67627e+06
-486405
-2.5928e+06
-493863
7.00349e+06
-1.40199e+06
-3.25776e+06
-3.26168e+06
-3.64426e+06
-3.64188e+06
9.2547e+06
-2.26204e+06
-1.36863e+06
-3.17963e+06
-1.76876e+06
-2.86254e+06
-2.91543e+06
5.45781e+06
-1.26055e+06
-1.26109e+06
-5.04425e+06
-5.04922e+06
-2.61889e+06
-158147
-151461
40456.2
-1.90076e+06
-1.77093e+06
-2.09581e+06
-1.21209e+06
-1.02229e+06
-118820
-3.23752e+06
-1.94619e+06
9.53904e+06
3.45594e+06
-1.2647e+06
-2.35967e+06
-2.35671e+06
607883
-1.61767e+07
-1.61816e+07
-1.88034e+06
-1.87479e+06
3.55597e+06
-2.37066e+06
-209240
-4.47302e+06
-1.80988e+06
-2.53235e+06
-2.53081e+06
-2.05125e+06
-1.73761e+06
6.95786e+06
-1.76962e+06
-303301
-301440
-957792
-2.28331e+06
-2.89793e+06
-2.89129e+06
-1.47137e+07
-1.47205e+07
-7.05182e+06
-7.0601e+06
-5.56107e+06
-2.57345e+06
-2.5169e+06
-5.57451e+06
-2.44749e+06
771461
759159
-2.54337e+06
-1.0906e+07
-1.09125e+07
1.71651e+06
-2.09173e+06
-2.10228e+06
-2.50734e+06
6.8489e+06
-316950
3.15265e+06
9.70934e+06
2.3227e+06
3.76706e+06