/*--------------------------------*- C++ -*----------------------------------*\
| =========                 |                                                 |
| \\      /  F ield         | OpenFOAM: The Open Source CFD Toolbox           |
|  \\    /   O peration     | Version:  v3.0+                                 |
|   \\  /    A nd           | Web:      www.OpenFOAM.com                      |
|    \\/     M anipulation  |                                                 |
\*---------------------------------------------------------------------------*/
FoamFile
{
    version     2.0;
    format      ascii;
    class       volScalarField;
    location    "5000";
    object      sigmayy;
}
// * * * * * * * * * * * * * * * * * * * * * * * * * * * * * * * * * * * * * //

dimensions      [1 -1 -2 0 0 0 0];

internalField   nonuniform List<scalar> 
27023
(
-1.46231e+07
1.46293e+07
1.16371e+07
-1.16339e+07
-1.3742e+07
1.37477e+07
5.22671e+06
-5.22486e+06
8.17117e+06
-8.17448e+06
8.1209e+06
-8.11959e+06
2.17055e+06
-2.17022e+06
-764881
122143
446298
-1.33582e+06
1.33561e+06
2.07888e+06
-2.07373e+06
4.46728e+06
-4.46557e+06
6.69346e+06
-6.68808e+06
760224
-4.78249e+06
-29762.2
-5.23335e+06
-136709
967537
2.06496e+06
-2.06182e+06
-97284.8
-830460
123761
3.53188e+06
-3.5311e+06
7.6342e+06
-7.63611e+06
-1.23267e+07
1.23303e+07
-189087
-1.34835e+07
1.34895e+07
1.24943e+06
-1.24935e+06
5.19224e+06
-5.18641e+06
-153435
4.88869e+06
-4.88304e+06
-72698.3
566106
-562998
184804
258272
-45322.4
33921.8
1.27947e+07
-1.2791e+07
66787.8
243289
-154725
-83349.5
1.04965e+06
1.35205e+06
823485
-4.02936e+06
-205387
3.71037e+06
-3.70953e+06
6.33711e+06
-6.33292e+06
126566
-126590
948634
-947544
-1.51321e+06
1.51352e+06
-3.53739e+06
7.69899e+06
-7.69745e+06
6.69802e+06
-6.69369e+06
15066.3
-15018.7
-1.31651e+06
183026
68613.5
170271
1.21094e+07
-1.21036e+07
2.18653e+06
-467126
-6.27862e+06
6.28271e+06
-3.6654e+06
-181618
-36459.1
-7621.95
-114199
403217
6.57644e+06
-6.57309e+06
-145014
4.98558e+06
-4.9835e+06
410906
365097
-162637
5.89672e+06
-5.89443e+06
6.18506e+06
-6.1812e+06
160326
-160198
-1.22314e+06
-2.40844e+06
-2.2606e+06
335416
31496.6
-1.21692e+07
1.21728e+07
2.25502e+06
-2.25428e+06
1.13626e+07
-1.13568e+07
7.11143e+06
-7.10768e+06
-163095
-1.17184e+06
1.07585e+06
-1.157e+06
211274
-170217
170231
1.29548e+06
1.95928e+06
-1.95885e+06
-6.7483e+06
6.75118e+06
-758609
5.5584e+06
-5.5562e+06
-847651
10317.6
5.71431e+06
1.36057e+06
1.58931e+07
-1.58869e+07
1.16418e+07
-1.16358e+07
-7154.56
-2.13989e+06
-343605
599722
864073
1.97668e+06
-1.97617e+06
198668
-26339.3
-41607.3
391589
-1.08162e+07
1.082e+07
-6.67024e+06
6.67364e+06
-2.6179e+06
230613
163796
-1.75923e+06
1.75955e+06
150615
290451
-476162
147985
-1.16423e+06
138139
1.72215e+06
-1.37466e+06
-5.9221e+06
5.92486e+06
210256
-241726
-355673
-6.42475e+06
6.43088e+06
-28881.4
18019
-7.59413e+06
7.59737e+06
-3.44167e+06
13515.6
3.51838e+06
-3.51753e+06
-23622.2
-7.42768e+06
7.43062e+06
-2.52372e+06
809795
-4.26244e+06
-13210.7
13339.3
-1.2049e+07
1.20542e+07
-1.98529e+06
-135099
107910
-107864
106006
-105457
1.60457e+06
-2.18355e+06
-1.73309e+06
1.73221e+06
-3.90341e+06
489569
44878.5
-662274
662395
-69335.8
-1.08264e+07
1.08294e+07
-46227
2.25446e+06
-2.25373e+06
6.70462e+06
-6.70015e+06
4.4466e+06
-4.44885e+06
-416030
1.86987e+06
-1.86937e+06
-79574
614027
-613945
109664
284965
-4.17051e+06
4.17154e+06
4.98845e+06
78551.4
153192
-594725
1.39114e+06
494063
-4.2571e+06
-86306
-469707
-3.67225e+06
3.67344e+06
130203
-2.3495e+06
-298.249
-152250
10004.1
-150086
2.0177e+06
-2.01633e+06
-1.63486e+06
783792
416242
599819
-599636
4.92367e+06
-4.92177e+06
220487
-1.5286e+06
1.14113e+07
-1.14085e+07
636538
-942378
61548.1
175759
-106279
-1.00968e+07
1.01002e+07
-1.38909e+06
1.38421e+06
-266602
-12643.9
-158785
33369.1
-798201
802144
-65690.7
-166680
432902
4.58443e+06
-302155
-185987
-3.85437e+06
3.85573e+06
16380.5
-16420.3
81413.8
93663
81003.3
-80568.4
2.21215e+06
572291
-6.55763e+06
6.56095e+06
2.46543e+06
2.57181e+06
-2.57737e+06
4.48098e+06
290951
388480
541344
475278
-473274
6.26634e+06
-6.26971e+06
157890
-3.49708e+06
3.49873e+06
133768
128689
2.70465e+06
-2.70996e+06
-5.74332e+06
90790.5
2.35646e+06
-49188.1
-107830
16507
4.98755e+06
-5.71599e+06
-2.48775e+06
5.62575e+06
440255
682738
223604
-1.7222e+07
1.72291e+07
-1.34622e+06
843339
6.32651e+06
-6.32334e+06
474789
-495717
124970
-124330
-3.73983e+06
1.66687e+07
-1.66613e+07
376213
329534
-374218
331466
1.72381e+06
-1.72326e+06
143747
-142416
-149074
-2.88933e+06
2.89018e+06
-62318.1
-3.34599e+06
-190023
190537
-7.47716e+06
7.47989e+06
-221955
183843
-632753
-1.3018e+07
1.30247e+07
-1.76979e+06
1.77018e+06
-945671
-434137
1.31141e+06
166152
-389323
-4.99976e+06
-71832.8
4.05549e+06
63557.9
-4.05528e+06
4.83459e+06
-4.83292e+06
-4.39365e+06
1.92344e+06
128006
43023.9
-6.02371e+06
1.10907e+06
-3.60023e+06
41583.8
3.50505e+06
149704
107792
78262.3
393811
408675
-25612.1
-346225
7.08781e+06
-7.08313e+06
1.90295e+06
-3.99794e+06
-398209
-1.20113e+07
1.20177e+07
-143665
552909
-6.07577e+06
71088.7
6.08685e+06
831090
-826935
-470442
36379.7
3.66358e+06
367109
-209259
-442916
2.81472e+06
-24246.9
-2.85233e+06
616113
62617.4
213111
-195752
196085
-298144
-15998.2
-938255
-4.65259e+06
419901
-419616
-5.95023e+06
5.95483e+06
-74952.6
-1.88746e+06
1.10565e+07
-1.10558e+07
173888
-169580
2.9267e+06
-2.92508e+06
-287093
288515
-2.57866e+06
66169
-387992
302743
839741
-8.50314e+06
8.5059e+06
-7.35304e+06
7.3559e+06
725455
-720436
1.42663e+07
-1.42605e+07
-1.90986e+06
476455
-502347
-206067
3.39733e+06
251359
-156466
-3.02745e+06
3.02868e+06
-116204
139188
172992
-123008
117563
-5.28725e+06
-1.18885e+06
4.39044e+06
-4.3886e+06
210525
27909.8
8.13532e+06
-8.13498e+06
1.90937e+06
-1.90878e+06
70011.2
2.09665e+06
-1.54835e+06
-2.2311e+06
-30991.9
-646662
-8.79949e+06
8.80075e+06
-302310
4.2661e+06
135853
-3.27567e+06
3.27734e+06
1.65081e+07
-1.65007e+07
3.57318e+06
-310058
-289625
-5.47241e+06
5.47912e+06
35328.1
-888070
4.35755e+06
-4.35238e+06
-4.70118e+06
6.54468e+06
-6.54236e+06
7.21126e+06
-7.20935e+06
-6.09925e+06
-1.33689e+07
1.33728e+07
-265897
-225144
549463
-549118
-358857
170789
-170535
-610073
-5.51362e+06
5.51595e+06
-1.42145e+06
1.41918e+06
-873828
1.75336e+07
-1.75278e+07
-327694
38547.8
-645130
-1.61775e+06
7.29991e+06
-7.29304e+06
-2.9661e+06
2.96676e+06
-99407.8
208658
5.0111e+06
-34149.9
-5.62281e+06
-5.27789e+06
-121048
-1.14607e+07
1.14617e+07
166582
-185860
185895
40089.6
-3824.56
-6.45895e+06
6.46244e+06
-4.04942e+06
-201826
190168
259919
-881899
214456
-4.72636e+06
-202210
4.85653e+06
-4.85005e+06
-71028.4
98338.1
2.15816e+06
-2.15734e+06
202767
-1.85391e+06
1.85845e+06
-301049
1.82981e+07
-1.82906e+07
-7.64469e+06
7.64755e+06
-1.9575e+07
1.95824e+07
-274112
-4.88197e+06
4.84876e+06
180927
-1.57827e+07
1.57889e+07
115810
1.88248e+06
-2.3166e+06
-18531.2
-67403.1
178406
-906751
-81208.5
6.49814e+06
-6.49331e+06
-175167
6.40248e+06
-6.3973e+06
322902
-6.47014e+06
6.47484e+06
-481109
53926.1
-1.82613e+06
1.82862e+06
504122
-503866
93397.5
3.37658e+06
5.30505e+06
4.63876e+06
-4.636e+06
1.06037e+06
-1.0601e+06
-362183
-206136
189074
-97085.7
3.74254e+06
-3.74391e+06
-350574
3818.79
-82764.5
83216.5
-3833.86
-290003
1.91728e+06
-1.9123e+06
-1.31723e+07
1.31775e+07
-1.16375e+07
1.16433e+07
1.86839e+07
-1.86764e+07
1.25237e+06
6.65476e+06
-6.64947e+06
-179731
40345.9
-6.95047e+06
6.95622e+06
-167521
5.3145e+06
-5.31093e+06
141270
-1.49728e+06
16364.1
-1.96814e+07
1.96889e+07
30267.9
-71238.4
-132168
173722
-5.26919e+06
5.27161e+06
776057
5.47922e+06
-3.04597e+06
3.04669e+06
-266572
267814
698008
-694925
401471
164952
142752
-142746
-4.32062e+06
-5.44993e+06
-1.13242e+06
-731816
3.96938e+06
1.03029e+06
-89467.1
-2.00341e+06
-1.76002e+06
66089.7
2.83682e+06
191214
-301696
-706738
508249
612565
-610653
6.52003e+06
-6.5157e+06
3.09332e+06
-447217
3287.38
151973
88437.9
-60232.1
-5.78283e+06
-194876
494312
18012
-1.56522e+06
8.66521e+06
-8.66106e+06
5.31655e+06
84137
-15857.2
-56975.2
4.42225e+06
-4.42068e+06
-111227
111603
520557
-517843
169123
-799997
-763550
-654949
-5.61794e+06
5.6301e+06
306263
9.1733e+06
-9.17442e+06
-751417
751562
-305663
5.59194e+06
-5.58907e+06
1.25006e+06
-44261.3
-47422.4
201738
1784.54
93634.7
681551
-681339
-126840
-1.32588e+06
6.29505e+06
-6.29235e+06
-85479
93709.6
-3.74646e+06
-90887.5
-879632
944942
156214
1.08351e+06
46844.8
36029.9
-107131
-2.8147e+06
-124588
-1.09948e+06
3.81119e+06
-3.8029e+06
-58759.3
59081.4
111608
469735
-4.88402e+06
4.88604e+06
-121486
-375720
-444044
959755
-148603
1.77218e+07
-1.77141e+07
-359935
5.77727e+06
-5.76948e+06
-242332
242489
179486
-104280
-1.03225e+06
117210
8.6688e+06
-8.66825e+06
-207089
330814
248925
80370.6
181202
-4.44299e+06
-1.74568e+06
-2.01179e+06
366580
85602.1
-85615
8.6136e+06
-8.61169e+06
146598
-195352
-586223
-545176
447160
-447186
32129.2
108708
-16004.2
110520
343244
2.6568e+06
-2.66022e+06
-990329
-306065
5.14596e+06
-5.14379e+06
-522941
53270.8
813493
1.39267e+06
-1.39244e+06
-3.97571e+06
3.98397e+06
-4.90546e+06
-8.96929e+06
8.97328e+06
168107
-84089.8
-125629
-219471
642242
-642059
277078
-3.12381e+06
3.12536e+06
20733.2
-20374.7
-4.34775e+06
4.48807e+06
1.49035e+07
-1.48974e+07
-6.08747e+06
6.09027e+06
828838
-225468
5.01376e+06
-5.01157e+06
-137426
-679438
1.18449e+07
-1.18394e+07
970900
-970724
-6.44986e+06
-5.10888e+06
5.11104e+06
-315459
315388
6.45207e+06
290181
247230
-414495
1.46785e+06
-1.46764e+06
45755.6
506126
1.04778e+06
-43021.1
3.68189e+06
5.76732e+06
-167781
5.5293e+06
-5.52344e+06
61361.2
2.06789e+06
-17321.7
441148
-441649
-60141.6
-265111
750692
-749738
-4.38326e+06
-5.21145e+06
-267646
5.54946e+06
-5.54738e+06
-6.52191e+06
-306493
-6.18026e+06
-210137
1.58938e+07
-1.58876e+07
179674
3.16999e+06
6.51482e+06
-129305
173086
6.18958e+06
206691
1.08602e+07
-1.08545e+07
-289630
290068
49444.3
-2.29839e+06
43981
7.28943e+06
-7.28692e+06
-3.08868e+06
3.08992e+06
-138486
339047
1.47028e+06
-1.47016e+06
-81605.3
4.19222e+06
-4.19369e+06
-418036
-1.61358e+06
130037
-54958.8
210032
-127747
921386
-1.18635e+06
62053
490315
-490215
-378353
540946
884825
-285947
118526
-530992
-790038
-222587
438156
496322
2.42947e+06
-4.16272e+06
3.27462e+06
-179346
-217866
-210990
-1.18846e+07
1.1886e+07
4.0929e+06
-2.32602e+06
2.3238e+06
-968628
-1.49513e+06
6.96278e+06
-6.95625e+06
1.47355e+06
2.14711e+06
-2.14605e+06
-3.5091e+06
-89041.8
1.62341e+06
-4.15919e+06
5.80892e+06
3.43516e+06
-164645
4.70225e+06
234126
147871
1.51975e+07
-1.51906e+07
488633
-1.61865e+06
2.87293e+06
-2.87476e+06
5.8666e+06
181318
380688
309069
-2.45853e+06
2.46624e+06
-24757.2
-1.11311e+06
-416524
-1.60705e+06
1.60759e+06
-221034
-18385.8
386561
4004.51
-2.20325e+06
-92104.3
3.96579e+06
154686
-2.28007e+06
2.28289e+06
10933.6
-216077
554780
539276
31481
-8.29361e+06
8.29447e+06
510426
-1.67913e+06
52078.1
-1.22592e+07
1.2261e+07
300.022
1.14787e+06
-209826
-3.32175e+06
3.32305e+06
-1.09085e+06
-5.88627e+06
5.93193e+06
9.34639e+06
-9.34302e+06
-22578.8
-1.10565e+06
1.00073e+06
-999925
-4.09839e+06
1.93486e+06
-279287
617406
-617266
-576066
6.29465e+06
-6.29283e+06
-371628
-318475
-1.31355e+06
-7.39015e+06
-3.98395e+06
-82761
7.38976e+06
419549
559500
-1.66702e+06
-2.61594e+06
2.62003e+06
3.68052e+06
-3.95324e+06
338302
4.25513e+06
245871
-91719.5
-29994.4
-235453
-3.10366e+06
-202233
37971.2
1.05814e+06
-1.15031e+06
-141080
-253461
743020
-190944
145892
-1.66149e+06
158599
217699
-1.70201e+07
1.7026e+07
703954
-586301
-2.22252e+06
2.22719e+06
2.62024e+06
-2.61932e+06
-102055
-277995
76145
-1.65378e+06
1.65663e+06
424923
-424873
165842
439856
-22180.8
-1.11524e+06
-471206
-312797
-1.0294e+06
314246
6249.5
6.69927e+06
-6.69358e+06
4.56664e+06
-4.45011e+06
2.10532e+06
514954
550287
-550038
1.13688e+06
1.69961e+06
4.22638e+06
73353
-147004
176209
29413.4
-266794
-142463
-281150
-127027
-169007
6.92224e+06
-6.91654e+06
-236989
1.39181e+06
3.42931e+06
-92182.5
-95435.8
850421
-848828
-3.74997e+06
19627.7
-6.58801e+06
6.58608e+06
7.36229e+06
-7.36393e+06
909201
-403062
209442
578925
-7.92407e+06
7.92686e+06
3.15854e+06
-3.16338e+06
1.55323e+06
526634
-526525
-499354
183219
-919653
240976
-239705
-3.85888e+06
-2.32316e+06
255975
-444247
-6.81345e+06
6.81696e+06
4.24919e+06
-115187
115448
13067.6
381795
-122716
4.82722e+06
-4.81121e+06
-540737
540795
-1.05674e+06
-5.40131e+06
5.42038e+06
-3.01142e+06
3.0125e+06
2.00553e+06
31910
428037
204860
4.94621e+06
-4.94162e+06
-830153
-1.82533e+06
-66251.3
21057.1
-1.42907e+07
1.42976e+07
187862
963033
58779
2.79916e+06
-2.79825e+06
-192150
-1.25713e+06
-59198.7
-69709
5.46299e+06
-5.46076e+06
107607
5.45596e+06
-5.45208e+06
191107
-67257.5
219368
-220516
4.74259e+06
576305
66659.3
-450128
-96990.3
1.96781e+06
-1.83934e+06
456945
-453876
95940.2
5.82656e+06
-5.82799e+06
8.42219e+06
-8.42001e+06
-45121.5
7.67733e+06
-7.67449e+06
-1.21999e+07
1.22037e+07
-168868
168827
23423.2
419587
-419495
-498196
714839
-2.16051e+06
-1.30837e+06
-162909
76092.1
46957.6
-44817.4
-3.93334e+06
3.93382e+06
999624
-136985
157489
186926
-351099
138345
-143088
-488430
58095.8
5.60935e+06
-5.61154e+06
90655.7
-4.96537e+06
-57990.4
-93795.5
-2.71554e+06
-2.33684e+06
5.16151e+06
-5.16161e+06
4.7267e+06
-189093
-832763
935900
-305436
248376
-87553
-6.1989e+06
6.20553e+06
116858
-1.44518e+06
3.86161e+06
-5.34592e+06
6.04285e+06
89325.8
5.33886e+06
-160845
361751
2.9682e+06
2.93231e+06
-1.89241e+06
1.1115e+06
201208
19469
-37509.7
-23850.5
388310
-3.86125e+06
106864
301251
-300975
96700.9
1.20882e+06
-1.85354e+06
-2.18217e+06
404635
-7.295e+06
930777
-254306
130978
207281
7.29173e+06
386489
-840149
825692
-163913
32274.7
-21775
-154535
795309
-793648
176678
-7.66571e+06
7.66693e+06
253297
7.71382e+06
-7.71037e+06
782096
1.72976e+07
-1.72901e+07
217370
153790
-553669
243715
-243562
406896
-5345.84
-231300
-390879
8.31645e+06
-8.31429e+06
-4.77931e+06
1.62748e+06
1.36545e+06
-160568
2.77001e+06
-2.77109e+06
565291
-562390
798015
40985
1.60624e+07
-1.60561e+07
6.07653e+06
-6.07347e+06
-7517.96
423509
1.81341e+06
7.00738e+06
-7.003e+06
-162309
-910926
914773
99360.7
-93439.1
-5.61549e+06
5.61774e+06
157100
756455
-756344
8.20052e+06
-8.19863e+06
-551987
-120961
-888892
42113.3
3.81635e+06
676595
-38377.9
2.07161e+06
5.14414e+06
-121505
843345
-119932
484077
-483869
-2.58213e+06
-1.22217e+07
1.22251e+07
5.23825e+06
-5.23643e+06
-1.35555e+06
-6.30012e+06
6.30543e+06
2.40502e+06
-2.39793e+06
-886492
2.62674e+06
-2.61364e+06
101504
-212806
213251
57686.7
-127558
-447513
229904
4.62569e+06
-4.6888e+06
246419
156607
-2.38451e+06
-195036
-283261
285236
-3.66889e+06
3.66996e+06
69753.5
350519
7.32686e+06
-7.32438e+06
-100576
4.04307e+06
109457
-1.14799e+06
967298
5.01339e+06
-366162
-348756
20802.8
-6.47326e+06
6.47554e+06
-2.24415e+06
2.24791e+06
-1.78719e+06
1.78743e+06
1.55765e+06
-1.54469e+06
-23355.1
212943
34172
211374
-4.0471e+06
-805595
4.09185e+06
-4.09424e+06
-51614.9
95565.4
1.81034e+06
-5.46607e+06
5.46907e+06
3.19376e+06
473638
-2696.33
5.32229e+06
-5.31878e+06
-5.56511e+06
-188050
-1.24415e+06
1.24413e+06
-3.11013e+06
-6.6442e+06
6.64942e+06
-288777
-2.42091e+06
-5.38487e+06
-121546
-954135
862951
53231.9
1.56964e+06
9.93067e+06
-9.92455e+06
-47173.1
1.22473e+07
-1.22423e+07
1.17568e+06
5.62706e+06
-5.62385e+06
-1.51996e+07
1.52066e+07
-94525.3
-1.5617e+06
1.56227e+06
-901313
901517
63105.4
-3.82077e+06
172542
1.3895e+07
-1.38895e+07
-116500
-370063
-4.71723e+06
4.70376e+06
151465
1.09744e+07
-1.09709e+07
1.94811e+06
-96841
-15536.3
15640.4
-1.03061e+06
1.03392e+06
-8.21898e+06
6.2443e+06
-6.24127e+06
185827
2.72506e+06
-2.73041e+06
3.69009e+06
-3.69204e+06
290080
3.80285e+06
9.68145e+06
-9.67834e+06
-3.68725e+06
3.68824e+06
1.85464e+06
175460
-1.09644e+07
1.09647e+07
673365
191255
-190186
161815
-161837
-3.33842e+06
1.25288e+07
-1.25261e+07
549120
-5.61787e+06
5.6205e+06
-2.88464e+06
-898046
-1.40507e+06
1.4054e+06
-8.33951e+06
8.34234e+06
-1.74899e+06
352054
-167619
2.92394e+06
-201589
-1.19355e+06
3.15059e+06
4.39799e+06
70120
-290588
-2.22526e+06
2.22587e+06
571881
-571700
195801
-58934.8
-5267.3
243192
189451
-20511.8
-25919.3
83476.9
71516
2.58729e+06
-2.5845e+06
-1.49968e+07
1.50034e+07
1.02616e+06
31589.8
-3.80447e+06
-185711
-196740
1.31217e+06
-2.08554e+06
-922848
3.04029e+06
-3.03991e+06
293024
-4.21329e+06
4.21613e+06
-1.99827e+06
-7.90833e+06
7.91088e+06
-6.68394e+06
6.68702e+06
-2.18199e+06
-6.66685e+06
6.67161e+06
2.16378e+06
-2.16336e+06
6.99165e+06
-6.98744e+06
1.79896e+07
-1.79827e+07
-47714.5
1.95764e+06
1.08671e+06
-371789
-1.28116e+07
1.28181e+07
-6.73488e+06
6.73956e+06
-58974
-402524
-2.0215e+06
235469
-235431
1.25679e+06
198103
-339559
-1.75273e+06
-400932
-91283.7
-378556
4.07634e+06
-4.07744e+06
-396107
-507036
906770
2.9431e+06
-2.94438e+06
103142
619544
1.80046e+06
-1.03329e+06
-179626
122612
-54635.1
1.30597e+07
-1.30556e+07
2.54518e+06
-2.54426e+06
1.17627e+07
-1.1758e+07
-49981.1
102873
-194083
2.0961e+06
-2.985e+06
113642
-68574.4
245993
1.04236e+06
-1.23173e+06
1.23102e+06
6.43775e+06
-6.44123e+06
680420
2.42456e+06
-1.00539e+06
1.00796e+06
1.94515e+07
-1.94441e+07
59147.7
-59002.4
-2.21569e+06
-97998
147131
665001
-204607
198169
-602386
602607
211845
-1327.93
7.56675e+06
-7.56658e+06
-372557
256203
608830
-281523
-291810
171178
4.57488e+06
-4.63357e+06
1.21331e+07
-1.21275e+07
-259192
2.09374e+06
-2.09317e+06
8.22635e+06
-8.2249e+06
-144425
5.01385e+06
-5.04496e+06
-9.6882e+06
9.69224e+06
-1.8162e+06
-233518
-6.20223e+06
-3.32502e+06
3.32558e+06
-1.06199e+07
1.06202e+07
129481
6.32362e+06
-6.2577e+06
6.26276e+06
162557
-276879
-3.98208e+06
3.98342e+06
-40374.3
146974
-162360
577525
-6.74299e+06
-6.22962e+06
6.23371e+06
3.38858e+06
5.992e+06
-5.9886e+06
1.18111e+06
2.22218e+06
6.7404e+06
-5.88141e+06
5.88657e+06
-1.68756e+06
3.15749e+06
44916
1.48529e+06
-1.48497e+06
872661
1.46768e+06
4.40391e+06
-4.401e+06
84659.8
-2.02536e+06
2.03041e+06
8.20834e+06
2.11509e+06
-2.06475e+06
2.41067e+06
-2.40828e+06
1.41388e+06
-1.14625e+06
-212115
-234720
177046
-2.07298e+06
-563631
-143245
3.37585e+06
155750
-1.65415e+06
1.07255e+07
-1.07228e+07
-3.74601e+06
3.98624e+06
-3.98891e+06
7.05997e+06
-7.05622e+06
788488
-7.66978e+06
7.67287e+06
1.05482e+06
620406
162777
-2.21485e+06
2.21359e+06
775703
-3.68422e+06
3.68605e+06
-4.1216e+06
13731.6
5.17733e+06
-308148
-137601
-340049
-1.02985e+06
1.0301e+06
1.44301e+07
-1.44244e+07
61091.3
154253
2.51281e+06
-6.9512e+06
6.95547e+06
-30993.9
3.2111e+06
-3.21196e+06
288094
-259424
259441
-371297
2.97177e+06
-707794
-1.25097e+06
1.16526e+06
2.98677e+06
-2.98601e+06
-3.15797e+06
199771
334774
-14270.5
-205980
-731752
-29867.7
-792609
371081
-1.29467e+06
2.99127e+06
-2.99345e+06
267968
1.18431e+07
-1.18399e+07
326137
-320779
395821
-311759
329419
-2.8944e+06
5.12789e+06
84426.9
134238
27898.6
-22597.7
907149
-3973.33
-352989
44885.7
-2.0784e+06
2.08006e+06
6.04477e+06
-6.04583e+06
1.54023e+06
-984159
2.22466e+06
-3.34879e+06
3.34962e+06
-272801
-16498.4
75402.8
-6.19397e+06
6.19722e+06
2.22289e+06
243093
-297534
135199
-81672.4
-272489
274499
256121
-14849.6
-396673
-2.30574e+06
491921
5.10151e+06
-5.09765e+06
-7.10362e+06
7.10903e+06
3.08647e+06
74874.9
504527
-504423
-7.05204e+06
7.05802e+06
13861.1
2.72605e+06
148159
1.27362e+06
197970
114920
651916
337433
-418348
-1.96078e+07
1.96152e+07
-85137.6
1.46378e+07
-1.4631e+07
2.80149e+06
-2.80994e+06
4.88327e+06
-622610
495530
-2.0683e+06
1.60456e+06
-30460.6
-2.14634e+06
-3.63469e+06
7.25479e+06
-7.25932e+06
-3.73033e+06
3.63289e+06
-3.0612e+06
3.06294e+06
1.56918e+06
-297224
-16004.7
414963
1.35072e+07
-1.35013e+07
420240
-6.29024e+06
6.2932e+06
3.81834e+06
157044
-2.55349e+06
186925
6.3228e+06
-6.31687e+06
1.35388e+06
195541
34483.8
-203815
204020
-406183
403226
4.34308e+06
-4.62779e+06
-123498
-992006
1.074e+06
308798
9691.83
-140750
241452
-9037.89
-6.95169e+06
6.95699e+06
-203560
324456
-6.11854e+06
6.12242e+06
132167
-6.21271e+06
-37349.7
-1.9697e+06
6.22269e+06
-40878.9
41188.5
108093
5.0171e+06
-7.48365e+06
7.48916e+06
4.59907e+06
-275115
-4698.49
26243.7
-25254
1.8003e+06
7.62682e+06
-7.62374e+06
-141636
77517.4
31682.4
268562
-80402.8
-315915
-324428
1.40879e+06
-1.40703e+06
266052
-109602
886235
1.02608e+06
-1.02577e+06
5.3228e+06
-5.43268e+06
5.43715e+06
6.2909e+06
-6.28845e+06
-1.92755e+07
1.92829e+07
293719
1.95275e+06
-2.01651e+06
-167170
103359
2.90542e+06
-581910
-2.96064e+06
-4.19701e+06
269253
-248644
-3.96306e+06
3.96504e+06
-385792
-4.29636e+06
443845
1.96941e+06
-186095
-75168.4
-126372
208260
7.94528e+06
-7.94285e+06
-249165
31423.3
-1.56521e+06
1.56252e+06
-325431
-255402
-17717
3775.79
-82738.9
82003.3
454845
2.08417e+06
-2.08306e+06
-237785
-7.26235e+06
7.26615e+06
-350377
-4.94047e+06
106291
4.92653e+06
172494
-154696
600943
-2.0771e+06
-698711
-18617.1
-7.11139e+06
7.1151e+06
435948
-349493
-79737.5
450610
-4.6643e+06
4.66567e+06
1.84645e+07
-1.84565e+07
-3.66834e+06
-592237
-531173
-6.55624e+06
6.56186e+06
131640
-131239
-129886
-285607
3.89488e+06
142387
3.66451e+06
1.51772e+06
-5.90254e+06
5.90725e+06
-875150
100558
-4.29374e+06
-179635
-364785
-3.29237e+06
2.88857e+06
-2.88693e+06
-556920
-258108
258161
390114
-388356
194348
4.51497e+06
-74393.7
-4.67875e+06
-870872
874011
-752927
3.76496e+06
-202671
4.31666e+06
-214917
-1.22813e+06
1.22843e+06
343097
-1.7872e+07
1.78782e+07
-4.47134e+06
4.473e+06
75141.4
281954
-280364
-10928.3
-169987
170000
-3.61532e+06
3.61738e+06
-1.04649e+07
1.04649e+07
27886.3
1.92026e+06
1.62568e+06
-1.62531e+06
-161138
-155039
5.75008e+06
-5.74552e+06
-1.24871e+06
-16491.1
6.42497e+06
-6.42163e+06
-2.48822e+06
6.14736e+06
-6.14878e+06
152604
93523.5
-1.28751e+06
6.80145e+06
-6.79921e+06
110375
2.36154e+06
-2.35822e+06
-6.21523e+06
6.21933e+06
4.11355e+06
-4.11525e+06
2.42717e+06
-2617.51
-3.29907e+06
3.29803e+06
-3.00333e+06
3.00494e+06
-1.94905e+06
-781700
1.09984e+06
753914
24114.8
1.18291e+06
1.08067e+07
-1.08043e+07
5.4722e+06
-5.46906e+06
-3.54639e+06
3.54727e+06
-125092
-1.75923e+06
1.54681e+06
4.20802e+06
-4.20582e+06
-4.33488e+06
-636523
639531
-124776
-186929
2.48298e+06
-2.4687e+06
-367830
-293572
214704
-40178.5
40438.2
-145492
-5.12147e+06
5.11215e+06
125098
1.36131e+06
-362638
172483
-8.77296e+06
8.77315e+06
199453
-4.74083e+06
469772
-1.26658e+07
1.26712e+07
617767
5.19784e+06
-5.19498e+06
-230614
-3.36183e+06
-821055
29389.3
-2.54818e+06
-35949.3
-1.03436e+06
1.03456e+06
441629
-443463
543479
-3.9535e+06
3.95483e+06
-2.03963e+06
-1.57401e+06
2.04078e+06
-3.47401e+06
3.48004e+06
2.6347e+06
-1.17279e+06
-35786.4
680495
-2.57819e+06
1.9537e+06
334503
-338962
670750
-4.26937e+06
-256541
-1.67883e+06
-96664.9
287464
-465092
1.0877e+06
163678
-105936
-3.12641e+06
3.1273e+06
-687261
687435
-272310
1.81226e+06
-1.79535e+06
-940794
-1.70864e+06
2.59057e+06
-258958
1.28771e+06
54860.6
-666595
774965
-1.06823e+06
1.06845e+06
-1.91724e+06
-114606
224107
1.91845e+07
-1.91765e+07
15217.5
184740
952774
66161
136811
-1.05376e+06
482757
176970
-2.6728e+06
43423.4
31371.8
-31412.6
1.93495e+06
-1.97625e+06
242223
501248
5.89056e+06
-5.89444e+06
2.24835e+06
241727
1.9061e+06
-5.04753e+06
5.05162e+06
44632.3
232016
5.33476e+06
-2.60961e+06
392474
-149760
421818
-115989
73235.5
88851.1
131903
122276
2.09756e+06
-24333
234204
-233941
-1.98802e+06
1.99219e+06
459037
-456873
274167
-275722
3.28907e+06
-9.35622e+06
9.36247e+06
-92956.7
241839
-57234.8
3.07212e+06
-5.09553e+06
-3.85503e+06
230865
-1.12639e+06
1.12377e+06
-3.20337e+06
3.20376e+06
-7.12673e+06
7.12356e+06
63311.1
-6.40349e+06
203748
-164868
-213704
3.81901e+06
-80207.2
-201681
384178
-9285.16
6.40684e+06
-285534
870375
6.30984e+06
-57292.8
63669.1
-248379
405915
-1.33599e+06
1.46457e+06
-1.46427e+06
5.35504e+06
-5.35154e+06
-3.57654e+06
629897
-381541
-2.47627e+06
2.47686e+06
2.49761e+06
295656
-145154
141976
103926
-116804
-109785
-816209
1.18982e+06
-1.17848e+06
229552
-4.89908e+06
-123050
-202802
-6.24055e+06
6.25204e+06
-704579
4.52354e+06
-4.52028e+06
311823
-311330
-341664
5.34109e+06
-5.33777e+06
-100001
-334381
-140298
-1.14848e+06
-968142
972299
-5.57935e+06
5.58333e+06
107144
539606
4.97397e+06
6.80499e+06
-6.80194e+06
6.74618e+06
-6.74169e+06
849736
-6.03177e+06
6.03504e+06
3.57448e+06
-179512
-1.81004e+06
1.8105e+06
-2.35781e+06
234510
232666
1.29421e+06
12773.7
-13781.8
-4.89739e+06
4.90124e+06
-3.19935e+06
3.20122e+06
5.89891e+06
-5.90091e+06
114994
3.1979e+06
-3.19922e+06
-275308
-3732.72
-14031.8
4.41412e+06
-4.41117e+06
604413
-3536.83
950867
-417179
-383.48
-1.49394e+07
1.49452e+07
-563996
397292
-236308
-6.80191e+06
6.80483e+06
69400.5
396878
-405121
5.08631e+06
-5.08025e+06
-25857
25394.1
3.06202e+06
2.73272e+06
2.97118e+06
106032
4.59755e+06
2.92768e+06
-3.06156e+06
-2.48824e+06
1.62164e+06
-1.62122e+06
459138
360503
-360114
345929
-1.80944e+06
1.81099e+06
42994.7
-71132.7
-6.23282e+06
6.23626e+06
-369776
2.24921e+06
6.09803e+06
2.17067e+06
-59054.2
-5.47238e+06
5.47665e+06
1.35747e+06
-1.34443e+06
-1.76169e+06
-35632.4
2832.35
181921
-327746
387925
-412137
-1.7986e+06
-443970
444127
-6.3603e+06
6.36401e+06
-226121
-785441
755835
146118
79472.2
335864
-312615
47113.3
-62971.4
65358.6
-70874.1
-11512.5
1.29082e+06
-3.60834e+06
-203232
4.62277e+06
-4.61921e+06
673875
-3.8487e+06
3.85016e+06
1.29269e+06
-1.29266e+06
-4.70882e+06
-177066
-1.01002e+06
43073.8
147414
1.31961e+06
-1.31929e+06
-268962
-68788.3
2.0483e+06
-244822
941157
-938934
-68742.4
354296
6.91071e+06
-6.90506e+06
-1.43776e+07
1.43838e+07
-2.62868e+06
2.62849e+06
-6.10848e+06
794043
-212804
6.08501e+06
252580
4.38491e+06
-4.35867e+06
409709
-6.50536e+06
6.512e+06
-4.14841e+06
-278521
271500
41941.7
2.92417e+06
263214
4.54299e+06
349214
-1.29794e+06
-64731.8
-852954
853092
5.13496e+06
-7.25402e+06
7.25762e+06
-2.35439e+06
2.3551e+06
1.23181e+06
3.58834e+06
-7.02082e+06
7.02678e+06
-150095
17503.5
2.46356e+06
4.88027e+06
-2.89012e+06
332069
8.76501e+06
-8.75902e+06
126774
1.06899e+07
-1.06905e+07
-90072.8
90075.4
-5.08937e+06
-5.88053e+06
-56941.8
-4.38926e+06
5.85693e+06
-260178
1.23127e+06
-1.229e+06
5.73018e+06
-5.72614e+06
-364468
-2.52299e+06
-495760
311690
-3.49262e+06
247938
-246671
6.48416e+06
71711.7
-33134.3
41942.7
1242.63
-3.35779e+06
3.35934e+06
72744.9
-265041
265020
1.4996e+06
2.27444e+06
-2.27419e+06
-199214
3.17648e+06
445318
1.60938e+07
-1.60867e+07
102410
-122990
-46136.7
-172682
-857032
116591
418358
-1.11916e+06
-7.29727e+06
7.30041e+06
291176
266343
61118.3
72700.6
-3.10331e+06
152721
261794
-340803
-1.25921e+07
1.25957e+07
-6.7564e+06
-127474
6.73327e+06
1.58126e+06
1.77098e+07
-1.7703e+07
215729
-7.10281e+06
-334647
7.03608e+06
1.3018e+06
-1.30314e+06
-1.11731e+06
1.11754e+06
162526
-175657
309413
-122813
4.4114e+06
-4.40801e+06
-81674.6
-2.57205e+06
-562681
454684
881503
4.81692e+06
-4.82039e+06
-1.33805e+06
-309707
-769133
-6.84544e+06
6.84929e+06
5.09415e+06
-5.09766e+06
-24503.5
7167.52
-1031.61
-125818
-717574
-460954
817856
-817680
78034
33327.4
1.04828e+06
123611
177143
-1.68694e+06
1.68747e+06
76438.8
3.19217e+06
-78692.6
-5.7839e+06
5.7896e+06
2.45521e+06
-2.45201e+06
-3.76496e+06
-193091
4.64608e+06
-4.65386e+06
-795668
-3.22964e+06
252689
743496
-2.32888e+06
7.24517e+06
-7.23949e+06
-130787
-2.90615e+06
-1.41025e+06
1.40362e+06
1.28232e+06
-1.28057e+06
305874
7.11621e+06
-7.10969e+06
1.22256e+07
-1.22196e+07
367611
-356864
-3.57504e+06
-1.67264e+06
933754
-221641
5.82836e+06
-5.82982e+06
29984.8
-7.13376e+06
7.14294e+06
323355
479779
-24267.8
2.72025e+06
-2.72698e+06
47628.6
-564937
-68872.4
170701
-4877.14
-2.327e+06
2.32769e+06
-330918
1.0115e+06
2.4559e+06
8.61407e+06
-8.61219e+06
-1.80409e+07
1.80478e+07
-3.80798e+06
-2.43012e+06
-6.38883e+06
6.39606e+06
-1.92304e+07
1.92377e+07
-4.91942e+06
4.91758e+06
-3.50359e+06
3.50489e+06
857505
1.29131e+06
1.58786e+07
-1.58728e+07
106080
1.43769e+06
-1.43731e+06
1.97002e+06
196600
272372
1.927e+06
-1.92628e+06
5.3397e+06
-3.45897e+06
331972
-166968
5.27489e+06
2.30761e+06
-117119
277320
-1.72701e+06
7.62695e+06
-7.62394e+06
9.63291e+06
-9.63269e+06
3.76816e+06
-3.76648e+06
-5.33753e+06
1.46427e+06
-1.46325e+06
-1.32221e+06
1.32095e+06
43081.7
46257.9
-225500
208217
6.66572e+06
-6.65983e+06
-3.07551e+06
3.07646e+06
1.96099e+07
-1.96023e+07
103151
-605932
-88130.5
394731
-368890
-1.65501e+06
1.65657e+06
-36399.3
-82530.1
-2.16215e+06
76584.3
-1.39671e+06
-5.27277e+06
-6.79295e+06
6.79703e+06
-2.24863e+06
156961
-67983.8
-5.32589e+06
5.33095e+06
321844
4.28887e+06
-4.28593e+06
-60803.1
-1.11966e+06
-815865
-424950
424995
-442667
1.337e+07
-1.33646e+07
-3.28333e+06
798239
473587
2.93729e+06
-41753
-27839.5
192790
-191889
-1.69724e+06
78658.1
-834500
-1.55448e+06
5.26644e+06
5.52143e+06
257219
2.44252e+06
-1.97389e+06
1.88619e+06
110445
-110909
-6.64191e+06
1.81343e+06
1.22767e+06
53533.9
-250136
1.53982e+07
-1.53921e+07
2.1634e+06
6.61831e+06
673312
-671739
-1.03122e+06
964622
-964435
-5.20597e+06
5.21039e+06
591124
-1.84658e+07
1.84726e+07
236141
4.04249e+06
80776.5
41681.3
250506
2.72761e+06
-2.73155e+06
223068
5.92026e+06
-5.92072e+06
-169728
124811
45178.6
-44948.3
-2.25626e+06
-808532
-372899
1.49973e+07
-1.49902e+07
2.27975e+06
-197800
828310
383775
1.46937e+06
-1.46898e+06
8.03241e+06
-8.02953e+06
60541.9
-340851
-1.41978e+06
248926
1.14872e+06
2.17245e+06
439019
-441389
470703
-88297.2
180432
113389
-365901
117726
245273
-392539
705255
1.01139e+07
-1.01081e+07
-59265.7
-5.7703e+06
5.77552e+06
-1.94874e+06
1.95049e+06
102297
-5.43015e+06
5.43431e+06
-2.69483e+06
-3.34483e+06
5.71797e+06
726323
335858
-352612
315030
-6.99986e+06
7.00645e+06
1.78694e+06
90433.9
-89918.9
1.72053e+07
-1.71978e+07
-334.596
-6.63269e+06
6.69211e+06
49940.7
345761
313732
4.96762e+06
-4.96559e+06
-2.35251e+06
-88569.2
3.28232e+06
-3.28105e+06
-191029
14704.2
-87416.1
1.79608e+06
-7.37759e+06
7.38185e+06
1.70961e+06
225466
13243.5
-1.32252e+06
8.28823e+06
-8.28387e+06
-1291.13
6.17596e+06
-6.06096e+06
-3.93797e+06
7.99368e+06
-7.99033e+06
6.06659e+06
271442
1.27826e+06
-241460
1.65134e+06
-1.65097e+06
1.02627e+06
-710810
6.00652e+06
-6.00351e+06
4.65513e+06
-4.65668e+06
216737
168074
-6.09736e+06
62132.5
-1.07516e+07