/*--------------------------------*- C++ -*----------------------------------*\
| =========                 |                                                 |
| \\      /  F ield         | OpenFOAM: The Open Source CFD Toolbox           |
|  \\    /   O peration     | Version:  v3.0+                                 |
|   \\  /    A nd           | Web:      www.OpenFOAM.com                      |
|    \\/     M anipulation  |                                                 |
\*---------------------------------------------------------------------------*/
FoamFile
{
    version     2.0;
    format      ascii;
    class       volSymmTensorField;
    location    "5000";
    object      sigma;
}
// * * * * * * * * * * * * * * * * * * * * * * * * * * * * * * * * * * * * * //

dimensions      [1 -1 -2 0 0 0 0];

internalField   nonuniform List<symmTensor> 
27023
(
(-1.81816e+07 -1.50172e+07 1.51765e-13 -1.46231e+07 -2.0898e-14 -8.13949e+06)
(1.81892e+07 -1.50242e+07 1.00549e-13 1.46293e+07 -1.69164e-13 8.14294e+06)
(1.17181e+07 -1.11049e+07 6.61282e-13 1.16371e+07 -1.9362e-13 5.79491e+06)
(-1.17129e+07 -1.11e+07 5.07359e-13 -1.16339e+07 1.49877e-13 -5.79283e+06)
(-1.83667e+07 -1.43077e+07 0 -1.3742e+07 0 -7.96681e+06)
(1.83745e+07 -1.43146e+07 -5.03565e-13 1.37477e+07 1.52537e-13 7.97015e+06)
(9.8812e+07 -1.39841e+07 4.18483e-12 5.22671e+06 -3.98832e-12 2.58141e+07)
(-9.87894e+07 -1.39789e+07 -1.03365e-12 -5.22486e+06 -9.62153e-13 -2.5808e+07)
(4.40688e+06 -5.6004e+06 -9.7981e-14 8.17117e+06 6.55432e-14 3.12087e+06)
(-4.4008e+06 -5.59843e+06 -4.6136e-13 -8.17448e+06 -1.28803e-13 -3.12018e+06)
(7.15226e+07 -1.37137e+07 -6.26138e-13 8.1209e+06 1.1232e-12 1.97612e+07)
(-7.14996e+07 -1.37063e+07 -8.92025e-13 -8.11959e+06 -5.12426e-13 -1.97551e+07)
(795551 -1.31015e+06 -6.35561e-14 2.17055e+06 -1.29343e-13 735949)
(-812900 -1.31676e+06 3.38615e-14 -2.17022e+06 -3.4667e-14 -740172)
(-2.85772e+07 -2.45866e+06 7.64947e-13 -764881 3.14063e-12 -7.28037e+06)
(2.33805e+06 1.07706e+07 9.37841e-13 122143 -7.07599e-13 610423)
(1.58231e+06 1.0293e+07 -8.49265e-13 446298 -3.59684e-13 503340)
(-6.12542e+07 -2.44613e+06 0 -1.33582e+06 0 -1.55298e+07)
(6.12759e+07 -2.44934e+06 3.10607e-12 1.33561e+06 -1.77292e-12 1.55352e+07)
(4.4919e+07 -1.97002e+06 0 2.07888e+06 0 1.16611e+07)
(-4.48995e+07 -1.96679e+06 -6.75474e-14 -2.07373e+06 9.53193e-13 -1.1655e+07)
(9.82441e+07 -1.25812e+07 4.65895e-16 4.46728e+06 -9.90047e-13 2.54848e+07)
(-9.82212e+07 -1.25764e+07 -2.42819e-12 -4.46557e+06 -2.95057e-12 -2.54787e+07)
(5.02501e+07 -1.33e+06 -8.60729e-13 6.69346e+06 -1.36796e-12 1.41288e+07)
(-5.02346e+07 -1.32479e+06 2.20346e-12 -6.68808e+06 -2.27237e-13 -1.41237e+07)
(7.90564e+06 -375691 3.54574e-12 760224 -5.09371e-13 2.15018e+06)
(-3.51343e+07 3.61825e+06 1.64726e-12 -4.78249e+06 2.63764e-13 -9.90416e+06)
(3.72564e+06 -1.37065e+06 7.74303e-12 -29762.2 2.00996e-11 917021)
(-3.46716e+07 3.32215e+06 -1.28698e-12 -5.23335e+06 6.75806e-13 -9.90124e+06)
(3.40465e+07 -2.98172e+06 -4.76688e-12 -136709 5.97546e-12 8.4137e+06)
(1.64017e+07 -732288 9.15974e-12 967537 -4.92194e-12 4.30966e+06)
(4.49603e+07 -2.39783e+06 3.81855e-13 2.06496e+06 -1.94899e-12 1.16679e+07)
(-4.4942e+07 -2.3955e+06 4.71046e-12 -2.06182e+06 3.86569e-12 -1.16626e+07)
(-4.56847e+07 -2.07752e+06 -4.54638e-13 -97284.8 2.1163e-12 -1.13594e+07)
(-2.82905e+07 -1.60953e+06 9.31993e-13 -830460 3.8469e-12 -7.22551e+06)
(3.55085e+07 -1.80701e+06 -1.00701e-11 123761 1.91928e-12 8.84109e+06)
(4.094e+07 -1.08616e+06 1.61034e-12 3.53188e+06 -1.36799e-12 1.10344e+07)
(-4.09162e+07 -1.0814e+06 3.22051e-12 -3.5311e+06 2.73586e-12 -1.10283e+07)
(4.22448e+06 -5.58867e+06 1.80986e-13 7.6342e+06 -1.66881e-13 2.94238e+06)
(-4.22159e+06 -5.58753e+06 -2.61985e-13 -7.63611e+06 -1.20417e-13 -2.94213e+06)
(-1.16881e+07 -1.11165e+07 -1.94089e-13 -1.23267e+07 -6.59375e-14 -5.95855e+06)
(1.16936e+07 -1.11215e+07 -8.56473e-14 1.23303e+07 2.21876e-14 5.96081e+06)
(-2.30787e+07 -1.93314e+06 -1.01857e-11 -189087 -5.09571e-12 -5.77322e+06)
(-1.75067e+07 -1.44928e+07 -1.05711e-13 -1.34835e+07 -1.33088e-13 -7.6893e+06)
(1.75143e+07 -1.44997e+07 1.05692e-13 1.34895e+07 -1.32908e-13 7.69265e+06)
(6.04648e+07 -2.37226e+06 4.79301e-12 1.24943e+06 -1.35844e-12 1.53126e+07)
(-6.0443e+07 -2.36908e+06 -3.45858e-12 -1.24935e+06 -2.07014e-12 -1.53071e+07)
(4.75331e+07 -1.58667e+06 -4.50624e-12 5.19224e+06 1.70614e-12 1.30822e+07)
(-4.75137e+07 -1.58356e+06 4.50623e-12 -5.18641e+06 1.70609e-12 -1.3076e+07)
(3.14496e+07 -2.59246e+06 -3.04381e-12 -153435 1.13343e-12 7.7652e+06)
(4.58664e+07 -793982 3.40325e-12 4.88869e+06 -1.01948e-12 1.25934e+07)
(-4.58473e+07 -790698 -1.32879e-12 -4.88304e+06 -1.73068e-13 -1.25872e+07)
(-4.45622e+07 -2.27413e+06 7.92885e-12 -72698.3 1.01151e-12 -1.10748e+07)
(491.01 -83072.2 4.29907e-15 566106 2.27136e-14 140584)
(-491.552 -82849 9.60271e-14 -562998 7.95038e-14 -139813)
(5.02109e+07 -2.10301e+06 1.65669e-12 184804 3.33063e-12 1.25042e+07)
(2.09761e+07 -1.72826e+06 2.68252e-12 258272 7.20877e-12 5.26868e+06)
(3.72468e+07 -1.52853e+06 1.25306e-11 -45322.4 3.09982e-12 9.23044e+06)
(-1.70106e+07 -2.87152e+06 -2.25034e-12 33921.8 1.86742e-12 -4.21225e+06)
(1.11652e+07 -1.14833e+07 -1.02914e-12 1.27947e+07 3.42339e-13 5.94496e+06)
(-1.11605e+07 -1.14784e+07 -6.90458e-13 -1.2791e+07 -2.18906e-13 -5.94284e+06)
(3.09194e+07 -1.62231e+06 -1.82789e-11 66787.8 6.60473e-12 7.68831e+06)
(4.78796e+06 -1.9914e+06 7.38606e-12 243289 -1.63131e-12 1.24835e+06)
(5.52917e+06 -870700 4.195e-12 -154725 2.10558e-11 1.33351e+06)
(-2.2416e+07 -3.08554e+06 -1.08886e-11 -83349.5 -1.61896e-11 -5.58254e+06)
(1.45623e+07 -367697 -2.15753e-12 1.04965e+06 9.71954e-13 3.87363e+06)
(3.99742e+07 -1.76091e+06 1.12363e-12 1.35205e+06 -5.19546e-12 1.02539e+07)
(9.7939e+06 7078.84 -4.86329e-12 823485 1.82423e-13 2.63439e+06)
(-3.56267e+07 3.80005e+06 1.06436e-12 -4.02936e+06 -8.67333e-13 -9.83947e+06)
(-2.1532e+07 -2.77967e+06 -1.06577e-11 -205387 -2.28317e-12 -5.39349e+06)
(3.92016e+07 -1.43684e+06 0 3.71037e+06 0 1.06473e+07)
(-3.91775e+07 -1.43197e+06 -3.25407e-12 -3.70953e+06 -4.73388e-12 -1.06411e+07)
(6.84614e+07 -4.12951e+06 -3.11191e-13 6.33711e+06 2.58403e-12 1.8559e+07)
(-6.84433e+07 -4.12433e+06 -1.81526e-12 -6.33292e+06 3.44462e-12 -1.85535e+07)
(9.11075e+07 -1.45217e+06 -1.94428e-12 126566 6.80939e-12 2.2637e+07)
(-9.10874e+07 -1.4519e+06 -1.16824e-12 -126590 3.32904e-12 -2.2632e+07)
(166299 -339429 1.1637e-14 948634 6.40167e-14 276638)
(-164320 -337271 -6.22781e-14 -947544 5.69309e-14 -275876)
(-1.07401e+08 -5.70706e+06 7.23298e-12 -1.51321e+06 6.49358e-12 -2.70237e+07)
(1.07422e+08 -5.70869e+06 -3.30572e-12 1.51352e+06 4.30556e-12 2.70292e+07)
(-2.66746e+07 1.35764e+06 1.15712e-12 -3.53739e+06 1.74061e-12 -7.4962e+06)
(6.91086e+07 -1.30051e+07 3.90586e-12 7.69899e+06 -2.67239e-12 1.90575e+07)
(-6.90855e+07 -1.29977e+07 -3.07189e-12 -7.69745e+06 -2.09799e-12 -1.90514e+07)
(6.66916e+07 -4.55835e+06 -5.74876e-13 6.69802e+06 1.08142e-12 1.82095e+07)
(-6.66736e+07 -4.55325e+06 1.44567e-12 -6.69369e+06 3.62409e-12 -1.82039e+07)
(-9.67123e+07 -738839 -4.621e-12 15066.3 -1.5907e-12 -2.39926e+07)
(9.67322e+07 -738743 -2.48274e-12 -15018.7 1.34865e-12 2.39975e+07)
(-3.98313e+07 -1.75834e+06 2.71918e-12 -1.31651e+06 -5.32153e-13 -1.02096e+07)
(3.83685e+06 -2.90371e+06 5.12528e-12 183026 -3.96181e-13 997414)
(-1.79884e+07 -2.77007e+06 -4.44485e-12 68613.5 2.55323e-12 -4.44627e+06)
(1.72447e+07 -2.66655e+06 2.61904e-12 170271 4.24733e-11 4.321e+06)
(2.27778e+07 -1.46881e+07 1.31291e-13 1.21094e+07 1.26004e-13 8.65623e+06)
(-2.27687e+07 -1.46808e+07 -2.63488e-13 -1.21036e+07 -1.50029e-13 -8.65253e+06)
(1.99651e+07 7.99237e+06 -3.70724e-13 2.18653e+06 6.52629e-13 5.49628e+06)
(-8.13538e+06 -2.06266e+06 -8.09663e-14 -467126 -1.05143e-13 -2.13446e+06)
(-5.03793e+07 -455291 -3.55886e-12 -6.27862e+06 -2.86297e-12 -1.4058e+07)
(5.03892e+07 -457085 -3.74858e-12 6.28271e+06 5.78041e-13 1.40615e+07)
(-2.66108e+07 1.90621e+06 3.3903e-12 -3.6654e+06 6.82845e-13 -7.51214e+06)
(-1.79246e+07 -3.105e+06 -5.43546e-12 -181618 -3.59197e-12 -4.49251e+06)
(864102 -3.36661e+06 2.948e-12 -36459.1 6.52977e-12 205355)
(-2.93061e+07 -1.84116e+06 -2.01461e-12 -7621.95 -6.94991e-12 -7.27334e+06)
(-1.83502e+07 -211081 -8.47534e-12 -114199 1.75643e-11 -4.5814e+06)
(1.86688e+07 -130552 -3.24454e-12 403217 3.24895e-11 4.73215e+06)
(8.02181e+07 -8.75085e+06 -3.424e-14 6.57644e+06 1.41595e-12 2.15355e+07)
(-8.01985e+07 -8.7446e+06 2.0008e-12 -6.57309e+06 1.07015e-12 -2.15298e+07)
(3.23818e+06 -2.0418e+06 1.28222e-11 -145014 -2.3564e-13 767476)
(8.96806e+07 -8.93608e+06 -1.23239e-12 4.98558e+06 1.86276e-14 2.34886e+07)
(-8.96596e+07 -8.93131e+06 8.84389e-13 -4.9835e+06 -1.13838e-12 -2.34829e+07)
(4.95614e+07 -2.21334e+06 -4.74725e-12 410906 -1.55638e-12 1.23991e+07)
(3.48349e+07 -1.80405e+06 2.64148e-11 365097 -8.17927e-12 8.73385e+06)
(2.13123e+07 -3.47399e+06 -1.19771e-11 -162637 -4.0375e-12 5.24765e+06)
(8.99687e+07 -9.35369e+06 -8.99633e-14 5.89672e+06 1.52129e-12 2.37862e+07)
(-8.9948e+07 -9.34883e+06 9.6332e-13 -5.89443e+06 3.60389e-13 -2.37805e+07)
(4.97227e+07 -438965 -4.53823e-12 6.18506e+06 4.83978e-12 1.38718e+07)
(-4.9708e+07 -434560 6.93055e-13 -6.1812e+06 2.05317e-12 -1.38673e+07)
(9.18947e+07 -860136 2.04222e-12 160326 2.66599e-12 2.28407e+07)
(-9.18746e+07 -859794 4.93094e-12 -160198 4.21259e-12 -2.28357e+07)
(2.21206e+07 2.75711e+06 -3.31708e-13 -1.22314e+06 1.78381e-13 5.18508e+06)
(-3.62948e+07 438430 -1.46708e-12 -2.40844e+06 5.36604e-14 -9.60305e+06)
(-2.70463e+07 -1.25087e+06 2.30631e-12 -2.2606e+06 -6.91523e-13 -7.27163e+06)
(2.19709e+07 -2.02612e+06 -1.29418e-11 335416 -5.27235e-13 5.53464e+06)
(2.30913e+06 -1.46436e+06 7.67521e-12 31496.6 -1.36758e-12 580758)
(-7.44717e+07 -2.82992e+07 -7.24533e-13 -1.21692e+07 -7.08973e-13 -2.14974e+07)
(7.44954e+07 -2.83079e+07 1.9688e-12 1.21728e+07 -2.18314e-12 2.15041e+07)
(1.06434e+08 -1.34231e+07 -3.58551e-12 2.25502e+06 2.97732e-12 2.69679e+07)
(-1.0641e+08 -1.34195e+07 1.66901e-12 -2.25428e+06 5.92181e-13 -2.69619e+07)
(2.23826e+07 -1.41724e+07 -5.29836e-14 1.13626e+07 2.27985e-13 8.37287e+06)
(-2.23734e+07 -1.41651e+07 3.07634e-13 -1.13568e+07 2.54409e-13 -8.36914e+06)
(8.15409e+07 -9.45176e+06 3.17066e-13 7.11143e+06 4.7095e-13 2.19964e+07)
(-8.15212e+07 -9.44522e+06 2.22509e-12 -7.10768e+06 2.67463e-12 -2.19906e+07)
(-1.64634e+07 -1.71827e+06 -1.02384e-12 -163095 8.45643e-12 -4.12537e+06)
(-1.95691e+06 -1.47434e+06 2.35077e-14 -1.17184e+06 5.83021e-14 -776306)
(1.98954e+06 -1.46946e+06 -1.15607e-14 1.07585e+06 3.17152e-14 760586)
(-1.5381e+07 -1.16999e+06 1.35348e-13 -1.157e+06 -1.38004e-13 -4.10342e+06)
(1.89696e+07 -2.48185e+06 -9.28762e-12 211274 -4.02977e-12 4.75916e+06)
(-9.69717e+07 51489.7 -7.2085e-12 -170217 -1.01483e-11 -2.41029e+07)
(9.69917e+07 51549.9 -1.85638e-13 170231 2.31032e-12 2.41078e+07)
(9.34992e+06 3.45215e+06 2.2545e-12 1.29548e+06 1.59896e-12 2.64134e+06)
(6.28571e+07 -2.78466e+06 2.34168e-12 1.95928e+06 -5.32605e-12 1.60823e+07)
(-6.28352e+07 -2.78194e+06 2.63874e-13 -1.95885e+06 -3.39702e-12 -1.60767e+07)
(-9.23915e+07 -1.54978e+07 -6.67463e-13 -6.7483e+06 -1.31795e-12 -2.45986e+07)
(9.24145e+07 -1.55047e+07 -5.16973e-12 6.75118e+06 3.31647e-12 2.4605e+07)
(-6.5123e+06 3.34036e+06 -2.2928e-12 -758609 -2.14753e-12 -1.80406e+06)
(9.55705e+07 -1.36651e+07 -2.19933e-12 5.5584e+06 2.30399e-12 2.50921e+07)
(-9.55481e+07 -1.36594e+07 -1.4925e-12 -5.5562e+06 -5.37079e-13 -2.5086e+07)
(-1.54636e+07 -621511 1.72387e-12 -847651 4.07271e-12 -4.04716e+06)
(-1.6939e+07 -2.07185e+06 -8.66803e-12 10317.6 -1.23422e-12 -4.20036e+06)
(4.57141e+07 137070 -3.08188e-12 5.71431e+06 3.38807e-12 1.27604e+07)
(4.07134e+07 -2.46324e+06 1.11164e-12 1.36057e+06 2.96089e-12 1.04394e+07)
(3.85054e+07 -2.22835e+07 2.02745e-13 1.58931e+07 3.94981e-13 1.34974e+07)
(-3.84908e+07 -2.22749e+07 -2.87016e-13 -1.58869e+07 -1.41502e-13 -1.34922e+07)
(4.82616e+07 -1.89429e+07 1.09741e-12 1.16418e+07 -1.12917e-12 1.48632e+07)
(-4.82471e+07 -1.89353e+07 -6.29849e-13 -1.16358e+07 -3.76144e-13 -1.48582e+07)
(-2.76116e+07 -3.01174e+06 2.75276e-12 -7154.56 -4.98312e-12 -6.85277e+06)
(-2.91282e+07 -887298 2.6928e-12 -2.13989e+06 -5.76864e-13 -7.75824e+06)
(-3.01946e+07 -653343 1.94987e-11 -343605 8.94805e-13 -7.57714e+06)
(3.01636e+07 -643186 -8.30646e-12 599722 7.93136e-12 7.63301e+06)
(2.87365e+07 -1.98288e+06 5.61639e-12 864073 -4.91716e-12 7.34449e+06)
(6.21081e+07 -2.86781e+06 5.8197e-12 1.97668e+06 -8.51267e-12 1.59007e+07)
(-6.20863e+07 -2.86518e+06 -2.55233e-12 -1.97617e+06 -2.33191e-12 -1.58952e+07)
(-5.62934e+07 -1.76367e+06 4.14449e-12 198668 3.79483e-12 -1.39182e+07)
(-2.33128e+07 -2.81499e+06 -9.24623e-12 -26339.3 -1.36148e-12 -5.79092e+06)
(-4.85981e+07 -1.38021e+06 8.85352e-12 -41607.3 3.27797e-12 -1.20685e+07)
(3.36239e+06 -3.16405e+06 9.48834e-12 391589 -1.05333e-11 931440)
(-5.75542e+07 -1.99722e+07 -5.14255e-13 -1.08162e+07 -4.4328e-13 -1.69641e+07)
(5.75736e+07 -1.99774e+07 -5.40964e-13 1.082e+07 4.06019e-13 1.69698e+07)
(-8.38913e+07 -1.39373e+07 -3.73328e-13 -6.67024e+06 -7.54843e-13 -2.24701e+07)
(8.39137e+07 -1.39449e+07 2.00359e-12 6.67364e+06 -2.11578e-12 2.24765e+07)
(-1.90836e+07 2.34989e+06 -3.18936e-13 -2.6179e+06 -1.56876e-12 -5.38458e+06)
(1.9892e+06 2.54185e+06 -1.54998e-12 230613 2.89997e-12 550779)
(5.43676e+06 -3.80136e+06 1.34941e-12 163796 4.47518e-11 1.38961e+06)
(-1.08045e+08 -7.10551e+06 6.54413e-12 -1.75923e+06 5.65288e-12 -2.72446e+07)
(1.08066e+08 -7.10731e+06 2.23776e-13 1.75955e+06 4.23516e-13 2.72501e+07)
(-1.97969e+07 -2.91661e+06 -2.15203e-12 150615 3.86e-11 -4.87463e+06)
(1.97297e+07 -2.67154e+06 0 290451 0 4.9674e+06)
(-3.08149e+07 -2.48382e+06 1.17616e-11 -476162 3.16811e-12 -7.76394e+06)
(2.50523e+06 -2.01574e+06 1.23274e-11 147985 -8.99372e-12 658317)
(-6.07447e+06 3.11116e+06 -3.05922e-12 -1.16423e+06 -1.60733e-12 -1.79607e+06)
(-2.02233e+07 -3.10662e+06 -2.2569e-12 138139 6.46265e-12 -4.98353e+06)
(9.83693e+06 4.32362e+06 3.59318e-13 1.72215e+06 1.43641e-13 2.86804e+06)
(-4.08494e+07 -2.46499e+06 9.55109e-13 -1.37466e+06 3.05854e-12 -1.04766e+07)
(-8.81975e+07 -1.44542e+07 -3.70796e-12 -5.9221e+06 -3.27045e-12 -2.3353e+07)
(8.82197e+07 -1.4461e+07 -2.38681e-12 5.92486e+06 2.55715e-12 2.33592e+07)
(-3.06482e+07 -2.0726e+06 -2.76853e-12 210256 -6.28483e-12 -7.55227e+06)
(-5.59253e+07 -2.05788e+06 -6.3664e-12 -241726 2.13738e-12 -1.39362e+07)
(-5.95426e+07 -1.66031e+06 1.80398e-12 -355673 -3.83058e-14 -1.4862e+07)
(-4.77252e+07 -439203 1.70127e-12 -6.42475e+06 2.10872e-12 -1.34357e+07)
(4.7736e+07 -440093 -1.15966e-12 6.43088e+06 2.81601e-12 1.34399e+07)
(-5.10435e+07 -1.53116e+06 -6.15218e-12 -28881.4 1.25504e-11 -1.26721e+07)
(-1.8216e+07 -3.01262e+06 4.27922e-12 18019 -6.64769e-12 -4.5153e+06)
(-8.3868e+07 -1.52212e+07 -2.90986e-12 -7.59413e+06 -3.23424e-12 -2.26936e+07)
(8.38899e+07 -1.52291e+07 1.94266e-13 7.59737e+06 -9.28277e-13 2.26999e+07)
(-2.56246e+07 3.05576e+06 -7.88324e-13 -3.44167e+06 2.37486e-12 -7.21192e+06)
(4.31872e+06 -2.65382e+06 -2.18937e-12 13515.6 -1.08979e-11 1.07492e+06)
(1.07114e+08 -1.36269e+07 1.67288e-12 3.51838e+06 -1.15339e-12 2.74502e+07)
(-1.07091e+08 -1.36232e+07 2.78796e-12 -3.51753e+06 2.71588e-12 -2.74443e+07)
(-6.31228e+07 -604186 -1.09915e-11 -23622.2 7.52301e-14 -1.56679e+07)
(-8.10718e+07 -1.58965e+07 1.03849e-12 -7.42768e+06 8.66558e-13 -2.19585e+07)
(8.1095e+07 -1.59045e+07 6.29546e-13 7.43062e+06 -6.90412e-13 2.1965e+07)
(-3.40863e+07 792074 5.858e-13 -2.52372e+06 2.67912e-13 -9.08369e+06)
(3.04071e+07 -2.55051e+06 4.86199e-12 809795 3.68459e-12 7.74554e+06)
(-3.61576e+07 3.4308e+06 1.11143e-12 -4.26244e+06 1.62881e-13 -1.0029e+07)
(8.93416e+07 -958389 3.54675e-12 -13210.7 -6.95201e-13 2.21642e+07)
(-8.9321e+07 -957138 6.85934e-12 13339.3 6.51906e-12 -2.2159e+07)
(-1.73292e+07 -1.36325e+07 0 -1.2049e+07 0 -7.28933e+06)
(1.73367e+07 -1.36393e+07 -7.03096e-13 1.20542e+07 2.17649e-13 7.29248e+06)
(-2.28968e+07 -20775.7 2.63266e-12 -1.98529e+06 1.15621e-12 -6.17376e+06)
(-6.22436e+07 -1.81756e+06 -1.58949e-12 -135099 -3.22009e-12 -1.54774e+07)
(8.91542e+07 -385627 3.12555e-12 107910 -5.89287e-12 2.21477e+07)
(-8.91335e+07 -384483 3.84094e-12 -107864 4.87708e-12 -2.21426e+07)
(24403.9 -180017 0 106006 0 32357.4)
(-24226.3 -179024 1.24433e-15 -105457 1.34692e-15 -32177)
(1.94056e+07 8.98144e+06 -6.67258e-13 1.60457e+06 5.13563e-14 5.21305e+06)
(-2.44178e+07 -756774 2.59855e-12 -2.18355e+06 -6.66918e-13 -6.60035e+06)
(-1.03677e+07 -5.35632e+06 -3.02429e-13 -1.73309e+06 1.92887e-14 -3.00246e+06)
(1.0374e+07 -5.35419e+06 1.77596e-13 1.73221e+06 7.9177e-14 3.0038e+06)
(-3.00276e+07 2.66382e+06 -1.59662e-12 -3.90341e+06 -1.96928e-12 -8.41897e+06)
(2.32501e+06 3.23953e+06 1.66933e-12 489569 -3.70965e-13 698355)
(6.37791e+06 -3.5263e+06 3.17887e-12 44878.5 2.95022e-12 1.59362e+06)
(-9.52569e+07 -3.01144e+06 2.47584e-12 -662274 1.73741e-12 -2.37995e+07)
(9.52773e+07 -3.01237e+06 3.40356e-12 662395 -5.17437e-12 2.38046e+07)
(-1.65633e+07 -1.48974e+06 1.07722e-11 -69335.8 -5.15189e-12 -4.12689e+06)
(-7.49212e+07 -2.74995e+07 9.53807e-13 -1.08264e+07 1.12674e-12 -2.12757e+07)
(7.49447e+07 -2.75079e+07 9.27708e-14 1.08294e+07 -7.67099e-14 2.12823e+07)
(-2.86922e+07 -1.46423e+06 -2.87377e-12 -46227 -1.31878e-11 -7.13058e+06)
(8.39467e+07 -4.16283e+06 -2.00794e-12 2.25446e+06 -1.6733e-12 2.13882e+07)
(-8.3926e+07 -4.16094e+06 4.45329e-12 -2.25373e+06 3.71211e-12 -2.13829e+07)
(6.9065e+07 -4.67589e+06 -6.70581e-13 6.70462e+06 -2.48779e-12 1.88e+07)
(-6.90472e+07 -4.66996e+06 -2.57687e-12 -6.70015e+06 -2.91625e-12 -1.87945e+07)
(1.79341e+06 -2.69455e+06 2.47184e-14 4.4466e+06 -1.31877e-13 1.54827e+06)
(-1.79338e+06 -2.69525e+06 1.68825e-13 -4.44885e+06 1.24284e-13 -1.54883e+06)
(4.5081e+06 -2.72008e+06 -8.08777e-12 -416030 -1.48867e-11 1.01533e+06)
(8.64452e+07 -3.28288e+06 -1.36032e-12 1.86987e+06 -5.07809e-12 2.19128e+07)
(-8.64244e+07 -3.28117e+06 -2.27532e-12 -1.86937e+06 -9.05776e-13 -2.19075e+07)
(-5.74373e+07 -1.60156e+06 -3.0357e-12 -79574 -2.41935e-12 -1.42711e+07)
(8.38364e+07 -2.37232e+06 3.78674e-12 614027 3.8106e-12 2.09539e+07)
(-8.38159e+07 -2.37132e+06 -1.61482e-12 -613945 3.26931e-12 -2.09488e+07)
(9.24336e+07 -216125 5.95348e-12 109664 -1.11056e-11 2.29619e+07)
(3.46459e+07 -2.01999e+06 2.74059e-13 284965 -4.36646e-12 8.66705e+06)
(-1.03931e+08 -1.60305e+07 4.66488e-12 -4.17051e+06 4.67318e-12 -2.68221e+07)
(1.03954e+08 -1.60351e+07 -4.6657e-12 4.17154e+06 4.67366e-12 2.68282e+07)
(3.68887e+07 2.91159e+06 3.01932e-12 4.98845e+06 -1.2638e-12 1.03906e+07)
(5.93076e+07 -1.95751e+06 -3.33882e-13 78551.4 2.02023e-12 1.47349e+07)
(5.87998e+07 -2.03696e+06 -1.09712e-11 153192 9.33521e-12 1.46274e+07)
(-4.67842e+07 -2.52395e+06 -1.01772e-12 -594725 1.61036e-12 -1.17557e+07)
(2.16482e+07 7.87342e+06 1.18569e-12 1.39114e+06 -4.43589e-13 5.71653e+06)
(274648 -3.73731e+06 1.02431e-11 494063 -1.1205e-11 190733)
(-3.20605e+07 4.90988e+06 9.49592e-13 -4.2571e+06 -6.05612e-13 -9.01115e+06)
(4.89808e+07 -842646 -7.28122e-13 -86306 8.72326e-12 1.21317e+07)
(-4.57949e+07 -2.03198e+06 7.05152e-13 -469707 -3.07101e-12 -1.14792e+07)
(-9.92965e+07 -7.08155e+06 -2.86394e-12 -3.67225e+06 -2.21847e-12 -2.55486e+07)
(9.93182e+07 -7.08453e+06 4.35388e-12 3.67344e+06 -4.65862e-12 2.55543e+07)
(-2.13035e+07 -2.86257e+06 -7.24268e-12 130203 3.48494e-13 -5.25352e+06)
(-1.58404e+07 7.36996e+06 -1.14205e-12 -2.3495e+06 2.81e-13 -4.51329e+06)
(-6.25984e+07 -371412 2.90959e-12 -298.249 1.04434e-12 -1.5532e+07)
(-6.33496e+07 -1.11018e+06 -7.3619e-12 -152250 -2.74904e-12 -1.57561e+07)
(7.62332e+07 -1.47376e+06 0 10004.1 0 1.89175e+07)
(-5.80309e+07 -605724 -6.19701e-12 -150086 -4.16555e-12 -1.44359e+07)
(5.04275e+07 -2.70018e+06 -6.11352e-12 2.0177e+06 -3.20432e-13 1.30127e+07)
(-5.04058e+07 -2.69825e+06 2.31226e-12 -2.01633e+06 -2.07477e-12 -1.3007e+07)
(1.99072e+07 3.68009e+06 7.61077e-13 -1.63486e+06 -3.41578e-13 4.53375e+06)
(3.40744e+06 5.83034e+06 -1.97493e-12 783792 9.37363e-13 1.03993e+06)
(5.35229e+07 455631 -9.18008e-12 416242 5.99224e-12 1.33834e+07)
(8.61769e+07 -1.72083e+06 2.85191e-12 599819 -3.76392e-13 2.15311e+07)
(-8.61563e+07 -1.71985e+06 -5.49804e-12 -599636 -4.51068e-12 -2.15259e+07)
(9.47594e+07 -1.34575e+07 -5.25982e-12 4.92367e+06 6.2012e-12 2.47334e+07)
(-9.47372e+07 -1.34521e+07 -2.55951e-13 -4.92177e+06 -1.42842e-12 -2.47274e+07)
(7.167e+06 -1.71107e+06 -1.00194e-12 220487 3.54838e-12 1.83298e+06)
(-1.36274e+07 7.96271e+06 -4.48399e-12 -1.5286e+06 -6.87858e-13 -3.76051e+06)
(7.37128e+07 -2.48362e+07 -1.83744e-13 1.14113e+07 1.59096e-13 2.1121e+07)
(-7.3689e+07 -2.48289e+07 1.17791e-13 -1.14085e+07 -1.90963e-13 -2.11144e+07)
(3.71748e+07 -1.14079e+06 2.1025e-11 636538 -1.08085e-12 9.38176e+06)
(-2.15556e+07 -1.78642e+06 7.91106e-12 -942378 3.07566e-12 -5.5822e+06)
(-4.03253e+07 -1.58736e+06 1.05694e-12 61548.1 3.28377e-12 -9.99025e+06)
(9.47399e+06 -1.82671e+06 -5.4871e-12 175759 1.4794e-12 2.3943e+06)
(5.55788e+06 -2.5173e+06 -2.04325e-12 -106279 -9.55143e-12 1.35265e+06)
(-5.83071e+07 -1.92867e+07 -5.08636e-14 -1.00968e+07 -1.39184e-13 -1.69724e+07)
(5.83267e+07 -1.92916e+07 -3.24615e-14 1.01002e+07 1.07723e-13 1.69781e+07)
(-5.03436e+07 -1.97336e+06 -6.63663e-12 -1.38909e+06 -6.60215e-12 -1.28359e+07)
(5.03673e+07 -1.97664e+06 1.0929e-12 1.38421e+06 -8.34579e-12 1.28406e+07)
(4.2452e+07 -2.54651e+06 -2.07428e-11 -266602 -3.58609e-12 1.04671e+07)
(-5.22809e+07 -2.09208e+06 2.13571e-12 -12643.9 4.52524e-12 -1.29751e+07)
(1.04699e+07 -3.06665e+06 2.81665e-11 -158785 -2.50279e-11 2.5584e+06)
(-1.02364e+07 -2.93346e+06 -4.24604e-12 33369.1 -6.88934e-13 -2.53157e+06)
(-22214.5 -72934.7 -1.91557e-14 -798201 -2.12327e-14 -203562)
(21713 -72395 -2.03605e-14 802144 2.07674e-14 204416)
(-2.16623e+07 -2.28675e+06 -5.6433e-12 -65690.7 -4.32869e-12 -5.39115e+06)
(-2.69914e+07 -1.96431e+06 1.34398e-11 -166680 9.90699e-12 -6.73848e+06)
(1.24379e+07 1.06246e+07 -2.80848e-12 432902 1.26463e-13 3.19351e+06)
(4.29408e+07 -4.23334e+06 -2.55064e-14 4.58443e+06 -2.26216e-13 1.1792e+07)
(2.39101e+06 -1.48083e+06 -8.14032e-12 -302155 -8.39064e-12 518288)
(-2.08109e+07 -2.89089e+06 3.63108e-12 -185987 -4.7132e-13 -5.20974e+06)
(-8.20957e+07 -4.97703e+06 -5.70381e-13 -3.85437e+06 -3.87686e-12 -2.1326e+07)
(8.21162e+07 -4.97956e+06 2.57676e-12 3.85573e+06 -1.37591e-12 2.13314e+07)
(-9.53131e+07 -1.06347e+06 0 16380.5 0 -2.3645e+07)
(9.53329e+07 -1.0636e+06 -1.43507e-12 -16420.3 3.08571e-12 2.36499e+07)
(-4.62455e+07 -2.09741e+06 -4.83299e-12 81413.8 6.30723e-12 -1.14542e+07)
(6.1628e+07 -2.03307e+06 2.73863e-12 93663 1.14443e-12 1.53144e+07)
(-8.92425e+07 -947210 2.87962e-12 81003.3 -3.17003e-13 -2.21228e+07)
(8.92626e+07 -947627 0 -80568.4 0 2.21279e+07)
(1.39378e+06 -1.59099e+06 -1.17429e-13 2.21215e+06 4.23557e-14 894705)
(7.98249e+06 1.00636e+07 -1.20968e-12 572291 -1.66515e-15 2.12262e+06)
(-8.23671e+07 -1.19605e+07 8.94391e-13 -6.55763e+06 2.88264e-13 -2.2064e+07)
(8.23877e+07 -1.19676e+07 0 6.56095e+06 0 2.207e+07)
(-1.25325e+07 -358274 -1.84066e-13 2.46543e+06 1.98369e-14 -2.49785e+06)
(1.41466e+07 -6.81666e+06 3.38919e-14 2.57181e+06 -2.4405e-14 4.14819e+06)
(-1.41364e+07 -6.8112e+06 -1.27609e-14 -2.57737e+06 1.53146e-13 -4.14702e+06)
(3.03033e+07 2.26974e+06 -4.62117e-12 4.48098e+06 2.12014e-12 8.63068e+06)
(3.10365e+07 -2.57045e+06 -9.24764e-12 290951 -6.42297e-13 7.77298e+06)
(-5.99537e+06 -3.68289e+06 -3.69879e-12 388480 -1.00751e-11 -1.39118e+06)
(-193262 -1.88614e+06 2.5001e-11 541344 7.91298e-12 86366.3)
(-874.216 19164.9 4.70549e-14 475278 -6.10582e-14 117709)
(892.954 18233.8 -4.69982e-14 -473274 -6.08754e-14 -117207)
(879142 -2.36059e+06 1.59686e-13 6.26634e+06 1.6096e-13 1.77294e+06)
(-879588 -2.36167e+06 3.85587e-13 -6.26971e+06 1.86331e-13 -1.77389e+06)
(4.17701e+07 -2.48747e+06 4.52336e-12 157890 -2.15168e-12 1.04032e+07)
(-4.67076e+07 -2.31357e+06 -1.76118e-12 -3.49708e+06 -6.25316e-12 -1.24568e+07)
(4.67296e+07 -2.31814e+06 5.12732e-13 3.49873e+06 8.33144e-14 1.24627e+07)
(1.3256e+06 134803 -5.0316e-12 133768 -4.19256e-12 362099)
(3.03165e+07 -2.81106e+06 1.98104e-12 128689 -4.62165e-12 7.55406e+06)
(1.8214e+06 -2.28207e+06 -5.14649e-14 2.70465e+06 -2.627e-14 1.123e+06)
(-1.82295e+06 -2.29097e+06 -8.06131e-14 -2.70996e+06 -6.92928e-14 -1.12471e+06)
(-3.78624e+07 2.17121e+06 9.73951e-13 -5.74332e+06 -1.92525e-12 -1.08195e+07)
(-2.54765e+07 5.44434e+06 1.0284e-12 90790.5 6.98042e-13 -6.29871e+06)
(-2.03402e+07 1.34872e+06 -6.76208e-13 2.35646e+06 -4.07817e-13 -4.46214e+06)
(3.14836e+07 -2.92707e+06 -8.73699e-13 -49188.1 1.34976e-12 7.79953e+06)
(-7.25431e+07 -430156 5.46092e-12 -107830 -6.8352e-13 -1.80262e+07)
(9.68012e+06 -2.38458e+06 -1.46664e-12 16507 -7.00488e-12 2.40593e+06)
(4.24358e+07 1.5427e+06 -3.70464e-12 4.98755e+06 3.56144e-12 1.17667e+07)
(-5.0923e+07 -3.31183e+06 5.36496e-13 -5.71599e+06 7.72169e-13 -1.40533e+07)
(-1.78788e+07 5.40745e+06 -1.21517e-13 -2.48775e+06 4.64941e-13 -5.05336e+06)
(5.0929e+07 -3.23492e+06 -2.49569e-12 5.62575e+06 1.84989e-12 1.40324e+07)
(-8.26007e+07 -850384 -6.7739e-12 440255 -1.65897e-13 -2.03857e+07)
(8.38645e+06 -2.02587e+06 -3.10275e-13 682738 1.71686e-13 2.25025e+06)
(3.5306e+07 -1.70715e+06 -9.18776e-12 223604 -2.9649e-12 8.81561e+06)
(-3.03587e+07 -2.11265e+07 -5.20585e-13 -1.7222e+07 -1.62353e-13 -1.18057e+07)
(3.03707e+07 -2.1135e+07 -8.6868e-13 1.72291e+07 4.98438e-13 1.18105e+07)
(-1.64294e+07 -868109 7.00249e-13 -1.34622e+06 2.60994e-12 -4.4105e+06)
(1.06196e+07 9.51447e+06 -1.96066e-12 843339 7.88814e-14 2.84419e+06)
(7.8115e+07 -7.16476e+06 -1.14489e-13 6.32651e+06 6.73087e-13 2.09516e+07)
(-7.80959e+07 -7.15924e+06 -1.49201e-12 -6.32334e+06 -7.50071e-13 -2.09461e+07)
(-6.06669e+07 -674158 2.36557e-11 474789 1.71296e-12 -1.49349e+07)
(6.09589e+07 -656079 -1.28911e-11 -495717 1.89867e-11 1.50021e+07)
(62822.7 -168967 0 124970 0 46595.2)
(-62455.9 -168036 2.06165e-15 -124330 1.57104e-14 -46345.3)
(-3.30067e+07 4.63694e+06 -2.00103e-12 -3.73983e+06 -1.64253e-12 -9.11756e+06)
(1.77886e+07 -1.69987e+07 -5.51678e-13 1.66687e+07 2.39068e-13 8.54955e+06)
(-1.77809e+07 -1.69911e+07 1.17499e-12 -1.66613e+07 7.51812e-13 -8.54581e+06)
(-2.59072e+07 -1.15444e+06 -2.90022e-12 376213 1.44672e-11 -6.33477e+06)
(1.21563e+07 -1.53725e+06 2.78429e-12 329534 6.32337e-12 3.09798e+06)
(-4.68558e+07 -2.47912e+06 3.56376e-12 -374218 -6.14461e-12 -1.17187e+07)
(4.68808e+07 -2.49583e+06 -5.51414e-13 331466 7.15642e-12 1.17143e+07)
(8.89809e+07 -3.57889e+06 4.0441e-13 1.72381e+06 -1.76902e-12 2.25057e+07)
(-8.89602e+07 -3.57731e+06 -2.49204e-12 -1.72326e+06 -1.00577e-12 -2.25004e+07)
(-33694.9 -6279.35 2.66637e-14 143747 -1.16881e-13 27306.1)
(33698.8 -6218.68 -1.97355e-14 -142416 -4.20039e-14 -26974.9)
(5.88777e+06 1.16567e+07 -7.26727e-13 -149074 -4.06724e-13 1.42389e+06)
(-1.03697e+08 -6.19231e+06 4.58436e-12 -2.88933e+06 1.19381e-12 -2.64462e+07)
(1.03718e+08 -6.19447e+06 -5.1291e-12 2.89018e+06 8.86499e-12 2.64518e+07)
(-5.41606e+06 -2.12894e+06 8.14422e-13 -62318.1 -3.79183e-12 -1.3593e+06)
(-4.0683e+07 -155328 1.44867e-12 -3.34599e+06 8.33368e-13 -1.09245e+07)
(-8.6451e+07 -572472 1.54479e-12 -190023 2.7559e-12 -2.14974e+07)
(8.64713e+07 -573414 -4.56829e-12 190537 6.8897e-12 2.15026e+07)
(-9.12718e+07 -2.08577e+07 6.60797e-14 -7.47716e+06 -1.0354e-13 -2.45016e+07)
(9.12967e+07 -2.08654e+07 1.8626e-12 7.47989e+06 -1.2433e-12 2.45085e+07)
(1.7472e+07 -3.20836e+06 -8.70005e-12 -221955 1.99495e-11 4.28008e+06)
(-3.76262e+07 -2.69597e+06 3.93096e-12 183843 2.48439e-12 -9.29021e+06)
(-6.14917e+06 9.90212e+06 1.10527e-12 -632753 -4.90652e-13 -1.68273e+06)
(-2.62921e+07 -1.70778e+07 -5.1469e-13 -1.3018e+07 -3.10895e-13 -9.75363e+06)
(2.63026e+07 -1.70853e+07 5.15014e-13 1.30247e+07 -3.10805e-13 9.75789e+06)
(-1.02582e+08 -5.65169e+06 -3.36544e-12 -1.76979e+06 -2.66489e-12 -2.58919e+07)
(1.02603e+08 -5.65331e+06 -2.13045e-12 1.77018e+06 5.80265e-13 2.58972e+07)
(-1.71859e+07 8.7311e+06 -1.74715e-12 -945671 -3.21427e-13 -4.4988e+06)
(-5.78172e+07 -2.22279e+06 0 -434137 0 -1.44533e+07)
(-2.12819e+07 1.57772e+06 -1.63217e-13 1.31141e+06 -1.07305e-13 -4.95507e+06)
(-5.87083e+07 -1.76993e+06 8.84113e-12 166152 -3.49427e-12 -1.45255e+07)
(-5.84026e+07 -1.83826e+06 -5.64331e-12 -389323 -8.07223e-12 -1.45875e+07)
(-3.48916e+07 1.3037e+06 -2.14366e-12 -4.99976e+06 -1.42504e-12 -9.89786e+06)
(-3.8255e+07 -614286 6.64009e-12 -71832.8 -5.09603e-12 -9.50967e+06)
(3.84382e+07 -852638 3.72974e-12 4.05549e+06 -2.62745e-12 1.05435e+07)
(2.93205e+07 -1.90484e+06 4.04808e-12 63557.9 -4.98482e-12 7.29079e+06)
(-3.8412e+07 -850417 2.8096e-12 -4.05528e+06 1.23906e-12 -1.0537e+07)
(1.00814e+08 -1.26757e+07 3.09812e-12 4.83459e+06 -1.92615e-12 2.62134e+07)
(-1.00791e+08 -1.26711e+07 1.40589e-12 -4.83292e+06 5.69208e-13 -2.62074e+07)
(-3.08841e+07 4.58567e+06 -3.58595e-13 -4.39365e+06 1.52886e-12 -8.75312e+06)
(1.20796e+07 2.43105e+06 -1.5468e-12 1.92344e+06 1.15343e-12 3.47443e+06)
(1.66591e+07 -1.97701e+06 -1.21343e-12 128006 2.06809e-11 4.16521e+06)
(-5.9879e+07 -2.31228e+06 5.55009e-12 43023.9 -3.12357e-12 -1.48465e+07)
(-4.82176e+07 -756751 -1.37131e-12 -6.02371e+06 -7.73256e-13 -1.34584e+07)
(-3.38264e+06 3.84135e+06 1.3465e-13 1.10907e+06 -8.78909e-14 -564121)
(-3.02988e+07 5.81539e+06 -1.65069e-12 -3.60023e+06 -3.80982e-13 -8.41103e+06)
(1.13374e+07 -2.46802e+06 2.38112e-11 41583.8 -2.11856e-11 2.82336e+06)
(4.08022e+07 -184779 6.3567e-13 3.50505e+06 -1.22521e-12 1.09935e+07)
(4.24935e+06 -3.61475e+06 -6.31065e-12 149704 -1.92297e-11 1.09149e+06)
(1.84092e+06 1.07188e+07 -6.55265e-13 107792 5.03852e-13 483515)
(-8.9074e+06 -3.21506e+06 1.13211e-12 78262.3 -1.15305e-11 -2.19069e+06)
(3.73623e+07 -1.79461e+06 5.94154e-13 393811 3.62978e-12 9.36807e+06)
(2.02603e+07 -1.6747e+06 -1.43002e-11 408675 -2.62854e-13 5.12838e+06)
(-8.51795e+07 -656726 -8.99734e-12 -25612.1 -1.19452e-11 -2.11411e+07)
(-4.01075e+07 -1.65005e+06 0 -346225 0 -1.00374e+07)
(6.85016e+07 -5.17788e+06 7.35623e-13 7.08781e+06 -1.60541e-12 1.87553e+07)
(-6.84839e+07 -5.17193e+06 -8.5593e-13 -7.08313e+06 -1.39e-12 -1.87497e+07)