/*--------------------------------*- C++ -*----------------------------------*\
| =========                 |                                                 |
| \\      /  F ield         | OpenFOAM: The Open Source CFD Toolbox           |
|  \\    /   O peration     | Version:  v3.0+                                 |
|   \\  /    A nd           | Web:      www.OpenFOAM.com                      |
|    \\/     M anipulation  |                                                 |
\*---------------------------------------------------------------------------*/
FoamFile
{
    version     2.0;
    format      ascii;
    class       volScalarField;
    location    "5000";
    object      sigmaxz;
}
// * * * * * * * * * * * * * * * * * * * * * * * * * * * * * * * * * * * * * //

dimensions      [1 -1 -2 0 0 0 0];

internalField   nonuniform List<scalar> 
27023
(
1.51765e-13
1.00549e-13
6.61282e-13
5.07359e-13
0
-5.03565e-13
4.18483e-12
-1.03365e-12
-9.7981e-14
-4.6136e-13
-6.26138e-13
-8.92025e-13
-6.35561e-14
3.38615e-14
7.64947e-13
9.37841e-13
-8.49265e-13
0
3.10607e-12
0
-6.75474e-14
4.65895e-16
-2.42819e-12
-8.60729e-13
2.20346e-12
3.54574e-12
1.64726e-12
7.74303e-12
-1.28698e-12
-4.76688e-12
9.15974e-12
3.81855e-13
4.71046e-12
-4.54638e-13
9.31993e-13
-1.00701e-11
1.61034e-12
3.22051e-12
1.80986e-13
-2.61985e-13
-1.94089e-13
-8.56473e-14
-1.01857e-11
-1.05711e-13
1.05692e-13
4.79301e-12
-3.45858e-12
-4.50624e-12
4.50623e-12
-3.04381e-12
3.40325e-12
-1.32879e-12
7.92885e-12
4.29907e-15
9.60271e-14
1.65669e-12
2.68252e-12
1.25306e-11
-2.25034e-12
-1.02914e-12
-6.90458e-13
-1.82789e-11
7.38606e-12
4.195e-12
-1.08886e-11
-2.15753e-12
1.12363e-12
-4.86329e-12
1.06436e-12
-1.06577e-11
0
-3.25407e-12
-3.11191e-13
-1.81526e-12
-1.94428e-12
-1.16824e-12
1.1637e-14
-6.22781e-14
7.23298e-12
-3.30572e-12
1.15712e-12
3.90586e-12
-3.07189e-12
-5.74876e-13
1.44567e-12
-4.621e-12
-2.48274e-12
2.71918e-12
5.12528e-12
-4.44485e-12
2.61904e-12
1.31291e-13
-2.63488e-13
-3.70724e-13
-8.09663e-14
-3.55886e-12
-3.74858e-12
3.3903e-12
-5.43546e-12
2.948e-12
-2.01461e-12
-8.47534e-12
-3.24454e-12
-3.424e-14
2.0008e-12
1.28222e-11
-1.23239e-12
8.84389e-13
-4.74725e-12
2.64148e-11
-1.19771e-11
-8.99633e-14
9.6332e-13
-4.53823e-12
6.93055e-13
2.04222e-12
4.93094e-12
-3.31708e-13
-1.46708e-12
2.30631e-12
-1.29418e-11
7.67521e-12
-7.24533e-13
1.9688e-12
-3.58551e-12
1.66901e-12
-5.29836e-14
3.07634e-13
3.17066e-13
2.22509e-12
-1.02384e-12
2.35077e-14
-1.15607e-14
1.35348e-13
-9.28762e-12
-7.2085e-12
-1.85638e-13
2.2545e-12
2.34168e-12
2.63874e-13
-6.67463e-13
-5.16973e-12
-2.2928e-12
-2.19933e-12
-1.4925e-12
1.72387e-12
-8.66803e-12
-3.08188e-12
1.11164e-12
2.02745e-13
-2.87016e-13
1.09741e-12
-6.29849e-13
2.75276e-12
2.6928e-12
1.94987e-11
-8.30646e-12
5.61639e-12
5.8197e-12
-2.55233e-12
4.14449e-12
-9.24623e-12
8.85352e-12
9.48834e-12
-5.14255e-13
-5.40964e-13
-3.73328e-13
2.00359e-12
-3.18936e-13
-1.54998e-12
1.34941e-12
6.54413e-12
2.23776e-13
-2.15203e-12
0
1.17616e-11
1.23274e-11
-3.05922e-12
-2.2569e-12
3.59318e-13
9.55109e-13
-3.70796e-12
-2.38681e-12
-2.76853e-12
-6.3664e-12
1.80398e-12
1.70127e-12
-1.15966e-12
-6.15218e-12
4.27922e-12
-2.90986e-12
1.94266e-13
-7.88324e-13
-2.18937e-12
1.67288e-12
2.78796e-12
-1.09915e-11
1.03849e-12
6.29546e-13
5.858e-13
4.86199e-12
1.11143e-12
3.54675e-12
6.85934e-12
0
-7.03096e-13
2.63266e-12
-1.58949e-12
3.12555e-12
3.84094e-12
0
1.24433e-15
-6.67258e-13
2.59855e-12
-3.02429e-13
1.77596e-13
-1.59662e-12
1.66933e-12
3.17887e-12
2.47584e-12
3.40356e-12
1.07722e-11
9.53807e-13
9.27708e-14
-2.87377e-12
-2.00794e-12
4.45329e-12
-6.70581e-13
-2.57687e-12
2.47184e-14
1.68825e-13
-8.08777e-12
-1.36032e-12
-2.27532e-12
-3.0357e-12
3.78674e-12
-1.61482e-12
5.95348e-12
2.74059e-13
4.66488e-12
-4.6657e-12
3.01932e-12
-3.33882e-13
-1.09712e-11
-1.01772e-12
1.18569e-12
1.02431e-11
9.49592e-13
-7.28122e-13
7.05152e-13
-2.86394e-12
4.35388e-12
-7.24268e-12
-1.14205e-12
2.90959e-12
-7.3619e-12
0
-6.19701e-12
-6.11352e-12
2.31226e-12
7.61077e-13
-1.97493e-12
-9.18008e-12
2.85191e-12
-5.49804e-12
-5.25982e-12
-2.55951e-13
-1.00194e-12
-4.48399e-12
-1.83744e-13
1.17791e-13
2.1025e-11
7.91106e-12
1.05694e-12
-5.4871e-12
-2.04325e-12
-5.08636e-14
-3.24615e-14
-6.63663e-12
1.0929e-12
-2.07428e-11
2.13571e-12
2.81665e-11
-4.24604e-12
-1.91557e-14
-2.03605e-14
-5.6433e-12
1.34398e-11
-2.80848e-12
-2.55064e-14
-8.14032e-12
3.63108e-12
-5.70381e-13
2.57676e-12
0
-1.43507e-12
-4.83299e-12
2.73863e-12
2.87962e-12
0
-1.17429e-13
-1.20968e-12
8.94391e-13
0
-1.84066e-13
3.38919e-14
-1.27609e-14
-4.62117e-12
-9.24764e-12
-3.69879e-12
2.5001e-11
4.70549e-14
-4.69982e-14
1.59686e-13
3.85587e-13
4.52336e-12
-1.76118e-12
5.12732e-13
-5.0316e-12
1.98104e-12
-5.14649e-14
-8.06131e-14
9.73951e-13
1.0284e-12
-6.76208e-13
-8.73699e-13
5.46092e-12
-1.46664e-12
-3.70464e-12
5.36496e-13
-1.21517e-13
-2.49569e-12
-6.7739e-12
-3.10275e-13
-9.18776e-12
-5.20585e-13
-8.6868e-13
7.00249e-13
-1.96066e-12
-1.14489e-13
-1.49201e-12
2.36557e-11
-1.28911e-11
0
2.06165e-15
-2.00103e-12
-5.51678e-13
1.17499e-12
-2.90022e-12
2.78429e-12
3.56376e-12
-5.51414e-13
4.0441e-13
-2.49204e-12
2.66637e-14
-1.97355e-14
-7.26727e-13
4.58436e-12
-5.1291e-12
8.14422e-13
1.44867e-12
1.54479e-12
-4.56829e-12
6.60797e-14
1.8626e-12
-8.70005e-12
3.93096e-12
1.10527e-12
-5.1469e-13
5.15014e-13
-3.36544e-12
-2.13045e-12
-1.74715e-12
0
-1.63217e-13
8.84113e-12
-5.64331e-12
-2.14366e-12
6.64009e-12
3.72974e-12
4.04808e-12
2.8096e-12
3.09812e-12
1.40589e-12
-3.58595e-13
-1.5468e-12
-1.21343e-12
5.55009e-12
-1.37131e-12
1.3465e-13
-1.65069e-12
2.38112e-11
6.3567e-13
-6.31065e-12
-6.55265e-13
1.13211e-12
5.94154e-13
-1.43002e-11
-8.99734e-12
0
7.35623e-13
-8.5593e-13
-6.79028e-13
-1.74156e-12
-2.22045e-11
3.55825e-13
-8.39348e-13
1.60427e-12
9.54079e-12
1.93966e-12
3.46799e-12
-2.7394e-12
7.96039e-15
-1.02543e-14
5.4356e-12
3.14102e-13
-4.62484e-13
-6.06085e-12
5.1143e-12
-7.10058e-12
0
-7.43191e-12
3.26321e-13
-3.65011e-12
1.02055e-11
-6.56414e-12
0
-3.36159e-13
8.66216e-12
2.55438e-13
9.97502e-12
0
2.12888e-12
-4.16336e-12
-1.52337e-12
3.00766e-12
-1.40434e-12
9.01272e-14
1.43308e-13
-3.03627e-13
-8.27141e-12
-2.1761e-11
-3.58561e-13
-5.03469e-12
2.02016e-15
-3.32092e-17
-6.1435e-13
5.21219e-12
7.37948e-13
-4.29931e-15
3.54967e-13
1.83568e-13
-1.82986e-13
-6.62914e-13
1.21535e-12
-2.66499e-12
-5.27818e-12
1.17595e-12
1.64427e-12
2.06388e-12
3.08309e-12
-1.37347e-12
-4.35032e-12
-4.14401e-12
-5.10922e-12
-8.49064e-12
-4.02965e-12
2.00438e-12
5.71669e-15
1.06704e-11
2.48172e-11
0
1.18301e-12
-1.23486e-12
1.28516e-12
0
-1.4964e-12
6.76972e-12
1.15321e-11
-4.36797e-13
6.59765e-13
-4.57223e-12
2.12731e-12
-2.39141e-12
4.22724e-12
2.81498e-12
-7.89888e-13
-8.67101e-12
-2.88317e-11
-5.39392e-12
2.44818e-12
3.82299e-12
4.19578e-13
-4.28784e-12
-3.68252e-13
-5.67659e-13
-1.97322e-12
-1.60343e-13
-1.41974e-12
9.1569e-12
1.99044e-12
6.1866e-15
-8.86665e-15
-6.55649e-12
6.07396e-13
2.47531e-12
1.81188e-12
1.23182e-13
1.43461e-12
2.03836e-12
-1.68812e-12
-2.60695e-12
-1.2956e-12
2.90488e-13
1.34653e-12
2.886e-12
-2.5715e-12
-4.75946e-12
4.85308e-12
-5.45966e-13
-5.83653e-12
2.91806e-12
3.00138e-12
-9.43754e-13
2.20733e-12
-9.49688e-12
-4.64823e-12
5.73974e-12
-2.70398e-12
2.44261e-13
8.87849e-12
-1.53162e-12
4.84024e-14
2.91654e-13
4.08442e-13
-4.08706e-13
-4.81443e-12
-4.45169e-12
-7.65371e-13
4.64348e-12
1.94665e-12
9.98062e-12
3.12742e-12
-2.38203e-13
1.08083e-11
3.68525e-13
5.17693e-13
2.30239e-13
-8.92727e-13
-1.00323e-11
-1.28102e-11
5.39773e-12
-7.92683e-13
-1.41057e-12
-1.37626e-12
6.69208e-12
1.11314e-11
3.73792e-12
-2.51509e-13
-1.05926e-11
1.4851e-12
6.18934e-12
2.17112e-12
-4.88656e-12
7.74677e-12
9.88745e-13
0
0
5.49139e-12
5.71007e-12
3.06437e-12
1.06071e-12
1.35418e-13
0
1.61387e-12
1.13352e-12
-3.24253e-13
-6.00817e-13
1.92096e-12
1.10351e-12
-1.15649e-12
-5.60662e-12
9.36841e-13
0
-5.65953e-12
1.90574e-12
7.95137e-14
-5.99749e-12
9.19722e-13
-2.49433e-13
0
-6.07158e-12
1.17145e-12
-2.65482e-12
-5.90655e-12
3.08936e-12
-2.94283e-12
-1.27745e-11
-2.58296e-12
1.62118e-12
-3.78948e-12
4.23736e-12
-2.25409e-12
3.23752e-12
1.09226e-12
1.56702e-14
-5.43177e-12
4.3529e-12
-9.43625e-13
3.99316e-12
-3.99338e-12
-6.09277e-12
3.43267e-13
-7.75938e-12
-5.10908e-13
-1.73605e-11
-2.81679e-11
-2.16415e-12
-2.64665e-12
-3.90922e-11
-1.00923e-14
-6.89812e-15
8.66509e-16
7.11934e-16
-5.35841e-12
-6.34705e-14
8.20536e-14
0
-9.39929e-13
-3.05691e-14
3.04298e-14
3.04027e-13
-2.23554e-13
7.5273e-13
-1.17523e-12
2.92119e-12
-1.03177e-12
1.38236e-12
1.93601e-12
-4.72523e-12
-2.23126e-12
-2.3358e-12
-3.07262e-12
3.11683e-12
2.0222e-12
4.77931e-12
-1.6442e-12
-9.16507e-13
2.45634e-12
0
3.65763e-12
-1.27896e-12
3.11705e-12
0
3.84773e-13
1.44498e-12
-3.47345e-12
-2.70857e-12
-1.88346e-15
2.693e-15
-4.94182e-12
-2.70005e-12
-8.55793e-12
-6.3385e-12
7.33712e-13
8.75204e-12
-2.00516e-12
-5.81466e-13
0
-4.73345e-12
1.68997e-13
-4.49532e-12
-8.94247e-12
-6.80705e-14
5.96339e-12
-1.03672e-11
-1.56152e-12
-1.1452e-11
2.47798e-12
0
5.15328e-12
2.97523e-14
9.40396e-15
-3.52526e-13
3.08905e-12
2.11159e-12
2.43223e-12
-2.15257e-12
-5.92486e-12
2.49396e-11
-4.08697e-12
-7.67511e-13
9.32897e-12
3.29837e-12
-6.38195e-12
-4.30921e-12
-7.95541e-14
-4.62478e-14
-1.54038e-12
-1.72719e-12
1.43843e-14
-1.11632e-11
1.65014e-12
8.2475e-13
3.14109e-12
2.095e-12
-1.1219e-15
6.95359e-15
-2.05365e-12
-1.62705e-15
-5.52006e-12
5.46947e-13
2.04847e-12
-9.73786e-13
-1.05029e-11
3.57846e-13
9.55758e-14
0
4.50262e-12
-1.57188e-13
-2.02437e-13
2.1237e-12
-2.42175e-13
-1.0101e-11
-7.633e-13
-6.08828e-12
-1.9796e-12
-4.00504e-12
0
2.82091e-12
-9.43841e-12
7.73061e-13
-2.62515e-12
9.71784e-13
5.964e-12
-6.73946e-13
-1.34561e-12
6.74356e-13
-6.61922e-13
-4.00171e-13
1.75108e-12
4.36637e-13
1.98464e-12
1.45676e-12
-3.7638e-12
1.59354e-12
3.61329e-12
1.17068e-12
5.13696e-13
-7.54031e-13
-3.737e-12
-6.68029e-13
-4.46306e-12
4.89056e-13
7.06373e-12
0
7.24308e-12
5.90674e-13
1.32663e-11
2.59644e-12
3.49389e-12
-1.01552e-12
-4.28954e-13
7.49653e-12
-1.65027e-12
-8.04965e-13
-4.05301e-12
-2.76571e-12
-9.24481e-13
2.38098e-12
-6.05106e-14
-4.617e-12
1.131e-12
8.00168e-14
-6.66388e-12
3.3016e-12
9.80646e-13
-5.45373e-12
-4.33827e-12
0
1.63535e-13
-7.62107e-13
-8.83785e-12
0
2.66373e-12
5.48935e-13
-3.76649e-12
-8.81917e-12
2.36716e-12
4.92594e-12
-2.0995e-13
0
0
7.68891e-12
-1.20602e-12
3.8224e-12
1.11575e-11
-9.5706e-12
9.58379e-15
0
8.9017e-12
8.58274e-12
2.60947e-13
-6.90286e-13
-1.20116e-12
-5.8073e-13
2.72592e-13
1.78821e-12
5.96838e-12
3.48329e-13
4.58179e-13
5.90745e-14
-1.42392e-13
-3.23985e-13
2.01322e-11
4.66265e-12
-1.03697e-11
-1.70023e-11
-2.08033e-13
-1.18926e-12
-1.47937e-11
-4.17016e-14
-1.24646e-12
0
-1.04221e-11
2.73917e-12
-2.27602e-12
-6.34387e-14
-7.22478e-13
-5.603e-12
-9.80703e-13
-5.17087e-12
2.90278e-12
-7.49746e-13
3.29286e-12
1.17853e-11
-1.82678e-13
-9.11287e-14
2.77609e-13
-2.3646e-12
1.68064e-12
1.35842e-12
7.89998e-12
0
-6.59977e-12
3.17441e-12
-1.25135e-12
1.14873e-11
-2.3157e-12
-4.48321e-12
5.05781e-13
7.20412e-13
4.28348e-12
-2.52091e-12
1.09477e-14
4.45214e-14
-2.82232e-12
3.28773e-12
-1.27872e-12
-2.33969e-12
9.79161e-13
-1.41094e-12
0
8.91582e-12
7.91429e-12
8.70184e-12
5.56581e-12
-4.61016e-13
3.33562e-14
-2.38049e-14
5.62291e-13
1.2514e-12
8.78044e-12
-9.10068e-13
1.67322e-12
-1.43096e-13
-5.24765e-12
8.32603e-13
7.41933e-12
-2.21851e-13
8.90073e-14
-2.90436e-12
-3.20586e-12
4.56803e-13
2.52497e-11
3.86103e-11
7.13605e-13
2.70803e-12
-1.52662e-13
-1.21121e-12
0
1.56444e-12
9.94241e-12
-6.0124e-13
2.92111e-12
1.86841e-13
-4.24297e-13
-1.18817e-12
8.05337e-13
8.24509e-13
4.80348e-12
2.91822e-12
6.12112e-12
-2.2757e-12
1.85543e-13
-5.64306e-14
3.93974e-12
-3.21524e-13
-4.64418e-13
-4.22195e-12
1.77924e-13
-4.48977e-12
-4.81329e-12
1.75453e-12
-5.55379e-13
1.601e-12
-1.56944e-12
-2.24005e-11
5.57377e-13
-1.92919e-12
0
-5.93483e-12
3.73014e-13
-3.16858e-12
7.38928e-12
-2.06185e-12
1.47425e-12
2.36514e-12
1.29811e-13
-4.7812e-12
1.06208e-11
-7.17807e-12
-8.61437e-12
0
-1.8983e-13
-1.16698e-12
-2.76269e-13
3.06056e-13
-2.10867e-12
7.29571e-12
5.39622e-13
-1.39058e-12
0
3.36387e-13
7.16589e-14
2.0279e-12
9.51383e-12
1.19553e-13
0
3.42518e-12
1.57263e-13
2.05239e-12
1.64238e-12
-1.76782e-12
3.50021e-12
1.91857e-12
-1.51761e-12
3.34628e-12
1.79295e-12
-2.3929e-13
-6.18799e-15
7.3603e-13
3.84954e-12
1.32027e-11
1.47526e-12
3.11837e-12
-3.85198e-12
-1.77417e-12
4.554e-12
1.20483e-11
9.35184e-14
-1.32838e-13
0
4.23958e-13
-6.35042e-13
5.47836e-13
3.77218e-12
-3.38891e-12
5.94601e-14
9.06433e-12
1.46943e-12
2.35806e-12
-1.4136e-12
1.48386e-12
3.78384e-12
-1.70175e-14
4.0393e-12
-5.48712e-13
-3.93702e-13
1.95344e-12
-2.22065e-12
5.94753e-12
-8.78632e-13
-1.65406e-13
7.03403e-12
-8.09774e-13
-7.71815e-13
0
2.93608e-12
-1.73314e-12
2.88628e-12
-2.83449e-12
9.01577e-13
1.37658e-13
1.20786e-11
-8.17984e-13
6.60021e-14
-8.53486e-15
-1.49707e-12
-1.11259e-14
-3.5717e-12
2.24979e-12
-1.07969e-12
-7.71745e-12
-1.04026e-12
1.97753e-12
5.28423e-13
-5.99384e-12
2.2282e-12
0
-3.02184e-13
-1.76176e-13
1.4775e-13
-1.00913e-11
-1.20223e-12
-3.35732e-12
-9.505e-13
2.12891e-12
-2.5644e-13
-1.9855e-12
-1.63828e-12
1.27217e-12
3.00863e-14
-1.23979e-14
1.90205e-13
-2.00093e-12
-5.4529e-13
1.35658e-12
-2.31114e-12
-5.43917e-13
3.9593e-12
1.83447e-12
-3.30616e-13
-4.81959e-13
5.45209e-12
-9.29877e-12
-5.15944e-14
-2.84256e-12
3.42216e-12
1.05448e-12
1.00672e-13
-2.71764e-12
-4.86287e-12
-1.10754e-13
-2.22142e-12
-4.42057e-12
1.50288e-12
1.31388e-12
-6.88705e-12
1.0793e-12
1.62683e-13
-7.41845e-14
-6.49932e-12
6.20945e-12
6.31093e-13
8.53084e-13
-1.11441e-11
9.99532e-13
4.5891e-12
-1.34158e-12
2.22439e-12
2.38874e-13
-3.22093e-12
-3.18508e-12
2.52163e-12
-7.12308e-13
-5.91802e-12
-1.32399e-12
-2.46129e-12
6.07647e-12
-8.58181e-12
1.12761e-12
2.60486e-12
-5.60854e-13
4.6033e-12
9.10685e-13
-3.99397e-12
-8.75574e-12
2.50461e-13
2.01067e-12
5.64507e-12
8.78336e-12
2.12667e-12
3.95446e-12
-8.43298e-13
-1.00933e-11
-1.51812e-12
3.63746e-13
1.54037e-12
4.32941e-14
-5.83589e-12
-5.84018e-12
9.75275e-13
-1.72971e-12
2.11102e-13
-4.04735e-13
8.24099e-14
2.58435e-13
1.07103e-13
-2.17654e-11
-2.3121e-11
3.20786e-12
-2.39368e-13
1.77658e-12
-1.11685e-13
-2.42801e-13
4.99708e-13
2.12918e-12
-4.03362e-12
4.22323e-12
-1.89484e-11
5.63928e-13
-2.38761e-15
1.13201e-15
3.89761e-13
3.92206e-12
6.0544e-12
2.30616e-11
2.78513e-12
-2.96658e-12
1.45367e-12
1.66122e-11
9.5091e-12
-3.83986e-12
-5.73595e-12
1.91101e-12
2.19746e-13
-1.74573e-12
-6.94908e-12
-1.72323e-12
1.0682e-12
8.51753e-13
0
2.65202e-12
-2.02951e-12
-7.867e-13
2.02342e-12
5.24437e-12
-6.78252e-13
8.31049e-13
9.57579e-13
-2.66831e-13
8.60808e-14
8.11189e-13
-1.08706e-12
-3.25383e-13
-3.25726e-13
-1.32867e-11
-1.16838e-12
7.03546e-12
-2.50162e-12
2.07517e-12
1.02523e-11
-1.3846e-12
-1.93981e-13
-1.75959e-11
-1.55026e-12
1.44779e-12
8.55915e-12
1.42227e-12
-2.98033e-13
5.44783e-13
5.27253e-12
-3.40596e-11
-1.26423e-12
1.20501e-12
3.1582e-12
1.01228e-11
7.78848e-12
-1.90199e-12
2.69765e-12
-1.69018e-13
9.57771e-14
-9.55835e-14
-8.90408e-12
-2.25115e-13
-6.43416e-13
2.76376e-13
-8.7635e-13
3.50467e-11
-1.74717e-12
2.59181e-12
-8.93252e-13
1.59494e-12
-2.45062e-12
6.03685e-14
-2.22367e-13
3.24789e-12
-2.54089e-12
5.46581e-12
-4.55295e-12
1.84137e-13
4.16959e-12
7.5334e-13
-8.46771e-12
1.51704e-12
-5.62973e-12
1.12574e-13
-1.05894e-12
1.87896e-12
8.11239e-13
-2.71642e-12
7.10575e-13
-5.12645e-12
3.76175e-13
4.23992e-13
-2.03367e-13
-3.96457e-12
-2.05674e-13
2.15128e-13
9.17092e-13
5.71052e-13
-6.74446e-13
3.38721e-12
-1.08486e-12
-1.51949e-13
1.35492e-12
-1.50489e-13
-3.50369e-12
-1.7325e-11
4.51816e-11
-3.14427e-11
-1.96351e-12
-3.81118e-12
-3.81561e-12
1.30983e-12
-2.19772e-12
1.64532e-11
-7.46833e-13
-3.2743e-12
-9.94742e-13
-2.13528e-12
1.08048e-11
-4.98639e-13
-3.65194e-12
5.24777e-12
-1.22291e-12
-8.54184e-13
9.5281e-13
8.33028e-12
2.41067e-12
-6.05445e-12
8.92986e-12
1.7094e-13
-6.0122e-12
1.88267e-12
1.96017e-12
5.21534e-12
-3.27332e-12
7.4857e-13
0
-1.58937e-12
2.60277e-13
2.02017e-12
4.009e-13
-5.38981e-12
9.83951e-12
-1.47561e-12
-2.19282e-12
3.11762e-13
2.64698e-12
-1.31333e-11
6.34638e-15
0
-2.01168e-11
0
2.84272e-12
1.40853e-14
-7.7711e-14
-3.18859e-12
2.03964e-13
3.31847e-12
6.11036e-12
-4.0239e-13
0
0
7.93396e-13
-5.19369e-13
1.68675e-12
1.95801e-12
-1.62408e-11
-2.9974e-12
4.2042e-12
-2.12183e-11
-7.03522e-12
-9.46666e-12
8.30971e-13
6.73745e-13
-2.09688e-12
1.23172e-12
0
9.03955e-13
-2.30711e-12
2.8507e-12
0
-7.16276e-15
9.42993e-15
-4.1317e-12
1.22449e-12
7.1738e-13
2.89366e-13
-3.51455e-12
2.73376e-12
1.93503e-12
3.46562e-12
-2.22479e-12
4.0454e-13
1.86376e-12
-1.22838e-11
4.33435e-14
-3.80202e-14
0
2.1583e-14
3.90222e-13
-4.80581e-12
0
-1.86193e-12
-3.00199e-12
-7.87103e-13
1.2917e-12
-7.41037e-13
6.60014e-13
-9.98631e-12
-1.61305e-12
1.53934e-12
1.49201e-12
1.8366e-13
1.6762e-12
1.22354e-12
0
-2.49819e-12
8.12711e-12
2.00866e-12
-8.69092e-13
-2.77261e-12
9.38817e-13
-1.50041e-12
4.14197e-12
7.31482e-12
4.84072e-13
-1.26488e-12
-1.3037e-12
-3.07495e-12
2.55044e-12
2.02882e-12
-2.62227e-12
-2.59679e-12
0
1.36211e-12
5.43936e-12
4.06829e-12
5.64717e-12
-1.74646e-12
-7.37019e-14
-3.5517e-12
5.59333e-13
2.98017e-12
6.15436e-12
9.19025e-13
-4.64449e-12
-1.47265e-15
-1.13422e-15
-3.15282e-13
-1.31175e-12
-9.65302e-12
3.13835e-12
1.00985e-12
-1.35882e-14
4.98087e-12
-4.35762e-14
3.21919e-13
-4.76406e-12
-1.03407e-11
-2.37534e-13
1.61756e-13
4.95556e-12
-1.37446e-11
-3.99328e-12
1.2308e-12
5.68131e-13
-5.04561e-13
5.01692e-12
-1.44309e-13
1.26317e-14
2.18556e-14
4.69266e-12
1.04245e-12
8.03131e-12
-2.02425e-12
-1.51689e-12
4.87928e-13
-1.72351e-13
-1.10499e-13
9.21964e-12
5.07891e-12
-4.72035e-12
8.0926e-13
-1.08031e-12
6.28762e-13
9.00429e-12
2.76863e-12
3.69204e-13
1.44641e-12
3.15725e-13
-7.29004e-13
-1.43216e-12
-3.53231e-12
2.34441e-12
-1.47899e-12
-1.01088e-12
-6.58295e-12
1.60795e-12
1.1732e-12
1.49138e-11
7.98035e-13
2.35758e-13
3.02321e-12
-4.46146e-13
1.59561e-12
0
-2.74479e-12
1.45918e-12
-1.45778e-12
-5.9693e-13
2.29351e-12
1.84811e-12
-4.28579e-13
-2.01763e-13
3.7079e-12
-2.15253e-13
2.03892e-13
-1.43781e-12
-8.8413e-12
1.6558e-12
-2.6072e-12
-4.4882e-12
5.67655e-13
-3.43821e-13
-8.18492e-12
4.83285e-12
0
-3.30247e-13
-3.77381e-12
-1.82726e-13
1.17733e-12
-1.89132e-12
-1.20388e-12
-5.1367e-12
6.7651e-12
-2.61674e-14
0
2.82386e-13
-1.00116e-13
8.16232e-13
-4.60327e-12
-9.79028e-12
4.12511e-12
6.41281e-13
-3.3185e-13
1.57484e-13
-4.69105e-12
1.72534e-12
-3.98318e-13
1.64363e-12
2.17345e-12
-9.62299e-14
3.22754e-12
6.11981e-14
2.98591e-13
2.91212e-12
3.39538e-16
-1.33834e-15
4.25874e-12
-2.34787e-12
2.60352e-12
0
-9.56108e-14
-1.16115e-11
-9.43917e-13
-2.01642e-13
6.79793e-13
1.07444e-12
1.71918e-12
3.33283e-12
-2.85812e-13
-2.86307e-13
0
-1.94482e-13
-3.67617e-13
1.24594e-12
3.45183e-12
6.18319e-12
1.15637e-13
-2.89887e-13
-1.50004e-11
1.02035e-11
-2.97083e-12
1.56182e-12
3.79834e-12
3.79811e-12
1.06866e-11
4.94317e-12
5.7163e-12
-2.14654e-12
-2.78993e-13
-1.03492e-11
3.63524e-12
-7.47664e-12
-4.61503e-12
-1.20129e-12
2.58723e-12
-4.12448e-13
9.87114e-13
0
-2.80788e-12
-2.34204e-12
1.38025e-12
4.17543e-13
-1.71497e-12
2.25648e-12
-6.205e-12
4.14281e-12
-5.40316e-12
2.42625e-12
-2.82772e-12
5.49589e-13
-2.3108e-13
-9.32145e-14
-1.02163e-13
2.31965e-12
2.14142e-12
2.83819e-12
-1.27993e-12
-9.15504e-13
-3.33731e-12
-8.32014e-13
-3.53853e-12
1.62832e-12
1.68399e-12
2.23789e-14
1.42081e-12
1.48619e-13
2.8094e-12
-3.70452e-12
-4.2142e-13
8.30091e-13
-2.75377e-12
-1.44419e-12
8.53334e-12
-8.85314e-12
0
-1.8171e-12
-1.81701e-12
-3.53289e-12
-7.65607e-12
6.86826e-12
-6.03437e-13
2.02873e-12
4.24981e-12
-8.07733e-12
-5.79939e-13
5.16945e-13
-4.93942e-12
-1.38736e-11
7.64747e-12
3.8112e-13
-1.62795e-14
2.13074e-12
2.37669e-13
-9.29768e-13
0
9.10671e-12
-2.69161e-12
-5.09033e-12
-2.73851e-13
5.51974e-13
1.87129e-12
1.48676e-12
6.26589e-13
-1.22522e-12
2.69705e-12
-5.49699e-12
-3.09925e-14
-1.96931e-12
-6.38089e-13
1.81336e-12
1.91197e-11
4.24686e-12
2.57935e-12
-5.3673e-12
5.3671e-12
2.38959e-13
-2.74328e-13
-2.87081e-12
-2.49521e-12
-1.33524e-12
5.68852e-12
-9.03773e-13
-1.8088e-13
2.05899e-12
-2.09417e-13
-3.80946e-13
-2.2271e-11
1.41974e-11
4.96372e-12
2.18753e-11
1.21929e-11
-1.07868e-11
7.67611e-12
9.41726e-13
-8.77514e-12
-1.68663e-13
1.68159e-13
3.4393e-13
0
-3.13534e-12
-2.04311e-12
1.93561e-12
-1.56693e-11
-1.055e-12
3.86173e-12
5.19309e-13
-7.56595e-13
-7.5388e-13
3.78313e-12
-1.21457e-12
-1.02077e-13
1.06713e-13
-2.26367e-12
-1.85758e-12
1.03287e-12
7.93569e-13
-8.54079e-13
-2.13384e-13
1.22703e-11
1.18218e-12
-3.59978e-12
-2.16592e-12
9.55969e-14
3.10979e-13
9.68707e-13
-5.23646e-13
-3.17781e-12
0
-4.39855e-12
-1.9168e-11
1.14561e-12
1.04541e-12
5.2673e-12
8.1001e-13
3.22462e-13
-7.93747e-12
-2.92e-13
2.50736e-12
-8.23863e-13
-1.31962e-12
-1.08393e-13
3.78773e-12
-1.0775e-13
3.41495e-12
6.07564e-13
1.12515e-12
1.3109e-12
8.13045e-13
-2.52873e-12
1.18941e-12
0
2.56309e-12
-1.64786e-12
-4.68008e-13
3.64342e-12
-1.27663e-12
-7.41978e-12
-1.47247e-12
2.34145e-12
-4.12371e-14
5.80296e-14
-1.51873e-13
3.31432e-12
3.47407e-12
-1.05023e-12
-1.32929e-12
5.36839e-12
-1.73941e-12
-1.72401e-13
-9.99389e-13
-1.2415e-11
-3.05192e-12
-1.52484e-12
-7.55792e-12
1.09137e-12
-3.78826e-13
1.94934e-12
-7.02042e-13
2.16215e-13
-1.10979e-13
2.36303e-12
-4.71099e-13
-1.27232e-11
-8.51175e-13
-6.81012e-13
5.31085e-12
-1.003e-11
1.00409e-11
-2.45049e-13
3.09598e-13
-1.74338e-12
-6.02321e-13
2.63046e-12
-2.16996e-12
-1.07e-11
1.41347e-12
3.09947e-13
2.96461e-12
1.13754e-11
-1.1326e-12
4.22001e-13
-1.53775e-13
1.1358e-12
-5.55812e-12
2.3304e-15
-6.46549e-13
-2.45625e-12
3.34777e-12
8.38473e-12
-6.1619e-15
2.78598e-13
2.32537e-12
3.80166e-12
2.00026e-12
-2.23923e-12
1.39168e-12
0
3.95944e-11
2.03742e-12
2.70556e-12
-2.7063e-12
-2.57555e-12
0
-1.09723e-11
-2.12236e-12
-9.34749e-12
-2.58986e-12
-3.8512e-12
-8.87163e-12
-4.59459e-12
-1.91026e-12
2.86263e-12
-1.23233e-12
-1.56017e-12
5.26864e-13
-2.55177e-13
3.52886e-12
4.89938e-12
2.82641e-12
6.48608e-12
-8.64515e-12
-3.23882e-13
-4.812e-13
6.41937e-13
0
-6.02539e-13
-9.23017e-12
-4.19538e-13
7.33027e-12
0
6.01551e-12
-4.33932e-12
-4.37668e-12
-2.03719e-12
3.55362e-13
5.73228e-12
5.32111e-12
5.0357e-13
-1.86614e-12
6.59364e-14
-1.95124e-11
1.06702e-11
0
-4.30166e-12
-2.09931e-12
-1.03602e-12
1.17022e-11
-3.08847e-12
9.79135e-13
-6.31037e-12
-1.42442e-15
1.88771e-15
2.74827e-12
1.50713e-11
2.86613e-12
-4.05822e-12
-5.79321e-12
-4.35112e-13
-1.52957e-12
-1.06696e-12
-1.90091e-12
2.20477e-12
5.00434e-13
-3.09763e-13
2.55027e-12
0
-2.10382e-12
1.01873e-12
-1.53598e-12
-2.39739e-12
4.72734e-13
-4.59505e-12
1.38883e-11
1.9891e-12
7.71686e-12
3.3803e-12
1.07664e-12
-5.02028e-13
4.054e-12
1.49648e-12
-4.42393e-13
3.23902e-13
0
6.75752e-13
5.95101e-12
2.5789e-11
-2.25478e-12
-3.51125e-12
-5.51641e-13
1.52936e-12
-5.99946e-12
0
0
5.67961e-13
3.13317e-12
1.93257e-12
4.14073e-12
3.82717e-12
-6.66725e-12
1.43477e-12
2.98993e-12
-8.47352e-13
9.8779e-13
-3.1441e-12
4.1593e-12
-4.15988e-12
-7.67368e-13
-8.00287e-12
1.63133e-12
1.49206e-11
-3.02194e-14
-6.93814e-13
4.85112e-13
-6.89432e-12
-2.1825e-11
-1.34002e-13
1.18576e-12
2.97494e-12
-6.96537e-12
3.27113e-12
-2.9238e-12
-1.51436e-11
-1.18312e-12
0
2.29825e-12
-1.00414e-11
-1.85393e-12
8.21067e-12
-7.30249e-12
-5.03874e-13
6.23284e-13
6.07368e-12
7.06255e-12
-4.23108e-13
0
6.89464e-12
-2.75343e-12
3.36478e-12
-1.31895e-13
1.54102e-12
-1.6006e-12
2.0812e-12
3.42967e-12
-5.5728e-13
0
6.72637e-13
-2.20027e-12
4.4091e-12
-6.7331e-13
-1.93471e-13
-1.34227e-14
-1.31283e-13
3.05316e-13
-3.9046e-13
3.86027e-12
-1.03612e-12
-7.59119e-12
1.44895e-13
-1.58411e-11
-4.87117e-12
2.0664e-12
2.23952e-13
2.14089e-15
-1.62092e-12
-4.66641e-12
-6.13391e-12
-1.0928e-13
1.42292e-13
1.04064e-12
-1.86404e-12
4.22748e-13
1.33916e-12
2.40708e-13
-4.45285e-13
-1.024e-12
-4.54579e-12
-1.00777e-13
-8.56628e-14
-3.53067e-12
8.47255e-12
-1.97948e-12
1.0577e-11
-8.31018e-13
-2.80923e-12
-4.34461e-12
0
3.15785e-12
-2.18395e-12
-3.21878e-11
9.038e-13
-2.44994e-12
1.43981e-12
-1.42484e-12
4.40196e-12
7.15035e-12
-5.69945e-12
7.87261e-13
-1.80381e-12
-9.08757e-12
1.64217e-11
1.24255e-12
-3.40961e-12
1.09684e-11
-3.29805e-13
-1.27665e-12
5.14044e-12
1.68002e-14
-7.65413e-14
-6.10641e-12
5.6111e-14
-1.6729e-13
3.25279e-12
0
0
-1.84459e-12
-3.10884e-12
8.48215e-13
0
8.25807e-12
-1.55588e-12
-1.0537e-12
2.23038e-12
1.92191e-11
-7.33691e-12
1.19419e-13
-1.08626e-12
8.80164e-13
-1.92002e-11
4.787e-12
2.12625e-12
-2.62556e-13
1.73382e-12
-5.47118e-13
1.73304e-13
3.26991e-12
7.21384e-12
1.58327e-11
0
-1.31829e-12
-4.70537e-12
-1.22406e-12
-3.6027e-12
1.40684e-12
8.41028e-13
-2.6689e-12
-1.53004e-13
-1.94311e-12
1.66813e-13
3.06731e-12
-1.54874e-12
-5.3975e-12
3.47802e-13
8.78326e-12
-4.98128e-12
1.37124e-13
2.66797e-12
2.07952e-13
5.23631e-12
4.77855e-12
-9.01915e-13
0
1.0968e-15
2.73448e-12
-1.45573e-12
8.42053e-12
9.03849e-13
2.90135e-12
2.14716e-12
5.04108e-14
-4.84402e-13
-5.63019e-13
-1.97329e-12
6.74031e-12
1.33385e-12
2.56379e-12
-3.24298e-12
-7.06414e-13
1.03462e-13
4.0223e-12
-3.04366e-12
-5.78933e-14
2.70596e-15
-3.88427e-15
-4.79073e-12
-7.50457e-12
8.37047e-13
-1.1021e-12
1.28735e-12
3.29792e-13
1.16754e-13
0
2.96509e-12
-2.41331e-12
-2.4664e-12
5.1413e-13
-8.79502e-12
1.51328e-12
-1.64865e-12
-3.05444e-13
7.87406e-13
-2.45447e-12
7.48758e-13
-4.94875e-13
-3.73637e-13
-2.00064e-13
-9.87849e-13
2.0886e-12
1.07221e-13
2.81579e-12
-1.08491e-12
-1.15799e-12
-3.19309e-12
-7.60807e-13
3.94611e-13
-1.5998e-13
2.1903e-13
-4.37712e-13
0
2.68478e-12
1.43257e-13
-3.49907e-13
-4.74283e-12
3.10735e-12
0
0
-9.4105e-13
-4.18988e-12
1.93661e-11
2.88818e-12
-7.95747e-13
7.95731e-13
2.11465e-12
-1.25406e-12
-4.60988e-13
3.79795e-12
5.22227e-12
5.08293e-12
3.34173e-12
-1.00093e-12
4.36345e-12
5.79102e-13
1.17806e-15
2.03366e-15
-3.84145e-12
-1.35904e-13
-2.72835e-12
-2.75823e-12
-2.24619e-12
6.7946e-12
-2.5323e-12
5.40347e-12
6.75916e-13
-3.33297e-12
-5.00305e-13
-2.7226e-13
-1.34803e-11
7.79684e-13
4.39319e-11
-1.07217e-11
-7.07858e-13
1.65974e-12
6.13162e-12
1.43112e-12
-7.05521e-12
-8.74098e-13
2.19611e-13
-3.45942e-12
-6.62458e-13
-1.26962e-12
-8.32022e-12
7.63959e-13
3.60759e-12
-4.62491e-12
1.73655e-12
-7.95519e-12
-1.4718e-13
2.37351e-12
3.65504e-12
2.12735e-12
2.94372e-11
2.92317e-12
3.42753e-12
3.83426e-14
-4.61247e-14
1.9033e-13
3.13386e-14
-2.74363e-13
2.84612e-12
8.18403e-13
2.49112e-12
4.00426e-11
3.35684e-13
-1.88181e-12
4.07232e-12
9.29747e-12
7.76154e-13
-1.89061e-12
-6.12958e-12
9.02351e-13
2.79835e-12
-1.05489e-12
1.32158e-11
-1.97628e-12
8.41833e-12
2.65938e-12
-3.89002e-12
8.37655e-13
5.83665e-12
-1.2085e-12
-8.58892e-12
-2.01351e-14
3.55101e-14
-1.46899e-12
1.57208e-12
-7.64801e-13
-3.28324e-12
2.46796e-12
3.63545e-13
-2.7174e-12
-1.86885e-11
0
1.68615e-12
1.28682e-12
1.14677e-13
9.67737e-12
0
-1.71135e-12
3.23278e-14
-1.52644e-12
-2.11122e-12
3.62932e-12
3.40348e-12
7.38883e-12
-1.97139e-12
-5.92754e-12
-3.92411e-12
1.07714e-12
2.26828e-12
-1.99679e-12
1.62598e-13
1.01715e-13
6.9107e-13
-5.86044e-12
1.16102e-13
1.41915e-12
-1.36461e-12
4.10255e-13
-1.14832e-12
2.10921e-12
4.50864e-12
1.13692e-11
-4.03938e-12
1.17679e-12
-1.7019e-12
-2.75494e-12
-8.65559e-12
-2.63813e-12
-2.03833e-13
4.2536e-12
-5.43201e-12
0
6.25551e-12
-1.75621e-13
-1.93691e-12
-6.15598e-12
-8.10838e-14
6.97155e-12
2.40245e-12
1.72402e-11
1.38082e-11
3.69871e-12
-7.61216e-12
-3.58196e-13
7.43428e-13
1.00414e-14
4.93366e-12
3.19441e-12
6.39512e-13
-1.23513e-12
1.31584e-13
3.99748e-12
-1.07392e-12
4.4122e-14
-5.15273e-14
-2.03239e-12
4.84227e-12
-1.63235e-13
8.67229e-14
-3.08185e-12
8.05543e-13
1.5754e-12
1.30382e-12
-3.5235e-12
-2.19641e-13
2.59185e-12
-1.63145e-12
1.67043e-12
4.88697e-12
9.62975e-13
-1.58755e-12
2.18702e-12
-3.01611e-12
-6.36205e-12
-7.03254e-12
4.48209e-12
-2.62424e-13
2.66809e-12
-3.21635e-12
0
7.34984e-13
-3.63345e-12
1.73839e-12
-1.56724e-11
-4.03827e-12
0
2.92017e-12
-3.30124e-12
3.81229e-12
-4.17653e-12
1.36177e-12
3.38242e-11
3.50815e-11
6.79749e-12
6.987e-13
2.26692e-14
-1.64294e-14
-6.91287e-12
-8.30618e-13
1.51159e-12
-1.46739e-12
-8.96005e-13
7.26787e-13
1.68471e-12
2.40273e-12
8.50001e-13
0
2.83151e-15
5.82445e-12
3.45359e-12
3.84734e-13
6.76473e-12
1.85201e-12
2.80576e-13
-1.75218e-13
-1.09235e-11
-2.09484e-11
4.66927e-12
-2.88462e-12
2.24241e-12
-3.40326e-12
-7.33997e-13
-1.45727e-12
-9.24545e-13
-7.62567e-14
-1.21783e-12
-1.58867e-12
2.24261e-12
8.59555e-13
1.59388e-12
1.19461e-11
2.44548e-12
-2.53634e-13
1.56573e-13
1.89392e-12
-4.85819e-13
1.30983e-12
-1.25384e-14
-1.08845e-14
5.25776e-12
-4.18377e-12
-1.0974e-12
-2.96146e-12
1.06452e-13
-2.19088e-13
2.76446e-12
-5.46809e-14
1.67636e-13
-4.60508e-12
-2.57107e-12
8.578e-13
6.59731e-12
0
1.96514e-12
-6.82532e-12
3.10049e-13
2.23349e-12
7.33675e-12
2.15135e-13
2.22083e-13
-4.32329e-12
2.48888e-11
-5.56911e-12
-5.11339e-12
4.73743e-12
2.51357e-12
1.7662e-12
-1.54607e-12
-3.3585e-12
1.62538e-12
4.88148e-15
8.2428e-15
-5.34515e-13
-1.9386e-13
1.14792e-12
6.71433e-12
-1.76993e-13
5.10628e-13
-4.14869e-12
-2.09655e-12
4.23222e-12
4.37731e-12
-2.82211e-12
4.2122e-12
-3.27333e-12
2.00044e-12
-2.11026e-12
-2.5425e-12
-8.40562e-12
-6.65302e-12
-4.13166e-12
3.32736e-12
-1.03943e-11
-1.84739e-12
2.53074e-12
5.85164e-13
-1.99204e-11
3.45662e-12
-2.02518e-13
4.9368e-13
-2.98079e-13
2.45976e-12
-6.41288e-13
-5.46513e-12
-3.81932e-12
-1.99461e-12
6.00088e-12
1.17836e-11
5.53618e-12
-4.47892e-12
2.78161e-12
-2.09187e-12
0
1.09246e-11
1.97167e-11
0
-5.3859e-12
1.48608e-12
2.17781e-12
1.99653e-12
3.683e-13
1.17312e-11
-1.35774e-12
1.8808e-12
5.06171e-15
1.94529e-13
-7.92248e-13
-2.02854e-14
4.4487e-13
-2.53828e-13
1.30226e-14
-1.88476e-12
4.27235e-13
-5.81794e-12
2.11638e-12
-2.75707e-13
4.63835e-12
1.46001e-12
1.98791e-12
-5.43121e-12
-2.36227e-12
-1.26546e-12
1.08362e-11
-1.43133e-12
-2.44147e-13
3.99401e-12
-1.15305e-13
9.20204e-14
-9.19293e-12
2.45214e-11
0
-2.96523e-12
5.8267e-14
-5.82289e-14
-1.80551e-14
1.77698e-14
-1.00392e-13
9.90059e-12
-1.39812e-11
0
0
-3.94363e-13
-1.80662e-12
-2.11064e-11
1.81522e-13
-1.29382e-13