/*--------------------------------*- C++ -*----------------------------------*\
| =========                 |                                                 |
| \\      /  F ield         | OpenFOAM: The Open Source CFD Toolbox           |
|  \\    /   O peration     | Version:  v3.0+                                 |
|   \\  /    A nd           | Web:      www.OpenFOAM.com                      |
|    \\/     M anipulation  |                                                 |
\*---------------------------------------------------------------------------*/
FoamFile
{
    version     2.0;
    format      ascii;
    class       volScalarField;
    location    "5000";
    object      sigmazz;
}
// * * * * * * * * * * * * * * * * * * * * * * * * * * * * * * * * * * * * * //

dimensions      [1 -1 -2 0 0 0 0];

internalField   nonuniform List<scalar> 
27023
(
-8.13949e+06
8.14294e+06
5.79491e+06
-5.79283e+06
-7.96681e+06
7.97015e+06
2.58141e+07
-2.5808e+07
3.12087e+06
-3.12018e+06
1.97612e+07
-1.97551e+07
735949
-740172
-7.28037e+06
610423
503340
-1.55298e+07
1.55352e+07
1.16611e+07
-1.1655e+07
2.54848e+07
-2.54787e+07
1.41288e+07
-1.41237e+07
2.15018e+06
-9.90416e+06
917021
-9.90124e+06
8.4137e+06
4.30966e+06
1.16679e+07
-1.16626e+07
-1.13594e+07
-7.22551e+06
8.84109e+06
1.10344e+07
-1.10283e+07
2.94238e+06
-2.94213e+06
-5.95855e+06
5.96081e+06
-5.77322e+06
-7.6893e+06
7.69265e+06
1.53126e+07
-1.53071e+07
1.30822e+07
-1.3076e+07
7.7652e+06
1.25934e+07
-1.25872e+07
-1.10748e+07
140584
-139813
1.25042e+07
5.26868e+06
9.23044e+06
-4.21225e+06
5.94496e+06
-5.94284e+06
7.68831e+06
1.24835e+06
1.33351e+06
-5.58254e+06
3.87363e+06
1.02539e+07
2.63439e+06
-9.83947e+06
-5.39349e+06
1.06473e+07
-1.06411e+07
1.8559e+07
-1.85535e+07
2.2637e+07
-2.2632e+07
276638
-275876
-2.70237e+07
2.70292e+07
-7.4962e+06
1.90575e+07
-1.90514e+07
1.82095e+07
-1.82039e+07
-2.39926e+07
2.39975e+07
-1.02096e+07
997414
-4.44627e+06
4.321e+06
8.65623e+06
-8.65253e+06
5.49628e+06
-2.13446e+06
-1.4058e+07
1.40615e+07
-7.51214e+06
-4.49251e+06
205355
-7.27334e+06
-4.5814e+06
4.73215e+06
2.15355e+07
-2.15298e+07
767476
2.34886e+07
-2.34829e+07
1.23991e+07
8.73385e+06
5.24765e+06
2.37862e+07
-2.37805e+07
1.38718e+07
-1.38673e+07
2.28407e+07
-2.28357e+07
5.18508e+06
-9.60305e+06
-7.27163e+06
5.53464e+06
580758
-2.14974e+07
2.15041e+07
2.69679e+07
-2.69619e+07
8.37287e+06
-8.36914e+06
2.19964e+07
-2.19906e+07
-4.12537e+06
-776306
760586
-4.10342e+06
4.75916e+06
-2.41029e+07
2.41078e+07
2.64134e+06
1.60823e+07
-1.60767e+07
-2.45986e+07
2.4605e+07
-1.80406e+06
2.50921e+07
-2.5086e+07
-4.04716e+06
-4.20036e+06
1.27604e+07
1.04394e+07
1.34974e+07
-1.34922e+07
1.48632e+07
-1.48582e+07
-6.85277e+06
-7.75824e+06
-7.57714e+06
7.63301e+06
7.34449e+06
1.59007e+07
-1.58952e+07
-1.39182e+07
-5.79092e+06
-1.20685e+07
931440
-1.69641e+07
1.69698e+07
-2.24701e+07
2.24765e+07
-5.38458e+06
550779
1.38961e+06
-2.72446e+07
2.72501e+07
-4.87463e+06
4.9674e+06
-7.76394e+06
658317
-1.79607e+06
-4.98353e+06
2.86804e+06
-1.04766e+07
-2.3353e+07
2.33592e+07
-7.55227e+06
-1.39362e+07
-1.4862e+07
-1.34357e+07
1.34399e+07
-1.26721e+07
-4.5153e+06
-2.26936e+07
2.26999e+07
-7.21192e+06
1.07492e+06
2.74502e+07
-2.74443e+07
-1.56679e+07
-2.19585e+07
2.1965e+07
-9.08369e+06
7.74554e+06
-1.0029e+07
2.21642e+07
-2.2159e+07
-7.28933e+06
7.29248e+06
-6.17376e+06
-1.54774e+07
2.21477e+07
-2.21426e+07
32357.4
-32177
5.21305e+06
-6.60035e+06
-3.00246e+06
3.0038e+06
-8.41897e+06
698355
1.59362e+06
-2.37995e+07
2.38046e+07
-4.12689e+06
-2.12757e+07
2.12823e+07
-7.13058e+06
2.13882e+07
-2.13829e+07
1.88e+07
-1.87945e+07
1.54827e+06
-1.54883e+06
1.01533e+06
2.19128e+07
-2.19075e+07
-1.42711e+07
2.09539e+07
-2.09488e+07
2.29619e+07
8.66705e+06
-2.68221e+07
2.68282e+07
1.03906e+07
1.47349e+07
1.46274e+07
-1.17557e+07
5.71653e+06
190733
-9.01115e+06
1.21317e+07
-1.14792e+07
-2.55486e+07
2.55543e+07
-5.25352e+06
-4.51329e+06
-1.5532e+07
-1.57561e+07
1.89175e+07
-1.44359e+07
1.30127e+07
-1.3007e+07
4.53375e+06
1.03993e+06
1.33834e+07
2.15311e+07
-2.15259e+07
2.47334e+07
-2.47274e+07
1.83298e+06
-3.76051e+06
2.1121e+07
-2.11144e+07
9.38176e+06
-5.5822e+06
-9.99025e+06
2.3943e+06
1.35265e+06
-1.69724e+07
1.69781e+07
-1.28359e+07
1.28406e+07
1.04671e+07
-1.29751e+07
2.5584e+06
-2.53157e+06
-203562
204416
-5.39115e+06
-6.73848e+06
3.19351e+06
1.1792e+07
518288
-5.20974e+06
-2.1326e+07
2.13314e+07
-2.3645e+07
2.36499e+07
-1.14542e+07
1.53144e+07
-2.21228e+07
2.21279e+07
894705
2.12262e+06
-2.2064e+07
2.207e+07
-2.49785e+06
4.14819e+06
-4.14702e+06
8.63068e+06
7.77298e+06
-1.39118e+06
86366.3
117709
-117207
1.77294e+06
-1.77389e+06
1.04032e+07
-1.24568e+07
1.24627e+07
362099
7.55406e+06
1.123e+06
-1.12471e+06
-1.08195e+07
-6.29871e+06
-4.46214e+06
7.79953e+06
-1.80262e+07
2.40593e+06
1.17667e+07
-1.40533e+07
-5.05336e+06
1.40324e+07
-2.03857e+07
2.25025e+06
8.81561e+06
-1.18057e+07
1.18105e+07
-4.4105e+06
2.84419e+06
2.09516e+07
-2.09461e+07
-1.49349e+07
1.50021e+07
46595.2
-46345.3
-9.11756e+06
8.54955e+06
-8.54581e+06
-6.33477e+06
3.09798e+06
-1.17187e+07
1.17143e+07
2.25057e+07
-2.25004e+07
27306.1
-26974.9
1.42389e+06
-2.64462e+07
2.64518e+07
-1.3593e+06
-1.09245e+07
-2.14974e+07
2.15026e+07
-2.45016e+07
2.45085e+07
4.28008e+06
-9.29021e+06
-1.68273e+06
-9.75363e+06
9.75789e+06
-2.58919e+07
2.58972e+07
-4.4988e+06
-1.44533e+07
-4.95507e+06
-1.45255e+07
-1.45875e+07
-9.89786e+06
-9.50967e+06
1.05435e+07
7.29079e+06
-1.0537e+07
2.62134e+07
-2.62074e+07
-8.75312e+06
3.47443e+06
4.16521e+06
-1.48465e+07
-1.34584e+07
-564121
-8.41103e+06
2.82336e+06
1.09935e+07
1.09149e+06
483515
-2.19069e+06
9.36807e+06
5.12838e+06
-2.11411e+07
-1.00374e+07
1.87553e+07
-1.87497e+07
6.8322e+06
-7.17614e+06
2.86795e+06
-9.80348e+06
9.80778e+06
216447
5.14876e+06
-1.29151e+07
700807
1.29021e+07
229445
-228430
-4.42288e+06
1.2315e+07
1.01479e+07
1.5211e+07
8.08404e+06
-1.08127e+07
5.30647e+06
-1.33689e+07
3.12397e+06
1.82311e+06
1.1421e+06
-2.00999e+07
-2.15847e+07
2.15897e+07
-1.87997e+07
1.76292e+06
1.41832e+07
-8.41534e+06
2.08757e+07
-2.08705e+07
-1.63177e+07
1.63233e+07
1.49877e+07
929001
4.00622e+06
-4.00576e+06
-1.8887e+07
1.88821e+07
1.40566e+07
-1.40509e+07
-68012.7
68351.9
-5.28083e+06
-3.309e+06
-1.20568e+07
-1.16625e+06
-2.97818e+06
-2.27028e+07
2.27096e+07
-2.19993e+07
2.2006e+07
1.33793e+07
-1.33735e+07
1.46565e+07
-1.46513e+07
-3.32947e+06
194583
-3.03295e+06
-1.15732e+07
6.09947e+06
1.41196e+07
-4.85227e+06
-2.64842e+07
2.64904e+07
-1.26963e+07
6.45744e+06
3.28247e+06
1.69484e+07
1.46277e+07
-1.12342e+07
-3.88989e+06
2.17124e+07
-2.17069e+07
-5.73916e+06
5.81229e+06
5.33979e+06
-5.33789e+06
2.16771e+07
-2.16718e+07
569639
3.56102e+06
-3.95195e+06
4.11798e+06
2.04864e+07
2.05597e+06
-1.9858e+07
1.98641e+07
-8.30595e+06
1.12662e+07
687912
-1.25127e+07
1.25186e+07
9.85141e+06
-9.84725e+06
8.42947e+06
-1.77114e+07
-1.03031e+07
-8.41466e+06
8.41883e+06
-1.13291e+07
-2.05747e+06
1.14013e+07
-1.13948e+07
-9.87591e+06
2.53722e+07
-2.53647e+07
1.979e+07
-1.97838e+07
-1.32544e+07
-1.94166e+07
1.94227e+07
-5.99305e+06
-8.48898e+06
1.97491e+07
-1.97438e+07
-1.52001e+07
-2.16835e+07
2.16886e+07
1.24687e+07
-2.09935e+07
2.09989e+07
-1.28544e+07
1.28602e+07
-3.21034e+06
1.6898e+07
-1.68925e+07
-1.02073e+07
-2.03717e+06
-2.56174e+06
-3.70512e+06
1.62761e+07
-1.62706e+07
-2.52403e+07
2.52457e+07
-9.22389e+06
-1.54414e+07
9.90229e+06
933449
-1.18758e+07
-1.09385e+07
5.23516e+06
-4.04002e+06
4.04058e+06
-1.79281e+07
-2.38421e+07
2.3847e+07
9.14272e+06
932716
-2.13362e+07
2.13419e+07
-1.08916e+07
-1.22103e+07
1.22112e+07
183532
1.22949e+06
-3.53135e+06
-9.41184e+06
-7.87611e+06
1.13418e+07
-1.13352e+07
-1.09166e+07
-228631
1.79142e+07
-1.79087e+07
4.03965e+06
-1.14128e+07
1.14183e+07
-3.27664e+06
1.11439e+07
-1.11394e+07
-2.13861e+07
2.13923e+07
-1.25928e+07
1.25976e+07
1.20775e+07
-9.29174e+06
9.27133e+06
1.20118e+07
-1.36921e+07
1.36973e+07
-8.45079e+06
4.49558e+06
-5.17214e+06
-1.26866e+07
918251
-2.32348e+06
-4.62095e+06
-2.01262e+07
1.33223e+07
-1.33166e+07
9.26782e+06
1.35232e+07
-1.3518e+07
-8.72314e+06
-1.78873e+07
1.78929e+07
-3.28922e+06
-835120
-1.16145e+07
1.16197e+07
2.05206e+07
-2.05154e+07
1.56015e+07
6.55674e+06
1.05979e+07
1.81854e+07
-1.81797e+07
2.33813e+07
-2.33762e+07
7.29553e+06
-5.82355e+06
3.00651e+06
-3.0612e+06
9.18744e+06
-9.17984e+06
-9.5027e+06
-54727.7
-122410
123074
55028.9
-5.85999e+06
663167
-663573
-1.30124e+07
1.30173e+07
-7.94335e+06
7.94693e+06
1.10794e+07
-1.10749e+07
1.79237e+06
1.63781e+07
-1.63727e+07
-1.20495e+07
-5.69674e+06
-1.56241e+07
1.56294e+07
-7.23322e+06
1.74223e+07
-1.74166e+07
-9.38076e+06
-7.44226e+06
1.46952e+07
-1.20547e+07
1.20594e+07
1.44417e+07
1.06348e+06
-41957.1
-6.83177e+06
-2.15051e+07
2.15106e+07
-1.81705e+06
1.28425e+07
-2.64174e+07
2.64229e+07
-63016.1
63313.9
1.31492e+07
-1.31447e+07
1.13591e+07
-1.75242e+06
2.57725e+07
-2.57675e+07
-8.61172e+06
-1.29061e+07
1.85154e+06
4.90896e+06
1.08221e+07
8.67356e+06
4.6549e+06
-905164
-3.7658e+06
-1.40276e+07
9.70393e+06
1.33104e+07
-1.27425e+07
-6.61133e+06
-5.20141e+06
163873
-163466
1.78422e+07
-1.78367e+07
1.04167e+07
-896013
-5.68352e+06
-2.0177e+06
1.16229e+07
1.24101e+07
-1.30119e+07
-1.30669e+06
8.19217e+06
-8.8492e+06
-3.39347e+06
7.3754e+06
-7.37213e+06
1.16896e+07
1.63392e+07
-1.55382e+06
-8.13968e+06
2.16853e+07
-2.16798e+07
-2.239e+07
2.23952e+07
124921
-124338
-1.06231e+06
-1.69374e+06
-6.64541e+06
-953140
-1.20929e+07
1.20994e+07
7.12686e+06
3.16572e+06
-3.16591e+06
-2.39013e+07
2.39065e+07
-1.8689e+07
1.96451e+07
-1.96396e+07
-2.95982e+06
1.47596e+07
-9.27899e+06
-5.32762e+06
1.4647e+07
1.65439e+06
1.96217e+07
-1.96165e+07
7.8183e+06
-2.59071e+06
2.41468e+07
-2.41398e+07
-7.85413e+06
-2.09988e+07
-7.08433e+06
2.10045e+07
5.33036e+06
-5.30383e+06
1.06329e+07
7.99452e+06
-1.10978e+07
-438543
-1.11314e+07
-5.86689e+06
1.94628e+07
-3.87393e+06
7.76662e+06
-7.76194e+06
-2.23009e+07
2.2306e+07
5.63274e+06
1.65644e+06
-2.09073e+07
2.09127e+07
-1.22534e+07
9.99449e+06
8.10381e+06
4.12492e+06
9.08823e+06
8.86145e+06
-8.85763e+06
-3.25383e+06
1.24993e+07
-1.24932e+07
-2.21015e+07
2.21066e+07
296971
-8.43348e+06
-1.7895e+06
-1.94508e+07
1.84526e+07
-1.84467e+07
8.25273e+06
1.03433e+06
-5.86033e+06
-1.31964e+07
-5.37082e+06
-8.98051e+06
-3.47639e+06
-8.33658e+06
9.43311e+06
2.2462e+07
-2.2457e+07
2.02079e+07
-2.02016e+07
1.47026e+07
-1.44758e+07
-3.38369e+06
1.31937e+06
2.19237e+07
-2.19187e+07
-1.53036e+07
-1.38598e+07
404123
-5.65118e+06
1.81622e+06
1.44265e+06
-1.44179e+06
-6.16179e+06
-2.41966e+06
2.50371e+07
-2.50308e+07
-748140
6.35065e+06
-1.01969e+06
2.67913e+07
-2.67861e+07
-8.82542e+06
8.83114e+06
-1.05511e+07
-6.84932e+06
6.85244e+06
-3.2358e+06
-1.51193e+06
743478
1.36567e+06
2.05164e+07
-2.05113e+07
-2.83678e+06
-1.22628e+07
1.22685e+07
2.28412e+07
-2.28359e+07
-8.73714e+06
8.72428e+06
1.48268e+07
-1.48215e+07
-2.42565e+07
2.42632e+07
2.83379e+06
-1.44315e+07
2.4593e+07
-2.45865e+07
-1.50797e+07
-1.27459e+06
1.40478e+07
-1.40428e+07
1.83502e+07
-1.83449e+07
-1.43712e+07
-2.15667e+07
2.15723e+07
-2.50863e+07
2.50912e+07
1.43736e+07
6.23995e+06
8.93312e+06
3.91221e+06
1.6305e+07
-1.62995e+07
-2.007e+07
1.34117e+06
1.79576e+06
2.0075e+07
7.30545e+06
1.16986e+07
-8.95367e+06
1.2388e+07
-1.23825e+07
243527
3.44917e+06
-1.08086e+07
1.61868e+07
-1.61926e+07
6.24081e+06
-774463
201682
-201100
-9.11005e+06
-1.05056e+07
-7.51217e+06
2.46811e+07
-2.4675e+07
-1.50758e+07
-1.11698e+07
-1.47054e+07
6.84639e+06
1.45234e+07
-1.45181e+07
-1.42651e+07
6.18452e+06
1.50864e+07
-7.94506e+06
8.01253e+06
1.47106e+07
-1.31908e+07
1.40924e+07
-1.40872e+07
-2.00093e+07
2.00145e+07
1.29788e+07
-5.16225e+06
8.42037e+06
2.03705e+07
-2.03642e+07
-1.89982e+07
1.90037e+07
-8433.63
-6.78224e+06
1.64027e+07
-1.63973e+07
-9.30695e+06
2.76215e+06
-2.76183e+06
-7.43661e+06
-7.87774e+06
2.01896e+07
-1.21296e+07
-1.26362e+07
-1.52302e+07
8.43647e+06
-9.05016e+06
-2.92222e+06
2.30967e+07
-2.30916e+07
-1.35526e+06
430720
4.25569e+06
-8.98955e+06
-3.78154e+06
-2.24686e+06
-1.44761e+06
8.38876e+06
-6.59345e+06
719145
3.99871e+06
-8.98685e+06
7.3464e+06
-1.84616e+07
4.52109e+06
-4.77328e+06
-4.17557e+06
4.17624e+06
8.82321e+06
-2.98308e+06
2.98294e+06
-6.55432e+06
-3.93052e+06
1.65556e+07
-1.65501e+07
8.37775e+06
2.26952e+06
-2.26919e+06
-7.55855e+06
-3.97456e+06
7.8783e+06
-1.08051e+07
1.26364e+07
7.98267e+06
-2.14396e+07
9.87351e+06
7.27714e+06
1.21132e+07
8.63864e+06
-8.63489e+06
3.03103e+06
-3.36201e+06
778712
-779268
1.33559e+07
-311709
8.93185e+06
6.64751e+06
-9.33136e+06
9.33767e+06
-1.48582e+07
-2.98227e+06
7.44549e+06
-416546
416633
-8.45701e+06
-5.76655e+06
-79156
1.00572e+06
-4.74158e+06
1.45232e+07
8.46647e+06
-1.08546e+07
-9.61792e+06
9.62289e+06
-1.70285e+07
-1.33434e+07
418953
1.76314e+06
-9.88268e+06
-1.74986e+07
1.75046e+07
766191
-7.11468e+06
-1.63515e+07
-4.3377e+06
4.33848e+06
-8.69958e+06
4.25622e+06
8.78311e+06
-2.12812e+07
2.12866e+07
-4.07684e+06
-1.22492e+07
1.2267e+07
1.64268e+07
-1.64206e+07
6.64374e+06
-9.13239e+06
302003
-301278
-8.22446e+06
829090
2.54161e+06
2.2482e+07
-2.24769e+07
-2.74215e+06
2.57173e+07
-2.57101e+07
1.28003e+06
1.06119e+07
-3.92094e+06
-1.7628e+07
-7.64712e+06
-2.28128e+06
1.76337e+07
1.61699e+07
2.01695e+06
-7.11911e+06
-1.01702e+07
1.01759e+07
1.01302e+07
-1.0461e+07
1.4455e+07
8.16137e+06
9.78834e+06
-2.16753e+06
1.63022e+06
-3.40933e+06
-6.17313e+06
578622
2.10118e+06
-3.06861e+06
-2.50237e+06
77062.9
9.29775e+06
5.64671e+06
-1.21706e+07
-8.86462e+06
-4.4439e+06
-1.48353e+07
1.39926e+07
-1.72603e+07
1.72658e+07
2.9116e+06
-1.25263e+06
-9.10442e+06
9.10894e+06
1.81428e+07
-1.81372e+07
-5.96877e+06
-2.39376e+06
1.20288e+07
-1.79188e+06
1.79264e+06
2.18077e+07
-2.18027e+07
1.52578e+06
432689
-7.72574e+06
-2.44818e+06
-1.8973e+06
-502515
-2.17233e+06
-397551
1.48312e+07
1.60378e+07
-1.60324e+07
9.48532e+06
-9.44153e+06
4.26456e+06
3.70426e+06
2.18963e+07
-2.18912e+07
2.18408e+06
4.23441e+06
9.50495e+06
-3.15081e+06
-1.36283e+07
-5.72817e+06
5.30485e+06
-4.49136e+06
1.61801e+07
-2.55741e+06
-5.08453e+06
1.92251e+07
1.66438e+07
-1.66383e+07
-1.72159e+07
3.27476e+06
1.03069e+07
-7.14137e+06
7.36551e+06
1.92258e+07
-1.92101e+07
-8.39804e+06
-1.97173e+07
-2.4566e+06
2.4566e+06
3.30601e+06
-3.3059e+06
5.69965e+06
7.77161e+06
-7.18037e+06
2.26064e+07
-2.24236e+07
2.24305e+07
3.94157e+06
-3.94056e+06
-3.2436e+06
2.31278e+07
-2.31227e+07
-9.35373e+06
9.15414e+06
-2.72357e+06
54626.8
-54327.1
-8.53188e+06
-4.1721e+06
1.83435e+07
-4.98747e+06
-2.2763e+07
2.27693e+07
9.16672e+06
1.74113e+07
-1.72844e+07
6.55646e+06
4.40003e+06
-624111
9.82195e+06
-9.81402e+06
-2.17318e+07
2.17369e+07
-4.30197e+06
-1.1417e+07
1.14243e+07
-2.1036e+07
2.10413e+07
4.97505e+06
-1.09446e+07
9.31011e+06
-3.57107e+06
9.20897e+06
-9.20414e+06
-7.26131e+06
2.81017e+06
1.57619e+07
-153011
-1.0007e+07
1.00113e+07
-9.35129e+06
4.75663e+06
1.87545e+07
1.9563e+07
-1.95576e+07
1.39776e+07
-2.164e+06
-7.16469e+06
7.01127e+06
2.46172e+07
-2.46102e+07
-9.96014e+06
1.71774e+07
-1.71718e+07
9.76244e+06
-1.56205e+07
-1.24142e+07
1.24137e+07
9.53534e+06
5.88864e+06
462881
-800866
-1.16288e+07
4.15981e+06
-3.42514e+06
121938
-121227
1.56408e+07
3.31507e+06
-3.31461e+06
2.07503e+07
-2.0744e+07
-2570.72
2.46989e+07
-2.46921e+07
-1.83169e+07
1.83227e+07
-2.46343e+07
2.46392e+07
6.36921e+06
2.2774e+07
-2.27689e+07
1.72066e+06
-7.47502e+06
-856417
-7.3801e+06
4.87778e+06
-6.67864e+06
1.76424e+07
-1.76372e+07
-5.62272e+06
5.62549e+06
4.89655e+06
-670991
396757
1.44152e+07
2.42086e+06
1.05093e+07
-1.55854e+07
2.25673e+06
-3.09504e+06
2.07341e+06
-2.07392e+06
1.45079e+07
-1.12153e+07
1.42716e+07
-9.30586e+06
-5.18537e+06
1.24905e+06
1.09068e+07
-1.08994e+07
1.06171e+07
5.19107e+06
-8.60377e+06
8.6367e+06
-3.62875e+06
-1.10505e+07
-2.20248e+07
-1.32969e+07
1.33023e+07
1.55154e+07
-7.83291e+06
1.00702e+07
-1.09439e+07
1.31626e+07
2.20306e+07
1.09454e+07
1.22057e+07
1.01287e+07
6.62222e+06
9.93437e+06
-3.45668e+06
8.32914e+06
6.09513e+06
4.61256e+06
-1.44939e+06
-4.95069e+06
8.55834e+06
-1.0063e+07
-5.56267e+06
1.79482e+07
-1.7943e+07
-1.2827e+07
3.87987e+06
-3.73769e+06
-4.38541e+06
1.53705e+07
-1.66307e+07
2.00689e+06
-1.83837e+07
-6.32399e+06
2.83312e+06
1.66363e+07
8.20984e+06
-1.21458e+07
5.29438e+06
-2.24985e+06
1.39615e+07
-1.37492e+07
9.41468e+06
211052
-210887
-1.5501e+07
-1.87907e+07
1.87968e+07
865172
2.13063e+07
-2.13004e+07
2.51196e+06
8.38242e+06
-8.37879e+06
-1.00608e+07
115893
2.21417e+06
2.3773e+07
-2.37677e+07
-1.03479e+06
-1.82038e+07
1.97316e+07
-7.35507e+06
2.08073e+07
-2.08012e+07
-1.15333e+07
3.30719e+06
2.13863e+06
-1.69318e+07
9.60409e+06
-9.60115e+06
142596
-141897
1.38294e+06
5.55142e+06
1.46012e+07
-1.45959e+07
2.15244e+07
-2.15187e+07
-1.66653e+07
3.7736e+06
7.86361e+06
2.02055e+07
-2.01997e+07
864093
-261600
262305
-1.74132e+07
1.74105e+07
-2.14121e+07
2.14176e+07
-1.84998e+07
2.18593e+07
-2.18542e+07
1.58664e+07
-1.58607e+07
1.01482e+07
-4.80814e+06
-2.04393e+07
1.97849e+07
9.34668e+06
723374
-1.97797e+07
4.10912e+06
1.16415e+07
1.09353e+07
1.21537e+07
7.01287e+06
2.07976e+07
-2.07925e+07
-5.98484e+06
-1.88254e+07
1.88312e+07
2.36375e+07
-2.36319e+07
-8.13817e+06
-1.64733e+07
1.6479e+07
9.50595e+06
-9.50078e+06
-9.07421e+06
9.18398e+06
-9.1753e+06
8.86019e+06
-2.24356e+07
2.24408e+07
5.66727e+06
-3.93463e+06
-9.09051e+06
-1.63358e+06
8.85264e+06
-8.84887e+06
3.46596e+06
-8.52739e+06
3.5218e+06
-6.86231e+06
-71207.1
71695
-2.53801e+07
2.53856e+07
-3.4469e+06
6.33436e+06
2.54577e+07
-2.54508e+07
-9.46356e+06
9.20597e+06
4.52951e+06
-1.49285e+07
1.49661e+07
1.01434e+07
-651431
-1.53436e+07
2.00963e+06
-2.50056e+07
2.50121e+07
-1.02318e+07
1.02376e+07
-1.45946e+07
1.46001e+07
747380
-747512
3.97719e+06
-1.39022e+07
-2.79814e+06
-7.77727e+06
-9.19824e+06
-1.8883e+06
1.26569e+06
-1.26639e+06
-4.03257e+06
-507635
8.14938e+06
-1.01893e+07
1.01936e+07
7.72202e+06
-404935
-1.07133e+07
1.68361e+07
-1.68305e+07
-1.08454e+07
1.45285e+06
-1.60353e+07
1.60406e+07
-7.32841e+06
-1.72879e+07
1.72934e+07
-1.29804e+07
-7.70107e+06
-1.02165e+07
-4.7103e+06
5.05587e+06
-5.09759e+06
2.00358e+07
4.86954e+06
1.40059e+07
-1.40008e+07
520059
1.23014e+07
-1.22965e+07
1.86022e+06
1.85665e+07
-1.8561e+07
-9.27256e+06
9.27651e+06
-983962
-5.58506e+06
5.58847e+06
-1.74558e+07
1.74612e+07
1.06624e+07
-7.20826e+06
-1.05483e+07
1.25314e+07
-1.25265e+07
1.05138e+07
-3.61227e+06
-1.0577e+07
1.058e+07
2.36755e+06
2.27942e+07
-2.27869e+07
3.29019e+06
1.35461e+07
2.18512e+07
-2.18462e+07
-301896
303122
-2.91678e+06
2.09187e+07
-2.09132e+07
2.45316e+06
9.68504e+06
-9.68061e+06
1.82757e+06
-1.82782e+06
-201038
9.76511e+06
2.23591e+07
-2.2352e+07
-2.62862e+07
2.62919e+07
8.62442e+06
997321
-3.891e+06
3.89135e+06
6.04322e+06
41794.7
-41550.1
-2.33228e+07
2.33277e+07
-7.10469e+06
4.9846e+06
-4.98328e+06
2.94452e+06
-2.13972e+07
2.14028e+07
-5.93762e+06
-2.95198e+06
-2.23832e+07
2.23884e+07
-2.21039e+07
2.21105e+07
-6.57589e+06
638899
-1.46579e+07
7.57703e+06
-4.56529e+06
-2.62772e+06
8.34137e+06
9.44434e+06
-9.51754e+06
9.48016e+06
-1.84559e+07
1.84613e+07
2.21004e+07
-2.20952e+07
1.7581e+07
-9.24584e+06
-2.06005e+06
819718
-2.06168e+07
-9.03943e+06
1.4265e+07
1.32961e+07
-1.43878e+07
1.26825e+07
-1.26767e+07
-1.09192e+07
1.09237e+07
2.04132e+06
-2.51477e+06
-9.75825e+06
381076
-955676
7.68385e+06
-8.60067e+06
-3.64155e+06
1.04024e+07
-1.03969e+07
287833
-1.18356e+07
1.18419e+07
-4.95895e+06
-2.45551e+07
2.45626e+07
-2.2824e+07
2.28301e+07
-3.74921e+06
-1.75324e+07
1.75379e+07
2.73538e+07
-2.73483e+07
1.94492e+07
-1.94437e+07
1.303e+07
-1.30249e+07
1.94759e+07
5.21405e+06
6.43223e+06
-2.9733e+06
-1.06946e+07
1.06992e+07
-1.78071e+07
1.78126e+07
-5.58474e+06
5.36938e+06
-5.23367e+06
2.53327e+07
-2.53276e+07
9.73649e+06
-1.28039e+07
1.277e+07
-7.82101e+06
-9.3131e+06
1.34764e+07
-4.1884e+06
9.58695e+06
-9.57238e+06
1.14399e+06
-9.72747e+06
9.07448e+06
917979
-918366
1.65426e+07
3.56056e+06
3.82384e+06
-5.09663e+06
-1.17483e+07
-1.903e+07
4.56326e+06
6.20316e+06
-6.20077e+06
1.96849e+07
-1.96794e+07
1.26488e+07
-1.26439e+07
-5.34513e+06
4.60937e+06
4.37956e+06
3.09765e+06
-5.43503e+06
-1.61168e+07
5.90945e+06
6.5353e+06
3.09509e+06
-1.87047e+07
1.86981e+07
1.91175e+06
-1.91276e+06
5.2012e+06
4.64434e+06
-1.27981e+07
1.28034e+07
1.35235e+07
-1.35183e+07
2.34337e+07
-2.34283e+07
-6.55272e+06
-3.08225e+06
3.07314e+06
1.67548e+06
-1.7072e+07
1.7282e+07
-2.10878e+07
2.1093e+07
9.51344e+06
-361398
1.75812e+07
-1.75754e+07
-1.01804e+07
1.00931e+07
7.63412e+06
-3.04597e+06
-9.76354e+06
-4.73661e+06
9.13952e+06
-9.13784e+06
1.52695e+07
-1.52643e+07
-1.41685e+07
2.13388e+07
-2.13335e+07
1.99166e+07
-1.99104e+07
1.91488e+07
9.55036e+06
-9.54757e+06
-7.66389e+06
7.66721e+06
2.53871e+06
-5.59558e+06
-1.28284e+07
-9.61896e+06
9.62515e+06
-3.66239e+06
3.66265e+06
537402
1.27225e+07
-1.59297e+07
1.59352e+07
1.13935e+07
4.91013e+06
-2.60785e+07
2.60843e+07
4.79571e+06
1.3406e+07
-1.69864e+07
5.43756e+06
-1.66551e+07
-1.89156e+07
1.89213e+07
6.84854e+06
2.00041e+07
-1.99985e+07
3.78752e+06
6.56013e+06
1.66585e+07
-1.48862e+07
1.48919e+07
-7.31503e+06
8.11602e+06
-72871.7
2.19532e+07
-2.1948e+07
2.13074e+06
-2.88577e+06
1.35256e+07
-1.35195e+07
7.80926e+06
-8.58153e+06
8.53002e+06
2.9158e+06
1.11618e+06
-1.06585e+06
1.25007e+07
-1.2495e+07
2.84516e+06
-3.94189e+06
-8.14551e+06
1.50497e+07
-1.09847e+06
-4.64135e+06
-1.52616e+06
535847
8.62923e+06
1.83038e+07
-6.70925e+06
2.01156e+07
-2.01091e+07
-9.19271e+06
1.26187e+06
-1.2626e+06
2.0491e+07
-2.0485e+07
6.58254e+06
-2.18263e+07
2.18327e+07
8.31269e+06
1.81885e+07
-2.51447e+06
-569750
569406
1.46846e+06
-1.7049e+07
1.70546e+07
-1.14126e+07
1.1247e+06
1.2006e+07
-205483
-1.75528e+07
8.17501e+06
-5.79302e+06
5.79611e+06
1.33144e+07
-1.33093e+07
-9.19526e+06
4.21444e+06
8.60191e+06
-1.98046e+07
1.98102e+07
-2.07828e+06
1.99709e+06
-1.9969e+06
-145053
-2.20614e+07
2.20665e+07
-3.20402e+06
6.12515e+06
-7.49277e+06
6.04202e+06
-6.07811e+06
1.08958e+07
-1.08902e+07
-8.11132e+06
8.04869e+06
-1.05016e+07
1.06083e+07
1.29231e+07
-9.09015e+06
-1.33735e+07
813076
-1.64287e+07
-3.81715e+06
9.25548e+06
-9.24907e+06
-185367
6.24772e+06
-6.24542e+06
1.79884e+07
-1.79837e+07
1.48889e+07
2.01213e+07
1.42199e+06
2.45121e+06
9.91693e+06
725183
-1.67459e+07
-1.61559e+07
1.11198e+07
7.15205e+06
-9.23376e+06
-3.15663e+06
9.15978e+06
-1.2128e+07
1.21332e+07
1.3292e+07
-1.32883e+07
1.50544e+07
-1.50665e+07
7.12762e+06
-1.18725e+07
1.18781e+07
1.09698e+06
-1.22475e+07
1.23008e+07
-1.97874e+07
1.97929e+07
5.15689e+06
1.25659e+07
-2.76151e+06
-9.15196e+06
-1.64962e+07
-65565.3
66048.9
8.07103e+06
-4.33412e+06
5.16093e+06
-5.15387e+06
2.57508e+06
9.86213e+06
-9.85733e+06
-1.69167e+07
1.6922e+07
8.99868e+06
-1.74719e+07
2.27148e+07
-2.27098e+07
-1.52512e+07
1.52564e+07
7.20668e+06
5.76508e+06
5.81938e+06
7.79293e+06
1.29409e+07
-1.28909e+07
5.35122e+06
-1.14534e+07
1.14347e+07
-1.28232e+07
1.28282e+07
1.22247e+07
8.7554e+06
-8.75163e+06
9.21853e+06
-9.21333e+06
1.22912e+07
-6.74312e+06
6.68928e+06
-4.55846e+06
3.95506e+06
403564
-5.14376e+06
-9.11066e+06
2.64969e+06
-2.64986e+06
-7.80099e+06
9.11815e+06
-1.49071e+07
1.49128e+07
5.94022e+06
7.27174e+06
7.78028e+06
9.13567e+06
1.11284e+07
-1.11238e+07
9.70872e+06
-2.32614e+07
2.3268e+07
1.03772e+07
9.23912e+06
-5.21616e+06
-1.43813e+07
1.44429e+07
-1.44373e+07
4.86708e+06
1.08171e+07
8.80818e+06
-2.01791e+07
2.01842e+07
1.30607e+07
-1.30574e+07
7.87836e+06
-8.3555e+06
-5.98812e+06
-1.84024e+06
6.39714e+06
5.41556e+06
7.14591e+06
-6.6793e+06
837750
-924902
-1.69956e+07
1.70011e+07
1.82864e+06
2.31284e+07
-1.80604e+07
1.80659e+07
1.48445e+07
-1.20932e+07
8.80915e+06
-7.80402e+06
1.21042e+07
-2.13245e+07
2.13295e+07
3.08071e+06
1.2238e+07
-1.77846e+07
1.77901e+07
1.02631e+07
-7.92612e+06
1.26863e+07
8331.29
-8058.76
8.28265e+06
2.09731e+07
-2.0967e+07
7.55997e+06
-508967
6.49981e+06
1.52428e+07
-1.23022e+07
-631746
-2.31223e+07
362870
-362480
-4.91217e+06
1.07455e+07
3.76647e+06
274838
-274371
1.13193e+07
-1.57719e+07
1.57776e+07
2.5317e+07
-2.53106e+07
-1.23869e+07
1.23917e+07
8.92219e+06
925358
-937621
-9.00975e+06
-4.38827e+06
7.01363e+06
530023
-8.75226e+06
-8.57139e+06
1.70248e+07
-1.70187e+07
-1.71609e+07
1.71665e+07
-2.19286e+06
-9.39066e+06
-2.04981e+07
5.90352e+06
-1.03415e+07
-326504
9.64841e+06
1.01245e+07
2.57269e+07
-2.57195e+07
-1.6254e+07
-5.85824e+06
-1.2828e+07
1.28335e+07
-2.76212e+06
-810282
234060
7.20706e+06
-17584.6
17420.7
-3.84517e+06
2.53975e+06
-2.53909e+06
-214739
-2.27522e+07
2.27584e+07
-3.64587e+06
-1.03367e+07
1.20643e+07
1.0341e+07
-1.67717e+07
1.67682e+07
4.07535e+06
-5.22443e+06
-8.63199e+06
1.13535e+06
-2.25237e+07
2.25298e+07
1.10257e+07
-1.10212e+07
-2.10213e+07
3.48954e+06
-2.62735e+07
2.62796e+07
9.18598e+06
-9.18203e+06
-8.96013e+06
1.65749e+07
-2.41458e+06
-1.50854e+07
1.50903e+07
2.28814e+07
-2.28761e+07
-259800
-1.36986e+06
1.0721e+07
1.98254e+07
8.96548e+06
5.41139e+06
-1.69058e+07
1.69114e+07
-3.98889e+06
6.35781e+06
-1.06656e+07
-1.47555e+07
-3.82992e+06
-1.00644e+07
1.47351e+07
-1.47294e+07
1.84401e+07
-2.25978e+07
2.26028e+07
124643
-124116
1.08994e+07
9.89923e+06
2.30875e+07
-1.18787e+07
-1.25489e+07
1.25544e+07
-1.26917e+07
9.20662e+06
-1.72752e+07
8.9456e+06
-4.05304e+06
-2.43845e+07
2.43897e+07
-1.56788e+07
-1.61723e+07
1.61778e+07
-2.65073e+07
2.65136e+07
-2.30805e+07
67097.4
-66711.1
7.47257e+06
-2.48665e+07
2.48715e+07
-1.40385e+07
1.40443e+07
-3.47858e+06
3.47866e+06
1.21566e+07
4.42156e+06
1.84962e+07
-1.84908e+07
-3.43243e+06
-5.07107e+06
1.65938e+07
-1.6588e+07
-9.67351e+06
-6.85279e+06
2.07377e+07
-2.07322e+07
-8.5726e+06
3.78575e+06
-3.78493e+06
1.30097e+07
50469.6
-7.17611e+06
2.61124e+07
-2.6105e+07
1.75369e+07
1.26523e+07
-1.26464e+07
-1.06127e+07
1.06178e+07
1.85764e+06
-1.85794e+06
4.66571e+06
1.54291e+07
-2.29695e+06
2.29705e+06
-1.47692e+07
1.47749e+07
-5.21757e+06
1.43669e+06
6.54151e+06
1.26963e+07
3.62922e+06
3.03098e+06
1.99683e+07
-1.99621e+07
1.88641e+07
-1.88585e+07
-2.75127e+07
2.75187e+07
-7.29473e+06
-8.66539e+06
8.54018e+06
1.79915e+07
-1.79858e+07
-7.7689e+06
-222199
223168
-3.54585e+06
-1.32713e+07
9.38229e+06
-9.37528e+06
-2.04162e+07
5.12269e+06
-1.05953e+07
-2.24552e+07
2.24602e+07
-7.04934e+06
-9.94393e+06
9.95009e+06
501934
6.71576e+06
-652168
-1.26579e+07
-1.79417e+07
1.79475e+07
-1.86881e+06
-8.38662e+06
2.2328e+07
-1.34396e+07
1.34446e+07
4.36937e+06
1.88241e+07
-1.88186e+07
193136
-6.13181e+06
-5.5671e+06
1.46372e+06
-4.40941e+06
1.62249e+06
-1.77328e+07
1.77381e+07
1.69752e+07
-1.69698e+07
-2.82216e+06
-2.25605e+07
2.25659e+07
-2.02965e+06
2.82126e+06
2.02813e+06
-7.65401e+06
7.65733e+06
8.42135e+06
-7.03107e+06
3.91007e+06
1.52314e+06
-8.12333e+06
6.28716e+06
1.6889e+07
-1.68845e+07
-4.13403e+06
-8.80975e+06
1.38849e+07
-6.11388e+06
-1.93346e+07
-1.5505e+07
-5.60441e+06
3.87075e+06
1.70414e+06
3.06065e+06
-2.43181e+07
2.43235e+07
-2.31081e+07
2.31132e+07
567576
1.04095e+06
-1.04024e+06
-9.8307e+06
-4.72352e+06
8.13401e+06
-1.01517e+06
2.21688e+06
-1.72915e+07
-1.81249e+06
940715
-2.37074e+07
2.37125e+07
-5.48766e+06
1.55046e+06
1.85505e+07
9.63867e+06
-9.63458e+06
-1.58409e+07
1.92847e+07
4.70462e+06
1.35442e+07
5.67539e+06
-1.23653e+07
1.47696e+06
-1.40855e+06
-5.1877e+06
130780
-2.4291e+07
2.4296e+07
1.1684e+06
-1.175e+06
6.42843e+06
1.24081e+06
1.37967e+07
-1.37884e+07
6.10579e+06
-4.31412e+06
6.00702e+06
-1.5278e+07
1.5284e+07
1.85504e+07
-1.34214e+06
1.26382e+07
-8.41196e+06
368620
-1.48874e+07
590200
-8.90125e+06
-128725
787452
6.10778e+06
644727
6.18884e+06
-1.09446e+07
2.33278e+07
-2.33226e+07
-1.09597e+07
1.09647e+07
6.55644e+06
-6.55872e+06
2.52348e+06
-1.29194e+07
1.03997e+07
-9.70301e+06
9.70746e+06
-1.82606e+07
7.27046e+06
-603963
1.04233e+07
-1.0273e+07
-6.81399e+06
-3.19636e+06
-825619
829943
-1.00408e+07
1.0047e+07
-2.64005e+06
2.63937e+06
1.37767e+07
-1.41665e+07
5.98674e+06
-3.63336e+06
-7.32382e+06
6.76246e+06
158868
-757527
-1.15814e+06
-6.46094e+06
1.41051e+07
-598421
3.01929e+06
1.30046e+07
1.67076e+07
-1.6708e+07
1.0455e+07
-717958
-2.95778e+06
1.82412e+07
-1.82358e+07
1.76009e+07
-1.75952e+07
-9.14439e+06
-3.30098e+06
-6.23499e+06
-8.22939e+06
8.28546e+06
7.80195e+06
-6.80826e+06
-2.07561e+06
-6.74175e+06
-4.26121e+06
4.16569e+06
-2.27029e+06
-2.15253e+06
598388
-596553
2.94546e+06
-1.22527e+07
1.41034e+07
-3.33701e+06
-1.26362e+07
1.2641e+07
-2.07177e+07
1.34364e+07
-1.34304e+07
173400
-173031
7.74489e+06
1.86963e+07
-1.86907e+07
10890
-8.97322e+06
170121
236514
-5.10883e+06
5.10497e+06
-1.63794e+07
1.6385e+07
-4.684e+06
1.42162e+06
1.22767e+07
2.20818e+07
-2.20752e+07
1.93242e+07
-1.93186e+07
1.03504e+06
-1.27034e+07
1.27078e+07
9.15133e+06
6.653e+06
-2.0253e+07
2.02583e+07
2.4784e+06
-6.99735e+06
-8.02951e+06
3.0614e+06
-5363.19
5080.76
-1.47175e+07
1.47234e+07
-1.21705e+07
1.21764e+07
2.17507e+06
-2.17553e+06
-5.74441e+06
1.04232e+06
-1.04273e+06
-1.22824e+07
-1.69578e+07
7.81695e+06
1.36732e+07
-1.36672e+07
1.62609e+06
-1.42369e+07
1.58616e+06
-1.42467e+06
-1.55782e+07
-1.35428e+07
1.35479e+07
-7.10473e+06
-4.05253e+06
-1.55124e+07
-2.3817e+07
2.3824e+07
1.41041e+07
1.65231e+07
-1.65192e+07
1.23446e+07
-1.23384e+07
-12801.5
12663.8
8.08976e+06
9.23329e+06
5.57946e+06
2.20814e+07
9.33867e+06
9.52934e+06
-8.08152e+06
-7.82188e+06
2.22539e+07
-2.22487e+07
1.1039e+06
1.96834e+07
-1.96782e+07
-8.69923e+06
-1.13201e+07
1.13247e+07
-1.9027e+07
8.4594e+06
-2.05616e+07
2.05672e+07
-1.72972e+07
9.09492e+06
1.39008e+07
6.69769e+06
6.86547e+06
-1.65141e+07
1.65199e+07
7.15343e+06
-7.14617e+06
-4.07245e+06
-635411
1.86319e+07
7.03048e+06
-1.87565e+06
-9.9318e+06
9.95838e+06
-3.72405e+06
-2.51666e+07
2.51716e+07
-1.99182e+07
1.99238e+07
1.65657e+06
-4.06917e+06
4.07381e+06
2.19082e+07
-1.52747e+07
1.06174e+07
-1.88784e+06
-1.97965e+07
7.60596e+06
2.09365e+07
350437
1.94472e+06
-549736
-7.637e+06
-1.14297e+07
1.36004e+07
-1.35943e+07
1.81251e+06
-2.64667e+07
2.64732e+07
1.36715e+07
-1.36658e+07
-9.91459e+06
-5.96373e+06
-3.55003e+06
-2.25188e+06
1.28566e+07
2.1012e+07
-2.10067e+07
1.35098e+07
-4.71454e+06
3.43193e+06
-3.09084e+06
258308
-257727
-2.13488e+07
-282407
1.67848e+07
-1.67794e+07
-7.65507e+06
7.65837e+06
-5.11417e+06
5.1171e+06