/*--------------------------------*- C++ -*----------------------------------*\
| =========                 |                                                 |
| \\      /  F ield         | OpenFOAM: The Open Source CFD Toolbox           |
|  \\    /   O peration     | Version:  v3.0+                                 |
|   \\  /    A nd           | Web:      www.OpenFOAM.com                      |
|    \\/     M anipulation  |                                                 |
\*---------------------------------------------------------------------------*/
FoamFile
{
    version     2.0;
    format      ascii;
    class       volScalarField;
    location    "5000";
    object      sigmayz;
}
// * * * * * * * * * * * * * * * * * * * * * * * * * * * * * * * * * * * * * //

dimensions      [1 -1 -2 0 0 0 0];

internalField   nonuniform List<scalar> 
27023
(
-2.0898e-14
-1.69164e-13
-1.9362e-13
1.49877e-13
0
1.52537e-13
-3.98832e-12
-9.62153e-13
6.55432e-14
-1.28803e-13
1.1232e-12
-5.12426e-13
-1.29343e-13
-3.4667e-14
3.14063e-12
-7.07599e-13
-3.59684e-13
0
-1.77292e-12
0
9.53193e-13
-9.90047e-13
-2.95057e-12
-1.36796e-12
-2.27237e-13
-5.09371e-13
2.63764e-13
2.00996e-11
6.75806e-13
5.97546e-12
-4.92194e-12
-1.94899e-12
3.86569e-12
2.1163e-12
3.8469e-12
1.91928e-12
-1.36799e-12
2.73586e-12
-1.66881e-13
-1.20417e-13
-6.59375e-14
2.21876e-14
-5.09571e-12
-1.33088e-13
-1.32908e-13
-1.35844e-12
-2.07014e-12
1.70614e-12
1.70609e-12
1.13343e-12
-1.01948e-12
-1.73068e-13
1.01151e-12
2.27136e-14
7.95038e-14
3.33063e-12
7.20877e-12
3.09982e-12
1.86742e-12
3.42339e-13
-2.18906e-13
6.60473e-12
-1.63131e-12
2.10558e-11
-1.61896e-11
9.71954e-13
-5.19546e-12
1.82423e-13
-8.67333e-13
-2.28317e-12
0
-4.73388e-12
2.58403e-12
3.44462e-12
6.80939e-12
3.32904e-12
6.40167e-14
5.69309e-14
6.49358e-12
4.30556e-12
1.74061e-12
-2.67239e-12
-2.09799e-12
1.08142e-12
3.62409e-12
-1.5907e-12
1.34865e-12
-5.32153e-13
-3.96181e-13
2.55323e-12
4.24733e-11
1.26004e-13
-1.50029e-13
6.52629e-13
-1.05143e-13
-2.86297e-12
5.78041e-13
6.82845e-13
-3.59197e-12
6.52977e-12
-6.94991e-12
1.75643e-11
3.24895e-11
1.41595e-12
1.07015e-12
-2.3564e-13
1.86276e-14
-1.13838e-12
-1.55638e-12
-8.17927e-12
-4.0375e-12
1.52129e-12
3.60389e-13
4.83978e-12
2.05317e-12
2.66599e-12
4.21259e-12
1.78381e-13
5.36604e-14
-6.91523e-13
-5.27235e-13
-1.36758e-12
-7.08973e-13
-2.18314e-12
2.97732e-12
5.92181e-13
2.27985e-13
2.54409e-13
4.7095e-13
2.67463e-12
8.45643e-12
5.83021e-14
3.17152e-14
-1.38004e-13
-4.02977e-12
-1.01483e-11
2.31032e-12
1.59896e-12
-5.32605e-12
-3.39702e-12
-1.31795e-12
3.31647e-12
-2.14753e-12
2.30399e-12
-5.37079e-13
4.07271e-12
-1.23422e-12
3.38807e-12
2.96089e-12
3.94981e-13
-1.41502e-13
-1.12917e-12
-3.76144e-13
-4.98312e-12
-5.76864e-13
8.94805e-13
7.93136e-12
-4.91716e-12
-8.51267e-12
-2.33191e-12
3.79483e-12
-1.36148e-12
3.27797e-12
-1.05333e-11
-4.4328e-13
4.06019e-13
-7.54843e-13
-2.11578e-12
-1.56876e-12
2.89997e-12
4.47518e-11
5.65288e-12
4.23516e-13
3.86e-11
0
3.16811e-12
-8.99372e-12
-1.60733e-12
6.46265e-12
1.43641e-13
3.05854e-12
-3.27045e-12
2.55715e-12
-6.28483e-12
2.13738e-12
-3.83058e-14
2.10872e-12
2.81601e-12
1.25504e-11
-6.64769e-12
-3.23424e-12
-9.28277e-13
2.37486e-12
-1.08979e-11
-1.15339e-12
2.71588e-12
7.52301e-14
8.66558e-13
-6.90412e-13
2.67912e-13
3.68459e-12
1.62881e-13
-6.95201e-13
6.51906e-12
0
2.17649e-13
1.15621e-12
-3.22009e-12
-5.89287e-12
4.87708e-12
0
1.34692e-15
5.13563e-14
-6.66918e-13
1.92887e-14
7.9177e-14
-1.96928e-12
-3.70965e-13
2.95022e-12
1.73741e-12
-5.17437e-12
-5.15189e-12
1.12674e-12
-7.67099e-14
-1.31878e-11
-1.6733e-12
3.71211e-12
-2.48779e-12
-2.91625e-12
-1.31877e-13
1.24284e-13
-1.48867e-11
-5.07809e-12
-9.05776e-13
-2.41935e-12
3.8106e-12
3.26931e-12
-1.11056e-11
-4.36646e-12
4.67318e-12
4.67366e-12
-1.2638e-12
2.02023e-12
9.33521e-12
1.61036e-12
-4.43589e-13
-1.1205e-11
-6.05612e-13
8.72326e-12
-3.07101e-12
-2.21847e-12
-4.65862e-12
3.48494e-13
2.81e-13
1.04434e-12
-2.74904e-12
0
-4.16555e-12
-3.20432e-13
-2.07477e-12
-3.41578e-13
9.37363e-13
5.99224e-12
-3.76392e-13
-4.51068e-12
6.2012e-12
-1.42842e-12
3.54838e-12
-6.87858e-13
1.59096e-13
-1.90963e-13
-1.08085e-12
3.07566e-12
3.28377e-12
1.4794e-12
-9.55143e-12
-1.39184e-13
1.07723e-13
-6.60215e-12
-8.34579e-12
-3.58609e-12
4.52524e-12
-2.50279e-11
-6.88934e-13
-2.12327e-14
2.07674e-14
-4.32869e-12
9.90699e-12
1.26463e-13
-2.26216e-13
-8.39064e-12
-4.7132e-13
-3.87686e-12
-1.37591e-12
0
3.08571e-12
6.30723e-12
1.14443e-12
-3.17003e-13
0
4.23557e-14
-1.66515e-15
2.88264e-13
0
1.98369e-14
-2.4405e-14
1.53146e-13
2.12014e-12
-6.42297e-13
-1.00751e-11
7.91298e-12
-6.10582e-14
-6.08754e-14
1.6096e-13
1.86331e-13
-2.15168e-12
-6.25316e-12
8.33144e-14
-4.19256e-12
-4.62165e-12
-2.627e-14
-6.92928e-14
-1.92525e-12
6.98042e-13
-4.07817e-13
1.34976e-12
-6.8352e-13
-7.00488e-12
3.56144e-12
7.72169e-13
4.64941e-13
1.84989e-12
-1.65897e-13
1.71686e-13
-2.9649e-12
-1.62353e-13
4.98438e-13
2.60994e-12
7.88814e-14
6.73087e-13
-7.50071e-13
1.71296e-12
1.89867e-11
0
1.57104e-14
-1.64253e-12
2.39068e-13
7.51812e-13
1.44672e-11
6.32337e-12
-6.14461e-12
7.15642e-12
-1.76902e-12
-1.00577e-12
-1.16881e-13
-4.20039e-14
-4.06724e-13
1.19381e-12
8.86499e-12
-3.79183e-12
8.33368e-13
2.7559e-12
6.8897e-12
-1.0354e-13
-1.2433e-12
1.99495e-11
2.48439e-12
-4.90652e-13
-3.10895e-13
-3.10805e-13
-2.66489e-12
5.80265e-13
-3.21427e-13
0
-1.07305e-13
-3.49427e-12
-8.07223e-12
-1.42504e-12
-5.09603e-12
-2.62745e-12
-4.98482e-12
1.23906e-12
-1.92615e-12
5.69208e-13
1.52886e-12
1.15343e-12
2.06809e-11
-3.12357e-12
-7.73256e-13
-8.78909e-14
-3.80982e-13
-2.11856e-11
-1.22521e-12
-1.92297e-11
5.03852e-13
-1.15305e-11
3.62978e-12
-2.62854e-13
-1.19452e-11
0
-1.60541e-12
-1.39e-12
5.92283e-13
4.23709e-12
-2.34493e-13
9.27593e-14
3.54115e-13
-1.14348e-13
-5.57467e-13
3.38257e-12
-1.01181e-12
-8.12771e-13
9.88348e-15
-2.60364e-14
-1.31135e-11
-5.88923e-12
4.35357e-13
1.49714e-12
-6.19865e-12
-4.21923e-12
0
-4.17928e-12
-1.34282e-13
2.99828e-12
1.53563e-11
-2.24471e-12
0
3.0516e-12
-4.32975e-12
-1.03292e-13
-5.84484e-13
0
-3.46446e-12
8.23794e-12
-1.72647e-12
-2.08158e-12
9.12303e-12
-1.97135e-14
-1.80793e-13
-1.91473e-13
-1.07386e-11
-4.22017e-13
7.47865e-13
-4.87716e-12
-1.24421e-14
-1.78061e-15
-1.88058e-12
4.16121e-12
-7.24567e-13
-2.63959e-13
-2.17446e-13
-3.59324e-13
-3.59254e-13
-1.06971e-12
-9.20519e-13
-3.19882e-12
2.77803e-12
-9.79915e-13
9.34315e-13
2.73119e-13
-8.95258e-14
2.25628e-13
-6.67873e-12
2.9031e-12
1.17845e-11
-6.66106e-13
-3.9072e-12
-1.34561e-12
4.28576e-12
8.49281e-12
1.86271e-11
0
-2.06477e-12
-1.54139e-12
-7.22348e-12
0
-2.33855e-13
1.83211e-11
-1.13894e-11
4.5145e-14
1.41549e-13
5.35387e-12
3.79077e-12
3.06268e-14
-3.92932e-12
-3.32074e-12
4.02791e-13
2.60283e-12
1.21718e-11
-5.29072e-12
-1.9293e-12
5.70883e-13
-4.35157e-13
3.41291e-12
4.40362e-12
1.16228e-12
1.03177e-12
-8.1281e-14
-2.49673e-13
4.53544e-12
4.39206e-13
1.59115e-13
3.0763e-14
8.36324e-12
-5.44102e-13
-3.15081e-13
3.31081e-12
1.46595e-12
-1.95863e-12
1.97856e-12
1.42252e-12
-1.42325e-12
-1.70063e-12
-3.91804e-13
-1.67506e-12
-2.00808e-12
2.10572e-12
4.52468e-12
1.44684e-12
-2.17865e-12
2.36548e-12
1.18261e-12
-2.32416e-12
-3.17422e-12
-1.96853e-12
-2.56253e-12
6.41508e-14
1.23616e-12
1.65284e-12
8.22787e-14
-1.95275e-11
-1.85832e-12
-3.00122e-12
-2.68535e-13
-1.05526e-12
-9.51728e-13
-2.81353e-12
2.51825e-12
5.40843e-12
-8.71282e-13
-9.72317e-13
8.95054e-12
7.14166e-13
-5.05287e-14
-2.91921e-11
1.46326e-13
-3.17764e-13
5.87839e-12
-2.12629e-12
4.8251e-12
1.05706e-13
-3.80205e-12
1.58839e-12
1.79983e-12
-6.84814e-13
1.05957e-11
1.49032e-11
3.32699e-12
4.57335e-14
2.24494e-12
5.76322e-13
-6.68253e-13
-9.10153e-14
1.74721e-12
-5.78988e-12
-2.32117e-13
0
0
-4.24269e-13
5.41473e-14
-1.21948e-12
-1.11411e-11
1.40955e-13
0
1.39135e-12
-2.29494e-12
-1.48997e-13
4.95813e-13
7.7397e-12
-4.307e-12
1.29448e-12
7.14131e-12
1.32168e-12
0
7.53368e-12
6.84678e-13
2.1237e-12
-1.13119e-11
1.95826e-12
-5.10986e-14
0
9.8289e-12
-2.46693e-12
-3.32548e-12
-5.9309e-12
7.85634e-13
-3.4009e-13
-2.25556e-11
-3.39476e-12
-1.9257e-12
2.35147e-12
2.70805e-12
4.84671e-12
-3.14636e-12
1.58351e-12
3.51573e-13
3.99824e-12
8.49314e-13
1.73348e-12
-2.30936e-14
-2.29869e-14
1.8867e-12
1.50725e-12
5.67844e-12
-1.65997e-12
-2.93328e-11
-3.02044e-11
1.44663e-12
2.14342e-12
-4.75342e-12
-8.61163e-16
-1.24784e-14
1.99034e-15
1.42666e-15
3.032e-12
-3.18018e-14
6.17195e-14
0
1.95243e-13
-1.49552e-13
-1.49393e-13
2.78711e-14
-2.95221e-13
1.4245e-12
-9.1549e-13
-7.75915e-13
-4.90071e-13
-3.32601e-11
1.53839e-12
1.50176e-13
-7.19392e-12
-1.06408e-12
-3.21192e-12
1.27164e-12
2.16114e-12
4.46937e-12
-8.20253e-13
2.96673e-13
-9.86916e-13
0
-4.69927e-12
-2.55027e-12
2.97753e-12
0
4.62152e-13
-1.25106e-12
-2.72062e-12
2.65278e-13
6.93719e-15
1.84113e-14
3.73502e-12
-5.43837e-12
3.5415e-12
-3.02223e-12
4.86079e-12
4.55345e-12
-1.22654e-12
-1.71336e-12
0
-1.27216e-11
1.69464e-14
-1.99672e-12
3.02094e-12
-6.56948e-15
1.55845e-12
-8.26909e-12
1.34241e-12
7.5779e-12
5.29108e-12
0
-1.65865e-11
-2.67536e-14
-1.51153e-14
-3.48249e-13
2.15548e-12
-3.87766e-13
-1.43734e-12
-7.15832e-12
-9.55775e-12
-1.1034e-11
-4.56189e-12
9.18573e-14
-2.87069e-12
1.58421e-11
7.35216e-12
-2.17453e-13
2.51781e-13
8.55456e-15
2.30803e-12
-2.021e-13
5.83122e-13
-8.7674e-12
-4.45107e-12
2.22546e-12
1.07198e-13
6.96395e-13
1.0293e-15
1.10666e-14
-5.33949e-12
-1.06075e-12
-4.40482e-12
-1.12568e-12
-4.40881e-13
7.1669e-13
2.94536e-11
-6.28593e-14
-1.13443e-13
0
-4.56052e-12
-7.25709e-12
5.41086e-13
4.09136e-13
8.54618e-14
5.85443e-12
4.42744e-12
-4.57209e-12
-1.38024e-11
-2.92874e-12
0
-1.98556e-12
-7.9496e-12
-8.35988e-13
3.95672e-12
2.43011e-12
1.63232e-12
1.84554e-12
5.1564e-15
1.84667e-12
1.29754e-13
-1.72223e-15
5.17191e-12
-8.86357e-13
-3.98402e-12
-2.00533e-14
-1.2488e-12
-1.41319e-13
1.00102e-11
1.80798e-12
-3.87497e-13
-5.98869e-13
-8.23799e-13
2.27036e-12
4.77605e-12
9.41351e-12
4.00986e-12
0
-6.00351e-12
2.12425e-12
-1.81301e-11
2.24495e-12
-7.84364e-12
2.30284e-13
-3.12449e-13
-5.00688e-12
3.60394e-12
-1.27118e-12
2.75196e-13
3.53938e-12
-1.59084e-12
-6.39861e-12
-2.51013e-15
-6.5237e-12
-1.25378e-12
3.04225e-13
6.04049e-13
2.47798e-12
-6.8558e-12
4.86669e-12
3.9444e-12
0
2.56192e-12
-9.50023e-13
1.9675e-13
0
4.25925e-12
-2.0802e-13
-3.83757e-12
-3.15145e-12
8.74102e-12
1.99645e-12
1.49655e-13
0
0
7.42578e-12
4.18222e-12
2.86254e-12
-1.91806e-12
-2.87391e-11
-1.12268e-14
0
2.65156e-12
-4.24401e-12
-1.21799e-12
-2.17488e-12
4.25845e-12
-1.73605e-11
2.13074e-14
-3.16804e-12
2.96495e-12
3.14547e-13
-3.81789e-13
-1.67298e-12
3.14676e-13
4.87048e-14
-9.32246e-12
5.2323e-12
2.51937e-13
2.81155e-12
6.81206e-13
1.74409e-12
-1.5386e-12
-4.68109e-12
-4.84353e-12
0
-6.03836e-12
2.73442e-12
9.00114e-13
-2.65144e-13
-4.99411e-13
-5.58243e-12
4.90752e-13
5.8593e-12
5.15164e-12
9.12094e-13
3.20789e-12
1.53756e-11
-1.5067e-12
-1.01186e-13
6.03195e-13
-1.85817e-12
-8.37496e-13
2.76602e-12
6.22522e-12
0
-4.31992e-13
3.76059e-13
2.50599e-12
-8.48619e-13
3.76532e-12
2.82973e-12
-2.65681e-12
-7.14743e-13
-1.77032e-13
-9.43364e-13
4.19503e-14
6.00083e-12
8.11019e-13
-6.31431e-13
-8.05253e-12
4.16235e-12
-3.88814e-12
-3.25598e-12
0
5.44039e-13
2.59128e-12
1.61154e-11
-8.25079e-12
-3.16119e-12
-8.55627e-15
-2.73255e-14
-8.79759e-13
2.80271e-12
-3.57524e-12
1.06867e-13
2.06556e-12
3.39934e-13
-4.39671e-11
1.61145e-12
-6.18511e-13
8.07875e-13
1.68818e-13
4.24291e-12
1.83849e-12
-1.11292e-12
1.721e-12
7.66781e-12
-2.7998e-14
-1.10702e-11
-3.53632e-14
-9.95257e-13
0
-6.284e-12
6.09338e-12
-8.14837e-13
1.52162e-12
-9.18308e-13
8.58462e-13
2.93012e-12
6.61355e-13
5.99817e-13
3.38999e-12
-5.95765e-12
1.5425e-12
-7.66106e-13
-1.93421e-14
-2.11763e-14
1.02557e-12
-1.883e-13
-2.84519e-12
8.50525e-13
3.79353e-12
2.31427e-12
1.10825e-11
1.58023e-12
-1.05127e-11
-2.69573e-12
2.68438e-13
2.77042e-11
9.2499e-13
3.30263e-12
0
-3.42511e-12
1.05359e-13
-5.51238e-13
2.59384e-12
-7.18377e-12
-3.71272e-13
-6.76766e-14
-4.832e-13
-3.08097e-12
-9.78105e-12
-8.82977e-12
-1.53312e-12
0
-8.37497e-14
-7.73762e-13
-3.48866e-14
-5.60007e-15
-1.41055e-12
5.26887e-12
-3.12064e-12
-1.05761e-12
0
-3.27928e-14
5.82675e-15
2.24158e-12
8.4415e-12
-1.38208e-13
0
-2.56988e-12
-5.11125e-13
-8.99688e-12
-3.27396e-12
-7.535e-13
-1.2861e-12
-8.18663e-13
-6.35645e-13
1.13313e-11
-1.88541e-13
7.97951e-14
8.32215e-14
-7.88669e-13
7.27061e-12
-6.54413e-12
-3.43921e-12
4.20789e-12
4.10558e-12
-2.91066e-12
-2.7429e-12
-1.14442e-11
7.88444e-14
1.87568e-13
0
-1.05038e-11
-1.49469e-13
3.06781e-12
1.13111e-12
-1.89746e-12
-1.00475e-12
-1.23939e-11
-4.14204e-12
-1.00356e-12
6.43998e-15
8.10863e-12
-1.28415e-13
-1.26088e-12
-1.52462e-11
-8.15361e-13
6.32683e-13
-1.05552e-12
-2.74176e-12
2.38569e-12
-3.91282e-13
1.09594e-13
8.66403e-12
-1.401e-13
6.22896e-12
0
-2.94391e-12
-2.03987e-12
5.23356e-13
3.03228e-12
-8.96525e-13
1.61464e-13
-1.61934e-11
-2.29482e-12
1.58148e-14
8.40492e-15
8.21382e-13
-1.31976e-14
-8.72307e-12
3.00554e-13
8.1258e-13
-1.43339e-12
2.31593e-13
1.3416e-12
-9.87331e-12
1.82976e-12
4.81721e-12
0
1.00479e-14
1.1222e-14
-9.66198e-14
4.31346e-12
5.51225e-12
1.45624e-13
-2.14636e-12
-4.45702e-12
-2.53103e-13
-3.56432e-13
-5.56232e-12
3.46019e-13
2.25135e-12
1.91645e-14
2.57479e-12
-5.65504e-12
-2.18729e-12
2.05576e-12
-4.31806e-12
-1.88319e-13
-2.70775e-12
1.2654e-12
1.54556e-11
6.49144e-12
3.80463e-12
-1.00114e-11
1.64886e-12
4.45489e-12
-4.87904e-12
2.16813e-13
-9.34263e-13
9.12072e-13
3.11008e-12
-5.26662e-13
1.38459e-12
3.20524e-12
2.02736e-12
-3.17844e-11
-1.08196e-11
8.68561e-12
3.07575e-15
9.98766e-15
5.58439e-12
3.61641e-12
-2.95559e-12
2.98493e-14
-8.06348e-12
4.81787e-13
3.59451e-12
-4.48603e-13
-1.57212e-12
3.54084e-14
-5.31449e-12
9.50556e-13
1.03658e-12
-5.45445e-14
-4.59253e-12
3.27744e-12
2.86803e-12
-3.93669e-12
-6.20905e-12
5.4327e-13
-3.69247e-12
-2.77821e-12
-1.62195e-13
1.39079e-12
4.19732e-12
-7.53127e-12
2.73082e-12
1.1346e-12
-4.36611e-12
6.99682e-13
-1.1377e-11
-1.73756e-12
1.1198e-12
-4.63135e-12
1.03643e-12
-4.1774e-13
-1.7236e-12
-9.4596e-12
1.77265e-12
-1.77492e-12
3.08146e-12
-8.89349e-12
2.76265e-13
-5.53194e-15
-1.87588e-13
-1.61022e-13
-4.78236e-13
-5.46202e-12
4.94491e-12
-2.26591e-12
3.10265e-13
-1.39523e-12
-7.78531e-14
-2.5986e-14
3.62332e-14
-1.06258e-12
-3.43526e-12
-7.79304e-12
-1.4129e-12
-1.93527e-12
-9.56762e-15
-5.9664e-15
-5.47526e-13
-1.68723e-12
-1.89895e-11
1.90663e-11
1.76308e-12
4.67672e-12
-1.58344e-13
-4.1835e-12
-2.88937e-11
2.60647e-12
9.44001e-12
-1.8198e-12
3.12098e-12
2.41246e-12
-4.81925e-12
9.0075e-13
-3.3213e-12
1.03814e-12
0
1.69385e-12
8.79459e-14
-2.74976e-12
4.16354e-12
-5.11925e-12
2.56309e-12
-4.83233e-13
7.07154e-13
-9.70834e-14
-9.09606e-14
6.58176e-12
-1.18226e-11
-5.1309e-14
5.13615e-14
1.01044e-11
2.42386e-12
5.48144e-14
1.87909e-12
-4.12331e-13
6.95864e-13
-3.09081e-13
4.75884e-12
2.37418e-11
1.29849e-12
8.9204e-13
1.81683e-12
3.31627e-12
2.66122e-12
3.84424e-12
-6.52879e-13
2.62814e-11
-1.74821e-11
-9.40004e-14
2.63815e-12
-7.21973e-12
2.60833e-11
-1.47542e-12
-2.66726e-12
1.45939e-12
-5.42272e-14
-5.40858e-14
1.4962e-11
-1.46578e-15
-1.04012e-13
-6.89687e-13
-3.02683e-13
-4.00258e-12
1.45389e-12
3.23376e-12
-1.00683e-12
-1.54965e-12
-4.78802e-13
3.54351e-13
-5.75186e-12
-3.70323e-12
-6.10675e-13
1.15099e-11
-8.26415e-12
3.20666e-14
1.56527e-12
2.092e-11
1.38969e-11
5.48371e-12
2.87907e-12
-2.05307e-13
1.55027e-13
-3.37106e-12
3.38289e-12
-4.7864e-12
9.50785e-12
8.60094e-12
-3.92052e-12
-3.33787e-12
-2.99119e-13
-6.35877e-13
-7.97519e-14
1.56117e-14
-3.59762e-12
-2.15211e-12
-5.25211e-12
-1.99989e-12
5.20945e-13
4.1888e-14
5.32812e-13
-1.515e-12
8.36958e-13
2.53589e-12
2.52157e-11
-1.79248e-12
1.91859e-11
3.39425e-13
-4.66961e-12
-8.41887e-14
-2.53384e-12
-3.46733e-12
4.86742e-14
2.983e-12
-7.61882e-13
1.86857e-13
-2.82788e-12
4.20553e-13
-9.54979e-13
-1.11867e-11
-1.40003e-12
8.6565e-13
3.03904e-13
-2.56339e-12
3.79304e-12
-5.10945e-12
-1.08125e-12
-5.26092e-12
7.00126e-12
-7.44072e-13
-3.53696e-12
-4.98883e-12
1.70998e-12
-1.25044e-11
0
1.64922e-12
4.16182e-12
-2.59241e-12
8.54287e-13
7.40729e-12
5.85985e-12
-5.17132e-12
5.6579e-12
8.53994e-13
-4.32905e-12
-7.37769e-12
-2.08178e-12
0
8.29368e-12
0
-1.66484e-12
-4.87471e-14
-1.38161e-13
-5.37844e-12
-5.86275e-14
-2.43881e-12
-1.66283e-12
1.49946e-12
0
0
-3.18162e-13
-3.34197e-13
-6.11751e-12
8.04657e-13
1.40694e-11
-2.14667e-13
2.66105e-12
2.35766e-12
3.52175e-13
3.20801e-13
-6.61851e-14
9.18927e-14
-2.70524e-12
1.01687e-12
0
-1.69402e-12
3.13255e-12
-1.1556e-12
0
2.7106e-14
1.80228e-14
3.79295e-13
-1.46273e-12
1.71943e-13
-1.78245e-13
-5.95354e-14
1.35173e-12
-3.53588e-12
1.33863e-12
-2.43974e-12
-9.22619e-13
-1.15507e-12
3.57098e-12
3.75179e-14
3.23822e-14
0
-2.94871e-12
1.16248e-12
3.06304e-12
0
2.62637e-12
1.58971e-12
8.43991e-13
1.40653e-12
9.23322e-12
1.95597e-11
-3.14781e-12
6.72779e-12
-5.56724e-13
-2.1247e-13
2.91866e-12
1.35729e-12
-1.34522e-12
0
-5.832e-12
-2.9661e-12
-6.68187e-12
2.23686e-12
-1.76824e-12
1.16805e-12
1.66492e-12
-2.3767e-12
5.0231e-12
-4.75613e-14
8.88772e-13
1.89783e-12
-4.48945e-12
4.15076e-12
-5.57833e-12
-1.80023e-12
1.75602e-12
0
4.93798e-12
-2.05029e-12
-2.26176e-13
-2.98151e-12
4.8315e-12
-2.1193e-13
2.41557e-12
-2.08115e-13
4.42454e-12
1.47227e-12
-3.72181e-13
3.29996e-12
4.45211e-16
-6.04871e-15
-2.37513e-12
-1.38137e-13
-2.89205e-11
1.19795e-12
-1.50813e-12
-3.37604e-13
-5.02008e-12
-4.67796e-13
-1.80908e-11
-4.74448e-12
-9.6003e-13
-8.23991e-13
-1.48997e-12
1.63712e-12
-3.22184e-13
-3.72477e-12
-6.81945e-13
-2.66339e-12
-2.74706e-12
2.08166e-12
5.43136e-13
-2.78731e-14
9.73981e-15
-3.3024e-13
-4.36803e-12
8.87205e-12
-5.47968e-12
-2.9933e-12
1.14728e-12
-3.78297e-14
1.87051e-13
1.15408e-11
-8.9121e-12
9.08759e-13
6.35062e-13
6.93246e-13
5.23596e-13
1.2088e-11
-1.13767e-11
-3.18509e-12
1.60688e-12
1.44617e-12
-5.19299e-13
7.94494e-13
3.92683e-12
9.27834e-13
-1.31476e-12
9.21336e-14
-3.56558e-12
3.3255e-12
3.17488e-12
1.48624e-12
-3.44321e-13
2.30766e-13
-3.24169e-12
2.6822e-12
-1.55322e-12
0
7.23235e-12
-5.63551e-13
-5.63668e-13
-3.07906e-12
-4.88111e-13
4.16417e-13
-1.54553e-13
2.53906e-13
4.63201e-12
-2.84897e-13
8.76788e-14
-1.6366e-12
9.46718e-13
-1.06499e-11
-2.33881e-12
-7.67258e-12
7.19317e-14
5.56459e-14
2.10984e-12
-7.63077e-12
0
2.53736e-12
3.43881e-12
5.45922e-14
1.3202e-12
2.55204e-12
3.88355e-12
-1.45373e-12
-1.90924e-12
-3.66191e-14
0
8.25418e-14
1.45053e-12
2.21411e-12
-3.11498e-11
3.86861e-12
4.86289e-12
-1.75783e-13
-1.71336e-13
9.6665e-14
1.34583e-12
-1.84323e-12
-4.00094e-13
2.33512e-12
-2.13335e-12
3.6345e-13
-2.58685e-13
-3.02213e-13
-2.99971e-13
-1.18974e-12
-4.39522e-15
6.27073e-15
7.5156e-12
-3.78661e-13
2.49043e-12
0
2.81623e-14
2.49199e-13
-1.99585e-12
-8.3613e-13
3.58488e-12
6.59485e-13
3.58599e-12
-1.5063e-13
-6.23447e-13
6.23425e-13
0
4.19011e-13
3.88353e-13
-2.1115e-12
-4.30073e-12
4.52124e-12
1.1055e-13
1.24678e-12
7.44807e-12
1.17631e-11
-2.21149e-12
-3.96478e-12
-2.51065e-12
2.51052e-12
-1.62145e-11
-1.51617e-12
8.88043e-13
1.02638e-12
-8.81857e-12
-2.03649e-11
7.05207e-12
-6.13823e-12
5.78677e-12
2.07435e-12
5.16481e-13
1.27103e-14
-3.05133e-13
0
-1.08797e-11
-6.72621e-13
2.23121e-12
-4.13386e-14
-2.23888e-12
1.39058e-12
-4.00701e-11
-3.28369e-12
1.13052e-12
-7.16887e-13
-4.06799e-12
-2.29553e-12
2.26546e-12
2.62129e-13
-3.01543e-13
1.93343e-12
-7.24925e-13
7.6656e-14
2.20728e-13
1.90876e-12
1.00349e-12
-2.72272e-12
-1.00867e-12
-1.3756e-12
-5.17438e-13
-4.27846e-13
-1.29471e-12
-3.76606e-12
-6.16455e-12
4.24465e-12
-8.29632e-14
-8.04166e-14
-4.97975e-13
1.2426e-12
-1.27651e-11
1.7334e-11
0
7.40524e-13
-7.40444e-13
4.00544e-12
1.23343e-12
-1.48895e-11
-3.54829e-13
-2.93514e-12
-1.52703e-11
1.06967e-11
6.98119e-15
2.44925e-12
-8.23235e-12
-5.9405e-12
7.38505e-12
-5.30876e-15
1.02685e-13
1.86178e-12
2.69853e-12
1.02727e-12
0
-1.78818e-12
-8.81457e-13
2.19099e-12
7.30143e-14
1.90802e-13
-3.01076e-12
-1.12838e-13
-1.98486e-13
-6.96533e-13
-3.04431e-12
1.65805e-12
9.27871e-12
3.57797e-13
-1.457e-12
2.53448e-12
6.14399e-12
-6.35661e-12
-1.21113e-12
-1.58939e-12
-1.58935e-12
-2.91347e-14
5.08605e-14
3.02502e-12
-4.20751e-13
1.09398e-12
-4.37174e-13
2.08511e-13
2.80104e-13
8.04125e-13
8.21601e-14
-5.865e-12
-3.33815e-11
-1.94438e-11
2.31597e-12
1.01521e-11
-1.54971e-12
-9.99517e-12
-7.73991e-12
-2.39581e-12
-6.45043e-12
5.60469e-13
5.606e-13
2.39406e-11
0
-2.97685e-12
-1.76009e-12
-2.96131e-12
-3.15097e-12
7.56142e-14
-8.94629e-13
-3.15847e-13
-1.21905e-12
-1.59778e-12
-1.94763e-12
-4.78752e-12
-4.73353e-13
5.2701e-13
-1.34288e-12
-9.55435e-13
6.42225e-13
2.72789e-13
1.9598e-13
8.65418e-14
-2.58746e-11
2.7602e-13
-8.91876e-14
1.4904e-12
1.68194e-13
-2.24149e-13
-5.52079e-13
-1.13692e-12
-2.60237e-12
0
6.03311e-12
-8.73091e-12
-2.20322e-13
-5.34584e-13
4.20737e-12
-5.00748e-12
-2.87264e-12
1.11911e-11
-6.36021e-15
-7.38933e-13
-2.7373e-12
1.97035e-12
1.90515e-12
6.64966e-13
9.92418e-15
-1.70352e-12
-2.3791e-14
1.40121e-12
3.23087e-12
-1.40194e-12
9.04754e-13
-1.1376e-12
0
5.11961e-12
-3.43974e-12
-1.07746e-13
-4.91574e-13
3.41399e-12
-8.60862e-12
-2.77612e-13
1.38032e-12
-6.67347e-14
-1.18314e-14
-3.32207e-14
1.22889e-12
-2.36115e-12
6.35253e-14
-1.74437e-12
-3.69624e-12
-2.75032e-12
1.15722e-11
9.23651e-13
2.80492e-11
-3.03763e-12
-3.29301e-13
1.1082e-11
1.47406e-12
4.53152e-13
2.02098e-12
-5.97166e-13
4.89217e-14
-1.80213e-13
-3.77994e-12
7.52887e-14
-5.02383e-12
-4.30153e-13
1.09829e-12
-1.02766e-11
6.08301e-12
8.31112e-12
-1.11006e-13
-7.38081e-14
-9.06843e-13
2.18554e-12
-6.17147e-13
-1.18615e-12
7.082e-12
-1.42789e-12
-3.14736e-13
1.8086e-12
-6.22092e-12
-1.90818e-13
-3.28137e-13
1.32001e-14
4.11389e-13
-5.57919e-12
-1.39866e-12
4.47853e-13
-1.43022e-12
-2.75685e-12
1.5599e-11
1.3218e-14
3.70275e-14
-2.4663e-11
-1.64013e-13
-2.76327e-12
-1.54064e-12
-2.11048e-12
0
-4.96499e-12
-5.39837e-12
2.53665e-12
2.53675e-12
-8.34713e-14
0
-1.60786e-13
-2.53344e-11
-7.80367e-13
-2.93034e-12
-1.64391e-11
2.84451e-11
2.88878e-14
9.04869e-13
2.21591e-12
-1.67934e-12
1.98611e-12
-1.17955e-13
-4.69841e-14
-8.50883e-13
-3.51715e-12
2.78844e-14
-9.5541e-12
-2.99387e-12
1.74632e-13
-9.03218e-13
2.44928e-12
0
-1.41543e-12
7.41565e-12
-1.85572e-13
2.20782e-12
0
-1.32015e-11
-3.42598e-13
3.2686e-12
9.59175e-13
5.49427e-13
3.09686e-12
-2.22408e-12
-2.94685e-13
-2.67949e-13
1.82277e-12
-2.2238e-11
9.76852e-12
0
-2.26939e-12
-8.23982e-13
-2.05524e-12
9.74191e-12
3.28195e-13
-1.36173e-12
5.19712e-12
-4.0039e-15
-9.55248e-15
-1.41863e-12
5.01905e-12
3.49495e-12
6.52618e-13
-7.88442e-12
4.29531e-13
-1.13432e-12
2.94594e-12
3.54627e-12
-4.8693e-13
-6.13662e-12
3.09526e-12
1.86081e-12
0
1.46008e-12
-6.87482e-12
-2.52889e-13
-3.32301e-12
-2.838e-12
7.86485e-12
8.10741e-12
8.47104e-13
-5.81717e-12
1.87423e-12
9.04019e-13
2.29264e-13
1.0229e-12
-4.81346e-13
-5.38681e-14
-5.65849e-12
0
-1.13622e-12
1.32499e-11
-1.24165e-11
-1.8899e-12
1.14428e-12
6.35109e-12
-8.80324e-13
-9.01888e-13
0
0
-1.49436e-12
2.76042e-12
3.91418e-12
-6.84383e-12
3.10756e-12
-6.43281e-14
5.11199e-12
-5.4515e-13
3.29689e-13
1.136e-12
3.83455e-12
3.91564e-12
3.9161e-12
8.17184e-13
3.24642e-12
-2.96802e-12
-3.78864e-13
3.85186e-12
1.56355e-12
5.25738e-12
7.55187e-12
-5.57901e-12
-5.34377e-12
-3.34391e-12
-2.86934e-12
-4.46288e-12
-6.30376e-13
1.67092e-13
4.54584e-12
1.03799e-12
0
-3.41039e-12
-2.64824e-12
-3.96179e-12
-2.84161e-12
-7.12049e-12
-1.36877e-12
-3.18249e-12
4.59541e-12
4.30346e-13
-8.2981e-13
0
-2.35837e-12
-2.49271e-14
-5.38553e-12
8.12178e-14
1.81306e-12
-4.92594e-12
-6.16319e-12
-2.10763e-12
5.8662e-13
0
8.48039e-13
1.88054e-12
-9.04273e-13
-3.48312e-13
3.54769e-15
5.36645e-14
4.30112e-13
5.70616e-13
-8.43758e-13
1.81835e-11
9.2005e-13
7.81804e-13
-1.18673e-12
1.92962e-11
-5.20007e-12
-6.95808e-13
2.44314e-14
-1.43486e-14
-8.58894e-12
1.10287e-11
-1.95577e-12
-1.60667e-14
3.18546e-14
-2.04325e-13
1.04518e-13
-4.10432e-12
-2.54549e-13
1.49758e-12
-3.2195e-13
2.7668e-13
-2.37827e-12
3.22682e-14
-2.80113e-14
-2.30016e-12
-3.0866e-12
1.77668e-12
8.69252e-12
-1.57553e-13
-1.79399e-12
-3.14072e-12
0
2.77794e-12
5.7885e-13
-1.09246e-11
-7.45797e-13
2.98545e-12
3.57569e-12
-1.06406e-11
-4.86569e-13
-2.22505e-12
-3.0715e-12
-1.17489e-12
-2.28677e-12
-1.61091e-12
-1.59721e-11
-1.7334e-12
-3.73242e-12
1.33846e-11
-5.56183e-12
-1.37064e-12
8.0848e-15
-2.09185e-15
2.48759e-16
-6.01151e-12
-2.96746e-14
-3.01598e-14
1.54712e-13
0
0
-3.23581e-11
-2.34503e-12
-4.30936e-12
0
-1.04627e-11
1.24687e-11
-2.99653e-12
4.84297e-13
-1.32235e-11
-1.6325e-12
1.09424e-12
7.13281e-13
-6.7929e-12
1.67934e-12
1.23713e-11
-1.24608e-11
-1.25569e-12
-2.45257e-12
2.608e-13
1.0122e-13
1.16457e-12
-1.4814e-11
-1.76508e-11
0
-2.26493e-13
8.03278e-13
2.34955e-12
9.73574e-13
-8.2144e-12
-5.74026e-13
6.78317e-12
1.67096e-14
-6.27913e-12
-1.11859e-12
-1.21161e-12
3.25399e-12
5.60032e-12
-2.9842e-13
-5.85653e-12
7.44847e-12
4.73903e-13
-3.85079e-13
3.90732e-12
-3.07238e-12
1.53209e-12
-1.14431e-12
0
-1.71745e-14
1.26686e-12
-9.46835e-13
-3.66012e-12
8.56784e-13
-1.7315e-12
-8.97723e-13
7.92813e-13
3.54715e-13
-4.5794e-12
5.76503e-13
6.79862e-12
-1.73769e-12
-8.75618e-13
-5.35854e-12
-6.14021e-13
1.56686e-13
3.1267e-12
2.86647e-12
-1.61791e-13
8.33404e-15
1.21893e-14
-1.91161e-12
-6.18306e-12
-6.75877e-12
3.66179e-12
3.1588e-12
7.45493e-14
-1.19795e-13
0
2.46e-12
6.4497e-13
-2.64357e-12
2.99834e-12
2.00431e-11
-2.58108e-12
-1.07544e-12
-3.30262e-12
-1.98947e-11
3.8763e-12
3.38005e-12
-3.41547e-13
6.61761e-14
-4.45409e-14
3.51837e-12
1.69645e-12
1.58703e-13
-2.6782e-12
-1.09174e-12
4.03251e-12
-1.47658e-12
-3.75726e-12
3.18244e-13
6.03487e-14
-8.27832e-14
-1.65447e-13
0
-3.89616e-12
2.30388e-14
2.76034e-14
-4.00663e-12
-2.1943e-12
0
0
3.94339e-13
-4.75484e-12
-6.68211e-12
-1.53236e-12
9.08725e-13
9.08695e-13
-1.81379e-12
1.02427e-12
1.20103e-12
-2.22301e-12
-1.86145e-11
-6.60383e-13
1.39683e-12
-2.0536e-12
2.371e-12
-1.50663e-12
2.83291e-14
5.53684e-15
-1.19436e-11
7.96102e-12
-1.84306e-12
-9.05283e-13
9.29139e-12
4.60325e-12
1.3407e-12
2.56569e-12
-3.07923e-12
7.47755e-13
2.20296e-12
1.49492e-12
1.39337e-11
-3.45e-12
-1.33891e-11
-4.85021e-12
-3.93253e-13
-1.51804e-12
8.33471e-12
-2.85612e-12
1.74483e-12
-1.20797e-12
1.47416e-13
1.63478e-12
3.93033e-12
-3.9848e-12
1.70991e-11
1.13031e-12
1.22278e-12
-3.68807e-12
3.15546e-13
-2.98992e-12
-3.72849e-12
-4.32895e-12
-6.60287e-13
5.40014e-12
1.41719e-11
-2.3007e-12
-2.13074e-12
-2.60333e-14
7.0619e-15
4.86383e-15
-8.55287e-14
2.31209e-13
-1.49499e-12
-1.29456e-13
-3.68108e-12
-5.58769e-11
2.3879e-13
1.50537e-12
-1.93268e-12
8.98399e-12
2.47903e-13
1.26013e-13
-2.6381e-14
-6.10059e-12
-7.9001e-12
6.10214e-12
-8.38494e-12
4.07149e-13
-1.03557e-11
-2.19799e-12
-2.35436e-12
1.13214e-12
1.56796e-12
1.82865e-12
-2.07356e-12
3.21447e-14
3.27198e-14
-6.39252e-12
-1.78465e-13
5.89791e-13
-2.34001e-12
3.09555e-12
-2.97994e-13
2.82536e-12
2.79789e-12
0
2.96613e-12
-1.61077e-12
9.12448e-14
4.32638e-12
0
-1.52954e-12
7.42864e-12
1.83106e-12
-5.0159e-12
2.90837e-12
3.5353e-12
2.51288e-12
-8.05314e-13
3.57473e-12
1.33353e-13
-3.45756e-14
1.59148e-12
-2.51283e-12
-3.37599e-14
1.64415e-14
3.00524e-12
8.49609e-14
-2.01003e-13
9.23151e-13
2.58494e-12
2.43173e-13
-6.96297e-14
5.17224e-13
-2.17226e-12
1.75831e-12
9.28414e-13
-4.54168e-13
2.10449e-12
-1.12072e-12
-6.70223e-12
-2.1767e-12
7.67952e-12
-9.72774e-13
-2.68185e-12
0
3.27874e-14
3.14512e-12
7.41324e-12
4.32846e-12
5.94758e-12
4.14403e-12
-5.65611e-12
1.10598e-11
-1.27379e-11
-1.00902e-12
-1.14069e-12
1.24229e-13
8.98063e-13
5.2768e-13
-1.02914e-11
-7.31262e-13
1.04183e-12
8.52258e-13
-1.1567e-12
3.80496e-12
1.70569e-11
8.42642e-14
1.07285e-13
7.04392e-13
-7.25855e-13
9.98541e-14
8.89487e-14
3.60344e-12
5.93968e-13
-1.04012e-12
-9.30482e-14
-6.6423e-12
-2.09594e-12
4.45692e-12
-2.23745e-12
9.43363e-14
-1.32365e-11
-6.01194e-13
-1.69635e-12
2.08115e-12
-8.65234e-13
-1.91768e-11
1.87912e-13
-3.44535e-12
-7.36395e-14
-3.17744e-12
3.75077e-12
0
-3.67711e-12
-5.80374e-12
2.07009e-12
8.69277e-12
1.36899e-12
0
-3.3378e-12
2.94781e-12
-8.50982e-12
-4.26737e-12
-1.43323e-13
-1.30119e-11
-3.93851e-12
2.37496e-12
7.47671e-13
-4.01674e-14
-4.44808e-14
-1.8598e-12
-6.69428e-13
-9.62301e-13
-4.75372e-13
-1.10494e-12
-2.43065e-12
-1.54572e-12
1.58756e-12
3.83658e-12
0
1.53669e-14
-1.89986e-11
-2.00902e-13
1.68257e-12
-2.41862e-12
-8.31234e-12
3.69133e-13
4.91076e-14
5.16063e-12
-7.47821e-13
6.09012e-12
3.63287e-12
-2.77955e-12
3.05555e-13
7.5132e-13
1.74468e-12
-3.97392e-13
2.03854e-12
9.75181e-13
1.60339e-12
3.24413e-12
-7.64919e-13
1.7139e-12
2.35627e-13
5.73977e-13
2.70279e-12
-1.77263e-14
9.96947e-12
-3.43119e-13
1.07941e-12
2.89264e-14
2.64828e-14
3.64234e-12
7.44753e-13
-6.06916e-13
-2.62641e-13
-1.02487e-13
1.5008e-14
2.92342e-12
1.10879e-13
3.2605e-14
5.68171e-12
-6.88935e-12
-8.87792e-13
-4.68425e-12
0
2.26552e-13
-2.77148e-12
2.28098e-12
-8.91772e-13
-4.65641e-13
3.33434e-13
7.08152e-14
-6.5382e-12
4.29685e-11
-3.03176e-12
-5.03746e-12
-4.74219e-12
-5.92575e-12
-4.55788e-12
8.92513e-12
-1.75067e-12
-1.56462e-12
-3.29007e-14
2.19018e-14
2.21388e-12
-1.94865e-13
-2.4547e-12
-4.89586e-12
5.27517e-13
-6.40702e-13
1.36616e-12
-1.44068e-12
9.13328e-13
1.24671e-12
3.34444e-13
2.75957e-12
-3.13358e-12
4.95659e-12
-7.10141e-12
1.31382e-12
-9.99968e-12
5.06267e-12
-2.47432e-12
-4.43831e-12
-1.02813e-12
1.53834e-12
-1.75418e-12
6.74024e-13
-1.51177e-11
3.35681e-12
5.80854e-14
-3.1554e-13
-1.48586e-13
1.45328e-13
-1.44513e-11
1.27399e-12
-2.08086e-12
-3.84709e-12
-1.4793e-11
3.80905e-12
-1.78012e-12
-2.58808e-12
-2.77921e-12
-1.57422e-12
0
-5.98699e-12
-8.83433e-12
0
7.10661e-12
2.65618e-12
4.04381e-12
-8.40191e-12
1.29859e-12
1.25444e-11
4.77683e-14
4.56035e-11
1.25384e-13
6.24258e-14
2.31448e-12
-1.04151e-11
-1.00309e-12
-2.39993e-12
2.29177e-12
-2.17876e-12
-4.5336e-13
1.29089e-13
-4.0037e-12
9.46285e-13
8.56501e-12
-2.75703e-12
-5.92863e-12
-3.36615e-12
6.5433e-12
6.34425e-13
4.85622e-12
-7.6565e-12
1.05052e-12
3.81783e-13
1.15596e-13
4.56004e-14
-3.11252e-12
-1.21773e-12
0
-4.70408e-13
1.02258e-13
1.02083e-13
-1.66263e-13
-1.66323e-13
-6.06717e-14
-5.59384e-12
9.23963e-13