0 	31.9309 	-2.73755e-07 	1.55582e-18
0.000254254 	31.9367 	-2.74086e-07 	3.59175e-15
0.000508509 	31.9424 	-2.74086e-07 	3.59175e-15
0.000762763 	31.9482 	-2.74086e-07 	3.59175e-15
0.00101702 	31.954 	-2.74086e-07 	3.59175e-15
0.00127127 	31.9598 	-2.74086e-07 	3.59175e-15
0.00152553 	31.9655 	-2.74086e-07 	3.59175e-15
0.00177978 	31.9713 	-2.74086e-07 	3.59175e-15
0.00203403 	31.9771 	-2.74086e-07 	3.59175e-15
0.00228829 	31.9829 	-2.74086e-07 	3.59174e-15
0.00254254 	31.9887 	-2.74086e-07 	3.59174e-15
0.0027968 	32.0021 	-2.79529e-07 	3.59391e-15
0.00305105 	32.0163 	-2.79529e-07 	3.59391e-15
0.00330531 	32.0305 	-2.79529e-07 	3.59391e-15
0.00355956 	32.0447 	-2.79529e-07 	3.59391e-15
0.00381381 	32.0589 	-2.79529e-07 	3.59391e-15
0.00406807 	32.0732 	-2.79529e-07 	3.59391e-15
0.00432232 	32.0874 	-2.79529e-07 	3.5939e-15
0.00457658 	32.1016 	-2.79529e-07 	3.5939e-15
0.00483083 	32.1158 	-2.79529e-07 	3.5939e-15
0.00508509 	32.13 	-2.79529e-07 	3.5939e-15
0.00533934 	32.1467 	-3.02904e-07 	3.63925e-15
0.00559359 	32.164 	-3.02904e-07 	3.63924e-15
0.00584785 	32.1813 	-3.02904e-07 	3.63924e-15
0.0061021 	32.1986 	-3.02904e-07 	3.63924e-15
0.00635636 	32.2159 	-3.02904e-07 	3.63924e-15
0.00661061 	32.2332 	-3.02904e-07 	3.63924e-15
0.00686486 	32.2505 	-3.02904e-07 	3.63924e-15
0.00711912 	32.2678 	-3.02904e-07 	3.63924e-15
0.00737337 	32.2851 	-3.02904e-07 	3.63924e-15
0.00762763 	32.3024 	-3.02904e-07 	3.63924e-15
0.00788188 	32.3205 	-3.43299e-07 	3.6496e-15
0.00813614 	32.3388 	-3.43299e-07 	3.6496e-15
0.00839039 	32.3572 	-3.43299e-07 	3.6496e-15
0.00864464 	32.3755 	-3.43299e-07 	3.6496e-15
0.0088989 	32.3938 	-3.43299e-07 	3.6496e-15
0.00915315 	32.4121 	-3.43299e-07 	3.6496e-15
0.00940741 	32.4305 	-3.43299e-07 	3.6496e-15
0.00966166 	32.4488 	-3.43299e-07 	3.64959e-15
0.00991592 	32.4671 	-3.43299e-07 	3.64959e-15
0.0101702 	32.4855 	-3.43299e-07 	3.64959e-15
0.0104244 	32.505 	-3.96851e-07 	3.70521e-15
0.0106787 	32.5251 	-3.96851e-07 	3.70521e-15
0.0109329 	32.5453 	-3.96851e-07 	3.70521e-15
0.0111872 	32.5655 	-3.96851e-07 	3.70521e-15
0.0114414 	32.5856 	-3.96851e-07 	3.7052e-15
0.0116957 	32.6058 	-3.96851e-07 	3.7052e-15
0.0119499 	32.626 	-3.96851e-07 	3.7052e-15
0.0122042 	32.6461 	-3.96851e-07 	3.7052e-15
0.0124585 	32.6663 	-3.96851e-07 	3.7052e-15
0.0127127 	32.6865 	-3.96851e-07 	3.7052e-15
0.012967 	32.7082 	-4.60089e-07 	3.76474e-15
0.0132212 	32.7313 	-4.60089e-07 	3.76474e-15
0.0134755 	32.7544 	-4.60089e-07 	3.76474e-15
0.0137297 	32.7775 	-4.60089e-07 	3.76473e-15
0.013984 	32.8006 	-4.60089e-07 	3.76473e-15
0.0142382 	32.8237 	-4.60089e-07 	3.76473e-15
0.0144925 	32.8468 	-4.60089e-07 	3.76473e-15
0.0147467 	32.8699 	-4.60089e-07 	3.76473e-15
0.015001 	32.893 	-4.60089e-07 	3.76473e-15
0.0152553 	32.9161 	-4.60089e-07 	3.76473e-15
0.0155095 	32.9408 	-5.30384e-07 	3.78415e-15
0.0157638 	32.9675 	-5.30384e-07 	3.78415e-15
0.016018 	32.9942 	-5.30384e-07 	3.78415e-15
0.0162723 	33.0209 	-5.30384e-07 	3.78414e-15
0.0165265 	33.0476 	-5.30384e-07 	3.78414e-15
0.0167808 	33.0744 	-5.30384e-07 	3.78414e-15
0.017035 	33.1011 	-5.30384e-07 	3.78414e-15
0.0172893 	33.1278 	-5.30384e-07 	3.78414e-15
0.0175435 	33.1545 	-5.30384e-07 	3.78414e-15
0.0177978 	33.1812 	-5.30384e-07 	3.78413e-15
0.0180521 	33.2094 	-6.05901e-07 	3.81341e-15
0.0183063 	33.2401 	-6.05901e-07 	3.81341e-15
0.0185606 	33.2708 	-6.05901e-07 	3.81341e-15
0.0188148 	33.3015 	-6.05901e-07 	3.81341e-15
0.0190691 	33.3322 	-6.05901e-07 	3.81341e-15
0.0193233 	33.3629 	-6.05901e-07 	3.8134e-15
0.0195776 	33.3936 	-6.05901e-07 	3.8134e-15
0.0198318 	33.4243 	-6.05901e-07 	3.8134e-15
0.0200861 	33.455 	-6.05901e-07 	3.8134e-15
0.0203403 	33.4857 	-6.05901e-07 	3.8134e-15
0.0205946 	33.5175 	-6.85482e-07 	3.84851e-15
0.0208488 	33.5524 	-6.85482e-07 	3.84851e-15
0.0211031 	33.5874 	-6.85482e-07 	3.84851e-15
0.0213574 	33.6223 	-6.85482e-07 	3.8485e-15
0.0216116 	33.6572 	-6.85482e-07 	3.8485e-15
0.0218659 	33.6921 	-6.85482e-07 	3.8485e-15
0.0221201 	33.7271 	-6.85482e-07 	3.8485e-15
0.0223744 	33.762 	-6.85482e-07 	3.84849e-15
0.0226286 	33.7969 	-6.85482e-07 	3.84849e-15
0.0228829 	33.8319 	-6.85482e-07 	3.84849e-15
0.0231371 	33.8676 	-7.68459e-07 	3.88844e-15
0.0233914 	33.9069 	-7.68459e-07 	3.88843e-15
0.0236456 	33.9463 	-7.68459e-07 	3.88843e-15
0.0238999 	33.9856 	-7.68459e-07 	3.88843e-15
0.0241542 	34.025 	-7.68459e-07 	3.88843e-15
0.0244084 	34.0643 	-7.68459e-07 	3.88842e-15
0.0246627 	34.1036 	-7.68459e-07 	3.88842e-15
0.0249169 	34.143 	-7.68459e-07 	3.88842e-15
0.0251712 	34.1823 	-7.68459e-07 	3.88842e-15
0.0254254 	34.2217 	-7.68459e-07 	3.88841e-15
0.0256797 	34.2614 	-8.54286e-07 	3.93356e-15
0.0259339 	34.3054 	-8.54286e-07 	3.93356e-15
0.0261882 	34.3493 	-8.54286e-07 	3.93355e-15
0.0264424 	34.3932 	-8.54286e-07 	3.93355e-15
0.0266967 	34.4372 	-8.54286e-07 	3.93355e-15
0.026951 	34.4811 	-8.54286e-07 	3.93354e-15
0.0272052 	34.5251 	-8.54286e-07 	3.93354e-15
0.0274595 	34.569 	-8.54286e-07 	3.93354e-15
0.0277137 	34.6129 	-8.54286e-07 	3.93354e-15
0.027968 	34.6569 	-8.54286e-07 	3.93353e-15
0.0282222 	34.7008 	-9.92566e-07 	-1.02994e-19
0.0284765 	34.7495 	-9.4162e-07 	3.98425e-15
0.0287307 	34.7982 	-9.4162e-07 	3.98424e-15
0.028985 	34.8469 	-9.4162e-07 	3.98424e-15
0.0292392 	34.8957 	-9.4162e-07 	3.98424e-15
0.0294935 	34.9444 	-9.4162e-07 	3.98423e-15
0.0297477 	34.9931 	-9.4162e-07 	3.98423e-15
0.030002 	35.0418 	-9.4162e-07 	3.98423e-15
0.0302563 	35.0905 	-9.4162e-07 	3.98423e-15
0.0305105 	35.1392 	-9.4162e-07 	3.98422e-15
0.0307648 	35.1879 	-9.4162e-07 	3.98422e-15
0.031019 	35.2411 	-1.02841e-06 	4.08496e-15
0.0312733 	35.2948 	-1.02841e-06 	4.08496e-15
0.0315275 	35.3485 	-1.02841e-06 	4.08496e-15
0.0317818 	35.4022 	-1.02841e-06 	4.08495e-15
0.032036 	35.4558 	-1.02841e-06 	4.08495e-15
0.0322903 	35.5095 	-1.02841e-06 	4.08495e-15
0.0325445 	35.5632 	-1.02841e-06 	4.08494e-15
0.0327988 	35.6168 	-1.02841e-06 	4.08494e-15
0.0330531 	35.6705 	-1.02841e-06 	4.08494e-15
0.0333073 	35.7242 	-1.02841e-06 	4.08493e-15
0.0335616 	35.782 	-1.11667e-06 	4.10106e-15
0.0338158 	35.8409 	-1.11667e-06 	4.10106e-15
0.0340701 	35.8997 	-1.11667e-06 	4.10106e-15
0.0343243 	35.9585 	-1.11667e-06 	4.10105e-15
0.0345786 	36.0173 	-1.11667e-06 	4.10105e-15
0.0348328 	36.0761 	-1.11667e-06 	4.10104e-15
0.0350871 	36.1349 	-1.11667e-06 	4.10104e-15
0.0353413 	36.1937 	-1.11667e-06 	4.10104e-15
0.0355956 	36.2525 	-1.11667e-06 	4.10103e-15
0.0358498 	36.3113 	-1.11667e-06 	4.10103e-15
0.0361041 	36.374 	-1.20749e-06 	4.22609e-15
0.0363584 	36.4382 	-1.20749e-06 	4.22609e-15
0.0366126 	36.5023 	-1.20749e-06 	4.22608e-15
0.0368669 	36.5665 	-1.20749e-06 	4.22608e-15
0.0371211 	36.6306 	-1.20749e-06 	4.22608e-15
0.0373754 	36.6948 	-1.20749e-06 	4.22607e-15
0.0376296 	36.759 	-1.20749e-06 	4.22607e-15
0.0378839 	36.8231 	-1.20749e-06 	4.22606e-15
0.0381381 	36.8873 	-1.20749e-06 	4.22606e-15
0.0383924 	36.9514 	-1.20749e-06 	4.22606e-15
0.0386466 	37.0191 	-1.3027e-06 	4.33576e-15
0.0389009 	37.0888 	-1.3027e-06 	4.33575e-15
0.0391552 	37.1585 	-1.3027e-06 	4.33575e-15
0.0394094 	37.2282 	-1.3027e-06 	4.33574e-15
0.0396637 	37.2979 	-1.3027e-06 	4.33574e-15
0.0399179 	37.3676 	-1.3027e-06 	4.33573e-15
0.0401722 	37.4373 	-1.3027e-06 	4.33573e-15
0.0404264 	37.507 	-1.3027e-06 	4.33573e-15
0.0406807 	37.5767 	-1.3027e-06 	4.33572e-15
0.0409349 	37.6464 	-1.3027e-06 	4.33572e-15
0.0411892 	37.7192 	-1.4017e-06 	4.46916e-15
0.0414434 	37.7946 	-1.4017e-06 	4.46916e-15
0.0416977 	37.8701 	-1.4017e-06 	4.46915e-15
0.041952 	37.9456 	-1.4017e-06 	4.46915e-15
0.0422062 	38.021 	-1.4017e-06 	4.46914e-15
0.0424605 	38.0965 	-1.4017e-06 	4.46914e-15
0.0427147 	38.1719 	-1.4017e-06 	4.46913e-15
0.042969 	38.2474 	-1.4017e-06 	4.46913e-15
0.0432232 	38.3228 	-1.4017e-06 	4.46912e-15
0.0434775 	38.3983 	-1.4017e-06 	4.46912e-15
0.0437317 	38.4765 	-1.50415e-06 	4.55585e-15
0.043986 	38.5579 	-1.50415e-06 	4.55584e-15
0.0442402 	38.6394 	-1.50415e-06 	4.55584e-15
0.0444945 	38.7208 	-1.50415e-06 	4.55583e-15
0.0447487 	38.8023 	-1.50415e-06 	4.55583e-15
0.045003 	38.8837 	-1.50415e-06 	4.55582e-15
0.0452573 	38.9652 	-1.50415e-06 	4.55582e-15
0.0455115 	39.0466 	-1.50415e-06 	4.55581e-15
0.0457658 	39.128 	-1.50415e-06 	4.5558e-15
0.04602 	39.2095 	-1.50415e-06 	4.5558e-15
0.0462743 	39.2932 	-1.60991e-06 	4.59956e-15
0.0465285 	39.3809 	-1.60991e-06 	4.59955e-15
0.0467828 	39.4685 	-1.60991e-06 	4.59955e-15
0.047037 	39.5562 	-1.60991e-06 	4.59954e-15
0.0472913 	39.6439 	-1.60991e-06 	4.59954e-15
0.0475455 	39.7316 	-1.60991e-06 	4.59953e-15
0.0477998 	39.8192 	-1.60991e-06 	4.59953e-15
0.0480541 	39.9069 	-1.60991e-06 	4.59952e-15
0.0483083 	39.9946 	-1.60991e-06 	4.59952e-15
0.0485626 	40.0822 	-1.60991e-06 	4.59951e-15
0.0488168 	40.1717 	-1.71885e-06 	4.66721e-15
0.0490711 	40.2658 	-1.71885e-06 	4.6672e-15
0.0493253 	40.36 	-1.71885e-06 	4.6672e-15
0.0495796 	40.4541 	-1.71885e-06 	4.66719e-15
0.0498338 	40.5483 	-1.71885e-06 	4.66718e-15
0.0500881 	40.6424 	-1.71885e-06 	4.66718e-15
0.0503423 	40.7365 	-1.71885e-06 	4.66717e-15
0.0505966 	40.8307 	-1.71885e-06 	4.66717e-15
0.0508509 	40.9248 	-1.71885e-06 	4.66716e-15
0.0511051 	41.019 	-1.71885e-06 	4.66715e-15
0.0513594 	41.1143 	-1.83067e-06 	4.7772e-15
0.0516136 	41.2152 	-1.83067e-06 	4.7772e-15
0.0518679 	41.3161 	-1.83067e-06 	4.77719e-15
0.0521221 	41.4169 	-1.83067e-06 	4.77718e-15
0.0523764 	41.5178 	-1.83067e-06 	4.77718e-15
0.0526306 	41.6187 	-1.83067e-06 	4.77717e-15
0.0528849 	41.7195 	-1.83067e-06 	4.77717e-15
0.0531391 	41.8204 	-1.83067e-06 	4.77716e-15
0.0533934 	41.9213 	-1.83067e-06 	4.77715e-15
0.0536476 	42.0222 	-1.83067e-06 	4.77715e-15
0.0539019 	42.1237 	-1.94495e-06 	4.85222e-15
0.0541562 	42.2315 	-1.94495e-06 	4.85222e-15
0.0544104 	42.3394 	-1.94495e-06 	4.85221e-15
0.0546647 	42.4472 	-1.94495e-06 	4.8522e-15
0.0549189 	42.5551 	-1.94495e-06 	4.8522e-15
0.0551732 	42.6629 	-1.94495e-06 	4.85219e-15
0.0554274 	42.7707 	-1.94495e-06 	4.85218e-15
0.0556817 	42.8786 	-1.94495e-06 	4.85218e-15
0.0559359 	42.9864 	-1.94495e-06 	4.85217e-15
0.0561902 	43.0943 	-1.94495e-06 	4.85216e-15
0.0564444 	43.2021 	-2.31532e-06 	-4.73336e-19
0.0566987 	43.3172 	-2.06097e-06 	4.97194e-15
0.056953 	43.4323 	-2.06097e-06 	4.97193e-15
0.0572072 	43.5474 	-2.06097e-06 	4.97193e-15
0.0574615 	43.6625 	-2.06097e-06 	4.97192e-15
0.0577157 	43.7776 	-2.06097e-06 	4.97191e-15
0.05797 	43.8926 	-2.06097e-06 	4.9719e-15
0.0582242 	44.0077 	-2.06097e-06 	4.9719e-15
0.0584785 	44.1228 	-2.06097e-06 	4.97189e-15
0.0587327 	44.2379 	-2.06097e-06 	4.97188e-15
0.058987 	44.353 	-2.06097e-06 	4.97187e-15
0.0592412 	44.4749 	-2.1777e-06 	5.10926e-15
0.0594955 	44.5975 	-2.1777e-06 	5.10925e-15
0.0597497 	44.72 	-2.1777e-06 	5.10924e-15
0.060004 	44.8426 	-2.1777e-06 	5.10923e-15
0.0602583 	44.9652 	-2.1777e-06 	5.10923e-15
0.0605125 	45.0878 	-2.1777e-06 	5.10922e-15
0.0607668 	45.2103 	-2.1777e-06 	5.10921e-15
0.061021 	45.3329 	-2.1777e-06 	5.1092e-15
0.0612753 	45.4555 	-2.1777e-06 	5.10919e-15
0.0615295 	45.5781 	-2.1777e-06 	5.10919e-15
0.0617838 	45.707 	-2.29514e-06 	5.29503e-15
0.062038 	45.8373 	-2.29514e-06 	5.29503e-15
0.0622923 	45.9676 	-2.29514e-06 	5.29502e-15
0.0625465 	46.0979 	-2.29514e-06 	5.29501e-15
0.0628008 	46.2282 	-2.29514e-06 	5.295e-15
0.0630551 	46.3585 	-2.29514e-06 	5.29499e-15
0.0633093 	46.4888 	-2.29514e-06 	5.29498e-15
0.0635636 	46.6191 	-2.29514e-06 	5.29498e-15
0.0638178 	46.7494 	-2.29514e-06 	5.29497e-15
0.0640721 	46.8797 	-2.29514e-06 	5.29496e-15
0.0643263 	47.0158 	-2.4128e-06 	5.41156e-15
0.0645806 	47.1541 	-2.4128e-06 	5.41155e-15
0.0648348 	47.2924 	-2.4128e-06 	5.41154e-15
0.0650891 	47.4307 	-2.4128e-06 	5.41153e-15
0.0653433 	47.5689 	-2.4128e-06 	5.41152e-15
0.0655976 	47.7072 	-2.4128e-06 	5.41152e-15
0.0658519 	47.8455 	-2.4128e-06 	5.41151e-15
0.0661061 	47.9838 	-2.4128e-06 	5.4115e-15
0.0663604 	48.122 	-2.4128e-06 	5.41149e-15
0.0666146 	48.2603 	-2.4128e-06 	5.41148e-15
0.0668689 	48.4038 	-2.52967e-06 	5.58216e-15
0.0671231 	48.5503 	-2.52967e-06 	5.58215e-15
0.0673774 	48.6967 	-2.52967e-06 	5.58214e-15
0.0676316 	48.8432 	-2.52967e-06 	5.58213e-15
0.0678859 	48.9897 	-2.52967e-06 	5.58212e-15
0.0681401 	49.1362 	-2.52967e-06 	5.58211e-15
0.0683944 	49.2826 	-2.52967e-06 	5.5821e-15
0.0686486 	49.4291 	-2.52967e-06 	5.58209e-15
0.0689029 	49.5756 	-2.52967e-06 	5.58208e-15
0.0691572 	49.7221 	-2.52967e-06 	5.58207e-15
0.0694114 	49.8731 	-2.64412e-06 	5.75673e-15
0.0696657 	50.0281 	-2.64412e-06 	5.75672e-15
0.0699199 	50.183 	-2.64412e-06 	5.75671e-15
0.0701742 	50.3379 	-2.64412e-06 	5.7567e-15
0.0704284 	50.4928 	-2.64412e-06 	5.75669e-15
0.0706827 	50.6477 	-2.64412e-06 	5.75668e-15
0.0709369 	50.8026 	-2.64412e-06 	5.75667e-15
0.0711912 	50.9575 	-2.64412e-06 	5.75666e-15
0.0714454 	51.1124 	-2.64412e-06 	5.75665e-15
0.0716997 	51.2673 	-2.64412e-06 	5.75664e-15
0.071954 	51.4261 	-2.74592e-06 	5.93608e-15
0.0722082 	51.5896 	-2.74592e-06 	5.93606e-15
0.0724625 	51.7531 	-2.74592e-06 	5.93605e-15
0.0727167 	51.9166 	-2.74592e-06 	5.93604e-15
0.072971 	52.0802 	-2.74592e-06 	5.93603e-15
0.0732252 	52.2437 	-2.74592e-06 	5.93602e-15
0.0734795 	52.4072 	-2.74592e-06 	5.93601e-15
0.0737337 	52.5707 	-2.74592e-06 	5.936e-15
0.073988 	52.7342 	-2.74592e-06 	5.93599e-15
0.0742422 	52.8977 	-2.74592e-06 	5.93598e-15
0.0744965 	53.0644 	-2.82703e-06 	6.12071e-15
0.0747508 	53.2366 	-2.82703e-06 	6.1207e-15
0.075005 	53.4088 	-2.82703e-06 	6.12069e-15
0.0752593 	53.581 	-2.82703e-06 	6.12068e-15
0.0755135 	53.7532 	-2.82703e-06 	6.12067e-15
0.0757678 	53.9254 	-2.82703e-06 	6.12066e-15
0.076022 	54.0976 	-2.82703e-06 	6.12065e-15
0.0762763 	54.2698 	-2.82703e-06 	6.12064e-15
0.0765305 	54.442 	-2.82703e-06 	6.12062e-15
0.0767848 	54.6142 	-2.82703e-06 	6.12061e-15
0.077039 	54.7888 	-2.88817e-06 	6.25099e-15
0.0772933 	54.9697 	-2.88817e-06 	6.25098e-15
0.0775475 	55.1506 	-2.88817e-06 	6.25097e-15
0.0778018 	55.3315 	-2.88817e-06 	6.25096e-15
0.0780561 	55.5124 	-2.88817e-06 	6.25094e-15
0.0783103 	55.6933 	-2.88817e-06 	6.25093e-15
0.0785646 	55.8742 	-2.88817e-06 	6.25092e-15
0.0788188 	56.0551 	-2.88817e-06 	6.25091e-15
0.0790731 	56.236 	-2.88817e-06 	6.2509e-15
0.0793273 	56.4169 	-2.88817e-06 	6.25089e-15
0.0795816 	56.5993 	-2.91319e-06 	6.44566e-15
0.0798358 	56.7888 	-2.91319e-06 	6.44565e-15
0.0800901 	56.9783 	-2.91319e-06 	6.44564e-15
0.0803443 	57.1678 	-2.91319e-06 	6.44563e-15
0.0805986 	57.3573 	-2.91319e-06 	6.44561e-15
0.0808529 	57.5469 	-2.91319e-06 	6.4456e-15
0.0811071 	57.7364 	-2.91319e-06 	6.44559e-15
0.0813614 	57.9259 	-2.91319e-06 	6.44558e-15
0.0816156 	58.1154 	-2.91319e-06 	6.44557e-15
0.0818699 	58.3049 	-2.91319e-06 	6.44555e-15
0.0821241 	58.4952 	-2.93386e-06 	6.64112e-15
0.0823784 	58.693 	-2.93386e-06 	6.64111e-15
0.0826326 	58.8909 	-2.93386e-06 	6.6411e-15
0.0828869 	59.0887 	-2.93386e-06 	6.64109e-15
0.0831411 	59.2866 	-2.93386e-06 	6.64107e-15
0.0833954 	59.4845 	-2.93386e-06 	6.64106e-15
0.0836496 	59.6823 	-2.93386e-06 	6.64105e-15
0.0839039 	59.8802 	-2.93386e-06 	6.64104e-15
0.0841582 	60.078 	-2.93386e-06 	6.64102e-15
0.0844124 	60.2759 	-2.93386e-06 	6.64101e-15
0.0846667 	60.4738 	-3.85884e-06 	1.79097e-17
0.0849209 	60.6797 	-2.95765e-06 	6.83944e-15
0.0851752 	60.8856 	-2.95765e-06 	6.83942e-15
0.0854294 	61.0914 	-2.95765e-06 	6.83941e-15
0.0856837 	61.2973 	-2.95765e-06 	6.8394e-15
0.0859379 	61.5032 	-2.95765e-06 	6.83938e-15
0.0861922 	61.7091 	-2.95765e-06 	6.83937e-15
0.0864464 	61.915 	-2.95765e-06 	6.83936e-15
0.0867007 	62.1209 	-2.95765e-06 	6.83934e-15
0.086955 	62.3268 	-2.95765e-06 	6.83933e-15
0.0872092 	62.5327 	-2.95765e-06 	6.83932e-15
0.0874635 	62.7456 	-2.95593e-06 	7.03887e-15
0.0877177 	62.9591 	-2.95593e-06 	7.03886e-15
0.087972 	63.1727 	-2.95593e-06 	7.03884e-15
0.0882262 	63.3863 	-2.95593e-06 	7.03883e-15
0.0884805 	63.5999 	-2.95593e-06 	7.03882e-15
0.0887347 	63.8134 	-2.95593e-06 	7.0388e-15
0.088989 	64.027 	-2.95593e-06 	7.03879e-15
0.0892432 	64.2406 	-2.95593e-06 	7.03877e-15
0.0894975 	64.4542 	-2.95593e-06 	7.03876e-15
0.0897518 	64.6677 	-2.95593e-06 	7.03875e-15
0.090006 	64.8871 	-2.94647e-06 	7.23855e-15
0.0902603 	65.1078 	-2.94647e-06 	7.23854e-15
0.0905145 	65.3285 	-2.94647e-06 	7.23853e-15
0.0907688 	65.5492 	-2.94647e-06 	7.23851e-15
0.091023 	65.7699 	-2.94647e-06 	7.2385e-15
0.0912773 	65.9906 	-2.94647e-06 	7.23848e-15
0.0915315 	66.2113 	-2.94647e-06 	7.23847e-15
0.0917858 	66.432 	-2.94647e-06 	7.23846e-15
0.09204 	66.6527 	-2.94647e-06 	7.23844e-15
0.0922943 	66.8733 	-2.94647e-06 	7.23843e-15
0.0925485 	67.0986 	-2.93907e-06 	7.43743e-15
0.0928028 	67.3256 	-2.93907e-06 	7.43741e-15
0.0930571 	67.5526 	-2.93907e-06 	7.4374e-15
0.0933113 	67.7796 	-2.93907e-06 	7.43738e-15
0.0935656 	68.0066 	-2.93907e-06 	7.43737e-15
0.0938198 	68.2335 	-2.93907e-06 	7.43735e-15
0.0940741 	68.4605 	-2.93907e-06 	7.43734e-15
0.0943283 	68.6875 	-2.93907e-06 	7.43732e-15
0.0945826 	68.9145 	-2.93907e-06 	7.43731e-15
0.0948368 	69.1415 	-2.93907e-06 	7.4373e-15
0.0950911 	69.3718 	-2.90027e-06 	7.5844e-15
0.0953453 	69.604 	-2.90027e-06 	7.58439e-15
0.0955996 	69.8362 	-2.90027e-06 	7.58437e-15
0.0958539 	70.0684 	-2.90027e-06 	7.58436e-15
0.0961081 	70.3006 	-2.90027e-06 	7.58434e-15
0.0963624 	70.5328 	-2.90027e-06 	7.58433e-15
0.0966166 	70.765 	-2.90027e-06 	7.58431e-15
0.0968709 	70.9973 	-2.90027e-06 	7.5843e-15
0.0971251 	71.2295 	-2.90027e-06 	7.58428e-15
0.0973794 	71.4617 	-2.90027e-06 	7.58427e-15
0.0976336 	71.696 	-2.82453e-06 	7.83225e-15
0.0978879 	71.932 	-2.82453e-06 	7.83223e-15
0.0981421 	72.168 	-2.82453e-06 	7.83222e-15
0.0983964 	72.404 	-2.82453e-06 	7.8322e-15
0.0986507 	72.64 	-2.82453e-06 	7.83219e-15
0.0989049 	72.876 	-2.82453e-06 	7.83217e-15
0.0991592 	73.112 	-2.82453e-06 	7.83216e-15
0.0994134 	73.348 	-2.82453e-06 	7.83214e-15
0.0996677 	73.5841 	-2.82453e-06 	7.83213e-15
0.0999219 	73.8201 	-2.82453e-06 	7.83211e-15
0.100176 	74.057 	-2.71047e-06 	8.06259e-15
0.10043 	74.295 	-2.71047e-06 	8.06257e-15
0.100685 	74.533 	-2.71047e-06 	8.06256e-15
0.100939 	74.771 	-2.71047e-06 	8.06254e-15
0.101193 	75.009 	-2.71047e-06 	8.06253e-15
0.101447 	75.247 	-2.71047e-06 	8.06251e-15
0.101702 	75.4851 	-2.71047e-06 	8.0625e-15
0.101956 	75.7231 	-2.71047e-06 	8.06248e-15
0.10221 	75.9611 	-2.71047e-06 	8.06247e-15
0.102464 	76.1991 	-2.71047e-06 	8.06245e-15
0.102719 	76.437 	-2.53298e-06 	8.23956e-15
0.102973 	76.6749 	-2.53298e-06 	8.23954e-15
0.103227 	76.9127 	-2.53298e-06 	8.23953e-15
0.103481 	77.1506 	-2.53298e-06 	8.23951e-15
0.103736 	77.3884 	-2.53298e-06 	8.2395e-15
0.10399 	77.6263 	-2.53298e-06 	8.23948e-15
0.104244 	77.8641 	-2.53298e-06 	8.23947e-15
0.104498 	78.102 	-2.53298e-06 	8.23945e-15
0.104753 	78.3398 	-2.53298e-06 	8.23944e-15
0.105007 	78.5777 	-2.53298e-06 	8.23942e-15
0.105261 	78.8148 	-2.35266e-06 	8.45626e-15
0.105516 	79.0501 	-2.35266e-06 	8.45624e-15
0.10577 	79.2853 	-2.35266e-06 	8.45623e-15
0.106024 	79.5206 	-2.35266e-06 	8.45621e-15
0.106278 	79.7558 	-2.35266e-06 	8.4562e-15
0.106533 	79.9911 	-2.35266e-06 	8.45618e-15
0.106787 	80.2264 	-2.35266e-06 	8.45616e-15
0.107041 	80.4616 	-2.35266e-06 	8.45615e-15
0.107295 	80.6969 	-2.35266e-06 	8.45613e-15
0.10755 	80.9321 	-2.35266e-06 	8.45612e-15
0.107804 	81.1665 	-2.0663e-06 	8.66326e-15
0.108058 	81.3966 	-2.0663e-06 	8.66325e-15
0.108312 	81.6267 	-2.0663e-06 	8.66323e-15
0.108567 	81.8568 	-2.0663e-06 	8.66322e-15
0.108821 	82.0869 	-2.0663e-06 	8.6632e-15
0.109075 	82.317 	-2.0663e-06 	8.66319e-15
0.109329 	82.5471 	-2.0663e-06 	8.66317e-15
0.109584 	82.7772 	-2.0663e-06 	8.66316e-15
0.109838 	83.0073 	-2.0663e-06 	8.66314e-15
0.110092 	83.2375 	-2.0663e-06 	8.66313e-15
0.110346 	83.4668 	-1.76844e-06 	8.79334e-15
0.110601 	83.689 	-1.76844e-06 	8.79332e-15
0.110855 	83.9111 	-1.76844e-06 	8.79331e-15
0.111109 	84.1332 	-1.76844e-06 	8.79329e-15
0.111363 	84.3553 	-1.76844e-06 	8.79328e-15
0.111618 	84.5775 	-1.76844e-06 	8.79326e-15
0.111872 	84.7996 	-1.76844e-06 	8.79325e-15
0.112126 	85.0217 	-1.76844e-06 	8.79324e-15
0.11238 	85.2438 	-1.76844e-06 	8.79322e-15
0.112635 	85.466 	-1.76844e-06 	8.79321e-15
0.112889 	85.6881 	-2.87492e-06 	3.3318e-17
0.113143 	85.8991 	-1.43034e-06 	8.8995e-15
0.113397 	86.1102 	-1.43034e-06 	8.89948e-15
0.113652 	86.3212 	-1.43034e-06 	8.89947e-15
0.113906 	86.5322 	-1.43034e-06 	8.89946e-15
0.11416 	86.7433 	-1.43034e-06 	8.89944e-15
0.114414 	86.9543 	-1.43034e-06 	8.89943e-15
0.114669 	87.1653 	-1.43034e-06 	8.89942e-15
0.114923 	87.3764 	-1.43034e-06 	8.8994e-15
0.115177 	87.5874 	-1.43034e-06 	8.89939e-15
0.115431 	87.7984 	-1.43034e-06 	8.89938e-15
0.115686 	87.9964 	-1.01656e-06 	8.98339e-15
0.11594 	88.193 	-1.01656e-06 	8.98338e-15
0.116194 	88.3897 	-1.01656e-06 	8.98337e-15
0.116448 	88.5863 	-1.01656e-06 	8.98335e-15
0.116703 	88.783 	-1.01656e-06 	8.98334e-15
0.116957 	88.9796 	-1.01656e-06 	8.98333e-15
0.117211 	89.1762 	-1.01656e-06 	8.98332e-15
0.117465 	89.3729 	-1.01656e-06 	8.9833e-15
0.11772 	89.5695 	-1.01656e-06 	8.98329e-15
0.117974 	89.7662 	-1.01656e-06 	8.98328e-15
0.118228 	89.9482 	-6.03867e-07 	9.04154e-15
0.118482 	90.127 	-6.03867e-07 	9.04153e-15
0.118737 	90.3058 	-6.03867e-07 	9.04151e-15
0.118991 	90.4846 	-6.03867e-07 	9.0415e-15
0.119245 	90.6634 	-6.03867e-07 	9.04149e-15
0.119499 	90.8422 	-6.03867e-07 	9.04148e-15
0.119754 	91.021 	-6.03867e-07 	9.04147e-15
0.120008 	91.1997 	-6.03867e-07 	9.04146e-15
0.120262 	91.3785 	-6.03867e-07 	9.04145e-15
0.120517 	91.5573 	-6.03867e-07 	9.04143e-15
0.120771 	91.7207 	-1.92136e-07 	9.07337e-15
0.121025 	91.8782 	-1.92136e-07 	9.07336e-15
0.121279 	92.0357 	-1.92136e-07 	9.07335e-15
0.121534 	92.1933 	-1.92136e-07 	9.07334e-15
0.121788 	92.3508 	-1.92136e-07 	9.07333e-15
0.122042 	92.5084 	-1.92136e-07 	9.07332e-15
0.122296 	92.6659 	-1.92136e-07 	9.07331e-15
0.122551 	92.8235 	-1.92136e-07 	9.0733e-15
0.122805 	92.981 	-1.92136e-07 	9.07329e-15
0.123059 	93.1386 	-1.92136e-07 	9.07328e-15
0.123313 	93.2807 	2.21296e-07 	9.07852e-15
0.123568 	93.414 	2.21296e-07 	9.07852e-15
0.123822 	93.5474 	2.21296e-07 	9.07851e-15
0.124076 	93.6807 	2.21296e-07 	9.0785e-15
0.12433 	93.814 	2.21296e-07 	9.07849e-15
0.124585 	93.9473 	2.21296e-07 	9.07848e-15
0.124839 	94.0807 	2.21296e-07 	9.07847e-15
0.125093 	94.214 	2.21296e-07 	9.07846e-15
0.125347 	94.3473 	2.21296e-07 	9.07846e-15
0.125602 	94.4806 	2.21296e-07 	9.07845e-15
0.125856 	94.5995 	5.9648e-07 	9.05898e-15
0.12611 	94.7063 	5.9648e-07 	9.05898e-15
0.126364 	94.8131 	5.9648e-07 	9.05897e-15
0.126619 	94.9199 	5.9648e-07 	9.05896e-15
0.126873 	95.0268 	5.9648e-07 	9.05896e-15
0.127127 	95.1336 	5.9648e-07 	9.05895e-15
0.127381 	95.2404 	5.9648e-07 	9.05894e-15
0.127636 	95.3472 	5.9648e-07 	9.05894e-15
0.12789 	95.454 	5.9648e-07 	9.05893e-15
0.128144 	95.5608 	5.9648e-07 	9.05892e-15
0.128398 	95.655 	9.25484e-07 	9.01925e-15
0.128653 	95.7341 	9.25484e-07 	9.01925e-15
0.128907 	95.8131 	9.25484e-07 	9.01924e-15
0.129161 	95.8921 	9.25484e-07 	9.01924e-15
0.129415 	95.9712 	9.25484e-07 	9.01923e-15
0.12967 	96.0502 	9.25484e-07 	9.01923e-15
0.129924 	96.1293 	9.25484e-07 	9.01922e-15
0.130178 	96.2083 	9.25484e-07 	9.01922e-15
0.130432 	96.2874 	9.25484e-07 	9.01921e-15
0.130687 	96.3664 	9.25484e-07 	9.01921e-15
0.130941 	96.4353 	1.20495e-06 	8.96458e-15
0.131195 	96.4865 	1.20495e-06 	8.96457e-15
0.131449 	96.5377 	1.20495e-06 	8.96457e-15
0.131704 	96.5889 	1.20495e-06 	8.96457e-15
0.131958 	96.64 	1.20495e-06 	8.96456e-15
0.132212 	96.6912 	1.20495e-06 	8.96456e-15
0.132466 	96.7424 	1.20495e-06 	8.96456e-15
0.132721 	96.7936 	1.20495e-06 	8.96455e-15
0.132975 	96.8448 	1.20495e-06 	8.96455e-15
0.133229 	96.896 	1.20495e-06 	8.96455e-15
0.133483 	96.9398 	1.426e-06 	8.89839e-15
0.133738 	96.9641 	1.426e-06 	8.89839e-15
0.133992 	96.9883 	1.426e-06 	8.89839e-15
0.134246 	97.0126 	1.426e-06 	8.89839e-15
0.134501 	97.0369 	1.426e-06 	8.89839e-15
0.134755 	97.0611 	1.426e-06 	8.89839e-15
0.135009 	97.0854 	1.426e-06 	8.89838e-15
0.135263 	97.1097 	1.426e-06 	8.89838e-15
0.135518 	97.1339 	1.426e-06 	8.89838e-15
0.135772 	97.1582 	1.426e-06 	8.89838e-15
0.136026 	97.1779 	1.62466e-06 	8.87835e-15
0.13628 	97.1769 	1.62466e-06 	8.87835e-15
0.136535 	97.176 	1.62466e-06 	8.87835e-15
0.136789 	97.175 	1.62466e-06 	8.87835e-15
0.137043 	97.1741 	1.62466e-06 	8.87835e-15
0.137297 	97.1731 	1.62466e-06 	8.87835e-15
0.137552 	97.1722 	1.62466e-06 	8.87835e-15
0.137806 	97.1712 	1.62466e-06 	8.87835e-15
0.13806 	97.1702 	1.62466e-06 	8.87835e-15
0.138314 	97.1693 	1.62466e-06 	8.87835e-15
0.138569 	97.1662 	1.78116e-06 	8.73385e-15
0.138823 	97.1421 	1.78116e-06 	8.73385e-15
0.139077 	97.1179 	1.78116e-06 	8.73386e-15
0.139331 	97.0937 	1.78116e-06 	8.73386e-15
0.139586 	97.0696 	1.78116e-06 	8.73386e-15
0.13984 	97.0454 	1.78116e-06 	8.73386e-15
0.140094 	97.0213 	1.78116e-06 	8.73386e-15
0.140348 	96.9971 	1.78116e-06 	8.73386e-15
0.140603 	96.973 	1.78116e-06 	8.73386e-15
0.140857 	96.9488 	1.78116e-06 	8.73387e-15
0.141111 	96.9247 	9.67609e-07 	2.26963e-17
0.141365 	96.8795 	1.90661e-06 	8.64496e-15
0.14162 	96.8343 	1.90661e-06 	8.64497e-15
0.141874 	96.789 	1.90661e-06 	8.64497e-15
0.142128 	96.7438 	1.90661e-06 	8.64497e-15
0.142382 	96.6986 	1.90661e-06 	8.64498e-15
0.142637 	96.6534 	1.90661e-06 	8.64498e-15
0.142891 	96.6082 	1.90661e-06 	8.64498e-15
0.143145 	96.563 	1.90661e-06 	8.64498e-15
0.143399 	96.5178 	1.90661e-06 	8.64499e-15
0.143654 	96.4726 	1.90661e-06 	8.64499e-15
0.143908 	96.4103 	2.02393e-06 	8.4985e-15
0.144162 	96.3462 	2.02393e-06 	8.4985e-15
0.144416 	96.2821 	2.02393e-06 	8.4985e-15
0.144671 	96.218 	2.02393e-06 	8.49851e-15
0.144925 	96.1539 	2.02393e-06 	8.49851e-15
0.145179 	96.0898 	2.02393e-06 	8.49852e-15
0.145433 	96.0257 	2.02393e-06 	8.49852e-15
0.145688 	95.9616 	2.02393e-06 	8.49853e-15
0.145942 	95.8975 	2.02393e-06 	8.49853e-15
0.146196 	95.8334 	2.02393e-06 	8.49853e-15
0.14645 	95.7555 	2.13001e-06 	8.34922e-15
0.146705 	95.6745 	2.13001e-06 	8.34923e-15
0.146959 	95.5936 	2.13001e-06 	8.34923e-15
0.147213 	95.5126 	2.13001e-06 	8.34924e-15
0.147467 	95.4316 	2.13001e-06 	8.34924e-15
0.147722 	95.3507 	2.13001e-06 	8.34925e-15
0.147976 	95.2697 	2.13001e-06 	8.34925e-15
0.14823 	95.1888 	2.13001e-06 	8.34926e-15
0.148484 	95.1078 	2.13001e-06 	8.34926e-15
0.148739 	95.0269 	2.13001e-06 	8.34927e-15
0.148993 	94.935 	2.23094e-06 	8.23376e-15
0.149247 	94.8391 	2.23094e-06 	8.23377e-15
0.149502 	94.7432 	2.23094e-06 	8.23378e-15
0.149756 	94.6472 	2.23094e-06 	8.23378e-15
0.15001 	94.5513 	2.23094e-06 	8.23379e-15
0.150264 	94.4554 	2.23094e-06 	8.2338e-15
0.150519 	94.3594 	2.23094e-06 	8.2338e-15
0.150773 	94.2635 	2.23094e-06 	8.23381e-15
0.151027 	94.1676 	2.23094e-06 	8.23381e-15
0.151281 	94.0717 	2.23094e-06 	8.23382e-15
0.151536 	93.9674 	2.32679e-06 	8.12253e-15
0.15179 	93.8583 	2.32679e-06 	8.12253e-15
0.152044 	93.7492 	2.32679e-06 	8.12254e-15
0.152298 	93.6401 	2.32679e-06 	8.12255e-15
0.152553 	93.531 	2.32679e-06 	8.12256e-15
0.152807 	93.422 	2.32679e-06 	8.12256e-15
0.153061 	93.3129 	2.32679e-06 	8.12257e-15
0.153315 	93.2038 	2.32679e-06 	8.12258e-15
0.15357 	93.0947 	2.32679e-06 	8.12258e-15
0.153824 	92.9856 	2.32679e-06 	8.12259e-15
0.154078 	92.8704 	2.41426e-06 	8.00299e-15
0.154332 	92.7499 	2.41426e-06 	8.003e-15
0.154587 	92.6295 	2.41426e-06 	8.00301e-15
0.154841 	92.5091 	2.41426e-06 	8.00301e-15
0.155095 	92.3886 	2.41426e-06 	8.00302e-15
0.155349 	92.2682 	2.41426e-06 	8.00303e-15
0.155604 	92.1478 	2.41426e-06 	8.00304e-15
0.155858 	92.0274 	2.41426e-06 	8.00304e-15
0.156112 	91.9069 	2.41426e-06 	8.00305e-15
0.156366 	91.7865 	2.41426e-06 	8.00306e-15
0.156621 	91.6617 	2.49002e-06 	7.87876e-15
0.156875 	91.5318 	2.49002e-06 	7.87876e-15
0.157129 	91.4019 	2.49002e-06 	7.87877e-15
0.157383 	91.2719 	2.49002e-06 	7.87878e-15
0.157638 	91.142 	2.49002e-06 	7.87879e-15
0.157892 	91.0121 	2.49002e-06 	7.8788e-15
0.158146 	90.8821 	2.49002e-06 	7.87881e-15
0.1584 	90.7522 	2.49002e-06 	7.87881e-15
0.158655 	90.6223 	2.49002e-06 	7.87882e-15
0.158909 	90.4923 	2.49002e-06 	7.87883e-15
0.159163 	90.3596 	2.55188e-06 	7.79844e-15
0.159417 	90.2221 	2.55188e-06 	7.79845e-15
0.159672 	90.0845 	2.55188e-06 	7.79846e-15
0.159926 	89.9469 	2.55188e-06 	7.79846e-15
0.16018 	89.8094 	2.55188e-06 	7.79847e-15
0.160434 	89.6718 	2.55188e-06 	7.79848e-15
0.160689 	89.5342 	2.55188e-06 	7.79849e-15
0.160943 	89.3967 	2.55188e-06 	7.7985e-15
0.161197 	89.2591 	2.55188e-06 	7.79851e-15
0.161451 	89.1216 	2.55188e-06 	7.79852e-15
0.161706 	88.9824 	2.59915e-06 	7.71662e-15
0.16196 	88.8391 	2.59915e-06 	7.71662e-15
0.162214 	88.6958 	2.59915e-06 	7.71663e-15
0.162468 	88.5525 	2.59915e-06 	7.71664e-15
0.162723 	88.4092 	2.59915e-06 	7.71665e-15
0.162977 	88.2659 	2.59915e-06 	7.71666e-15
0.163231 	88.1226 	2.59915e-06 	7.71667e-15
0.163485 	87.9793 	2.59915e-06 	7.71668e-15
0.16374 	87.836 	2.59915e-06 	7.71669e-15
0.163994 	87.6927 	2.59915e-06 	7.7167e-15
0.164248 	87.5486 	2.63224e-06 	7.58365e-15
0.164503 	87.4014 	2.63224e-06 	7.58366e-15
0.164757 	87.2541 	2.63224e-06 	7.58367e-15
0.165011 	87.1069 	2.63224e-06 	7.58368e-15
0.165265 	86.9596 	2.63224e-06 	7.58368e-15
0.16552 	86.8124 	2.63224e-06 	7.58369e-15
0.165774 	86.6651 	2.63224e-06 	7.5837e-15
0.166028 	86.5179 	2.63224e-06 	7.58371e-15
0.166282 	86.3706 	2.63224e-06 	7.58372e-15
0.166537 	86.2234 	2.63224e-06 	7.58373e-15
0.166791 	86.0759 	2.65199e-06 	7.45074e-15
0.167045 	85.9264 	2.65199e-06 	7.45075e-15
0.167299 	85.7769 	2.65199e-06 	7.45076e-15
0.167554 	85.6274 	2.65199e-06 	7.45077e-15
0.167808 	85.4779 	2.65199e-06 	7.45078e-15
0.168062 	85.3284 	2.65199e-06 	7.45079e-15
0.168316 	85.1789 	2.65199e-06 	7.4508e-15
0.168571 	85.0294 	2.65199e-06 	7.45081e-15
0.168825 	84.8799 	2.65199e-06 	7.45082e-15
0.169079 	84.7303 	2.65199e-06 	7.45083e-15
0.169333 	84.5808 	2.01232e-06 	1.27225e-17
0.169588 	84.4306 	2.6592e-06 	7.36696e-15