0 	31.9371 	-0.0273816 	7.09814e-13
0.000254254 	31.9371 	-0.0273874 	1.41471e-10
0.000508509 	31.9371 	-0.0273932 	2.82233e-10
0.000762763 	31.9404 	-0.0275598 	-7.16388e-06
0.00101702 	31.9461 	-0.027848 	-1.9747e-05
0.00127127 	31.9519 	-0.0281362 	-3.23302e-05
0.00152553 	31.9577 	-0.0284244 	-2.09142e-05
0.00177978 	31.9634 	-0.0287126 	-8.3412e-06
0.00203403 	31.9711 	-0.0290311 	2.94569e-10
0.00228829 	31.9827 	-0.0294094 	1.53734e-10
0.00254254 	31.9942 	-0.0297876 	1.28982e-11
0.0027968 	32.0058 	-0.0295566 	1.28047e-10
0.00305105 	32.0174 	-0.0292641 	2.69002e-10
0.00330531 	32.0302 	-0.0292123 	-4.31137e-06
0.00355956 	32.0444 	-0.0294165 	-1.32102e-05
0.00381381 	32.0586 	-0.0296207 	-2.2109e-05
0.00406807 	32.0728 	-0.0298249 	-1.56771e-05
0.00432232 	32.0869 	-0.0300291 	-6.7945e-06
0.00457658 	32.1017 	-0.0303178 	3.07542e-10
0.00483083 	32.1185 	-0.0308816 	1.66672e-10
0.00508509 	32.1353 	-0.0314453 	2.58014e-11
0.00533934 	32.1523 	-0.0313885 	1.15916e-10
0.00559359 	32.1692 	-0.0311925 	2.57824e-10
0.00584785 	32.1863 	-0.0312505 	-7.60669e-06
0.0061021 	32.2035 	-0.0316796 	-2.63229e-05
0.00635636 	32.2208 	-0.0321088 	-4.50391e-05
0.00661061 	32.2381 	-0.0325379 	-3.49653e-05
0.00686486 	32.2553 	-0.032967 	-1.63057e-05
0.00711912 	32.2726 	-0.0334386 	3.22473e-10
0.00737337 	32.2902 	-0.0342049 	1.80708e-10
0.00762763 	32.3078 	-0.0349711 	3.89437e-11
0.00788188 	32.3256 	-0.0350861 	1.03083e-10
0.00813614 	32.3435 	-0.0349543 	2.4521e-10
0.00839039 	32.3615 	-0.035076 	-9.12577e-06
0.00864464 	32.3798 	-0.0356984 	-3.62825e-05
0.0088989 	32.3981 	-0.0363208 	-6.34392e-05
0.00915315 	32.4164 	-0.0369432 	-5.38278e-05
0.00940741 	32.4347 	-0.0375656 	-2.67859e-05
0.00966166 	32.453 	-0.0381912 	3.35829e-10
0.00991592 	32.4718 	-0.0391498 	1.93903e-10
0.0101702 	32.4905 	-0.0401084 	5.19767e-11
0.0104244 	32.5095 	-0.0403839 	9.07864e-11
0.0106787 	32.5286 	-0.0402647 	2.34033e-10
0.0109329 	32.548 	-0.040388 	-9.15926e-06
0.0111872 	32.5682 	-0.0411559 	-4.26642e-05
0.0114414 	32.5883 	-0.0419238 	-7.61692e-05
0.0116957 	32.6085 	-0.0426917 	-7.04789e-05
0.0119499 	32.6286 	-0.0434595 	-3.71558e-05
0.0122042 	32.6488 	-0.0442274 	-3.83272e-06
0.0124585 	32.6699 	-0.0453233 	2.08431e-10
0.0127127 	32.6911 	-0.0464618 	6.54442e-11
0.012967 	32.7125 	-0.0469016 	7.82409e-11
0.0132212 	32.7341 	-0.0467518 	2.22515e-10
0.0134755 	32.756 	-0.0468254 	-8.32002e-06
0.0137297 	32.7791 	-0.0476985 	-4.64085e-05
0.013984 	32.8022 	-0.0485716 	-8.4497e-05
0.0142382 	32.8253 	-0.0494447 	-8.50315e-05
0.0144925 	32.8484 	-0.0503179 	-4.71954e-05
0.0147467 	32.8715 	-0.051191 	-9.3592e-06
0.015001 	32.8957 	-0.0523911 	2.23002e-10
0.0152553 	32.9202 	-0.0536986 	7.90467e-11
0.0155095 	32.945 	-0.054321 	6.53245e-11
0.0157638 	32.97 	-0.054109 	2.10203e-10
0.016018 	32.9953 	-0.0540958 	-7.08729e-06
0.0162723 	33.022 	-0.0550448 	-4.8465e-05
0.0165265 	33.0487 	-0.0559937 	-8.98427e-05
0.0167808 	33.0754 	-0.0569427 	-9.80225e-05
0.017035 	33.1021 	-0.0578916 	-5.69681e-05
0.0172893 	33.1288 	-0.0588406 	-1.59138e-05
0.0175435 	33.1566 	-0.0601077 	2.37045e-10
0.0177978 	33.185 	-0.0615763 	9.25453e-11
0.0180521 	33.2136 	-0.0624104 	5.23504e-11
0.0183063 	33.2424 	-0.0621144 	1.97952e-10
0.0185606 	33.2716 	-0.06199 	-5.77935e-06
0.0188148 	33.3023 	-0.0629953 	-4.95807e-05
0.0190691 	33.333 	-0.0640005 	-9.33821e-05
0.0193233 	33.3637 	-0.0650057 	-0.000110076
0.0195776 	33.3944 	-0.0660109 	-6.66684e-05
0.0198318 	33.4251 	-0.0670161 	-2.32612e-05
0.0200861 	33.4567 	-0.0683089 	2.51382e-10
0.0203403 	33.4892 	-0.0699337 	1.06219e-10
0.0205946 	33.5218 	-0.0710168 	3.92832e-11
0.0208488 	33.5549 	-0.0706223 	1.8571e-10
0.0211031 	33.5881 	-0.070373 	-4.59213e-06
0.0213574 	33.623 	-0.0714228 	-5.0296e-05
0.0216116 	33.658 	-0.0724726 	-9.6e-05
0.0218659 	33.6929 	-0.0735224 	-0.000121792
0.0221201 	33.7278 	-0.0745722 	-7.65536e-05
0.0223744 	33.7628 	-0.0756221 	-3.13149e-05
0.0226286 	33.7983 	-0.0768964 	2.66014e-10
0.0228829 	33.8351 	-0.0786759 	1.20085e-10
0.0231371 	33.872 	-0.0800512 	2.60984e-11
0.0233914 	33.9094 	-0.0795484 	1.73466e-10
0.0236456 	33.9469 	-0.079168 	-3.64237e-06
0.0238999 	33.9863 	-0.0802567 	-5.09857e-05
0.0241542 	34.0256 	-0.0813453 	-9.8329e-05
0.0244084 	34.065 	-0.0824339 	-0.000133711
0.0246627 	34.1044 	-0.0835226 	-8.69048e-05
0.0249169 	34.1437 	-0.0846112 	-4.00988e-05
0.0251712 	34.1834 	-0.0858212 	2.80988e-10
0.0254254 	34.2247 	-0.087757 	1.3418e-10
0.0256797 	34.2661 	-0.0894728 	1.27669e-11
0.0259339 	34.308 	-0.0888504 	1.61193e-10
0.0261882 	34.35 	-0.0883355 	-3.00493e-06
0.0264424 	34.3939 	-0.0894625 	-5.19547e-05
0.0266967 	34.4379 	-0.0905895 	-0.000100904
0.026951 	34.4819 	-0.0917165 	-0.000146435
0.0272052 	34.5258 	-0.0928435 	-9.80978e-05
0.0274595 	34.5698 	-0.0939705 	-4.97603e-05
0.0277137 	34.6137 	-0.0950975 	-1.4228e-06
0.027968 	34.6597 	-0.097171 	1.48538e-10
0.0282222 	34.7057 	-0.0992732 	7.32915e-13
0.0284765 	34.7523 	-0.0985142 	1.48863e-10
0.0287307 	34.7989 	-0.0978455 	-2.72923e-06
0.028985 	34.8477 	-0.0990131 	-5.33601e-05
0.0292392 	34.8964 	-0.100181 	-0.000103991
0.0294935 	34.9452 	-0.101348 	-0.000154622
0.0297477 	34.9939 	-0.102516 	-0.000110392
0.030002 	35.0427 	-0.103684 	-6.04525e-05
0.0302563 	35.0914 	-0.104851 	-1.05131e-05
0.0305105 	35.1418 	-0.106914 	1.6319e-10
0.0307648 	35.1927 	-0.109216 	1.42692e-11
0.031019 	35.2441 	-0.108542 	1.36894e-10
0.0312733 	35.2956 	-0.107671 	-2.85231e-06
0.0315275 	35.3493 	-0.10888 	-5.51316e-05
0.0317818 	35.403 	-0.110088 	-0.000107411
0.032036 	35.4567 	-0.111297 	-0.00015969
0.0322903 	35.5104 	-0.112505 	-0.000123616
0.0325445 	35.5641 	-0.113714 	-7.21106e-05
0.0327988 	35.6178 	-0.114922 	-2.06048e-05
0.0330531 	35.6729 	-0.116945 	1.78755e-10
0.0333073 	35.7288 	-0.119511 	2.81042e-11
0.0335616 	35.7852 	-0.118981 	1.23885e-10
0.0338158 	35.8418 	-0.117898 	-3.41189e-06
0.0340701 	35.9007 	-0.119144 	-5.72022e-05
0.0343243 	35.9595 	-0.120391 	-0.000110992
0.0345786 	36.0183 	-0.121638 	-0.000164783
0.0348328 	36.0772 	-0.122885 	-0.000137529
0.0350871 	36.136 	-0.124132 	-8.45954e-05
0.0353413 	36.1949 	-0.125379 	-3.16614e-05
0.0355956 	36.2547 	-0.127274 	1.93469e-10
0.0358498 	36.3158 	-0.130133 	4.19845e-11
0.0361041 	36.3774 	-0.129838 	1.1177e-10
0.0363584 	36.4393 	-0.128557 	-4.44693e-06
0.0366126 	36.5035 	-0.12984 	-5.96236e-05
0.0368669 	36.5677 	-0.131123 	-0.0001148
0.0371211 	36.6319 	-0.132406 	-0.000169977
0.0373754 	36.6961 	-0.133689 	-0.000152128
0.0376296 	36.7603 	-0.134972 	-9.78903e-05
0.0378839 	36.8244 	-0.136255 	-4.36531e-05
0.0381381 	36.8891 	-0.137905 	2.1026e-10
0.0383924 	36.9556 	-0.141068 	5.65172e-11
0.0386466 	37.0226 	-0.141121 	9.92146e-11
0.0389009 	37.0901 	-0.139692 	-5.99305e-06
0.0391552 	37.1598 	-0.141009 	-6.24593e-05
0.0394094 	37.2296 	-0.142327 	-0.000118926
0.0396637 	37.2993 	-0.143644 	-0.000175392
0.0399179 	37.3691 	-0.144961 	-0.000167458
0.0401722 	37.4388 	-0.146278 	-0.000112015
0.0404264 	37.5085 	-0.147596 	-5.65711e-05
0.0406807 	37.5783 	-0.148913 	-1.12767e-06
0.0409349 	37.6504 	-0.152318 	7.14072e-11
0.0411892 	37.723 	-0.152814 	8.63162e-11
0.0414434 	37.7962 	-0.151287 	-8.08613e-06
0.0416977 	37.8717 	-0.152637 	-6.5797e-05
0.041952 	37.9472 	-0.153988 	-0.000123508
0.0422062 	38.0227 	-0.155339 	-0.000181219
0.0424605 	38.0982 	-0.156689 	-0.000183661
0.0427147 	38.1737 	-0.15804 	-0.000127058
0.042969 	38.2492 	-0.159391 	-7.04539e-05
0.0432232 	38.3247 	-0.160742 	-1.38501e-05
0.0434775 	38.4022 	-0.163885 	8.67158e-11
0.0437317 	38.4805 	-0.164916 	7.28453e-11
0.043986 	38.5598 	-0.163342 	-1.07628e-05
0.0442402 	38.6413 	-0.164726 	-6.9705e-05
0.0444945 	38.7228 	-0.16611 	-0.000128647
0.0447487 	38.8043 	-0.167494 	-0.000187589
0.045003 	38.8858 	-0.168878 	-0.000200851
0.0452573 	38.9673 	-0.170262 	-0.000143101
0.0455115 	39.0488 	-0.171647 	-8.53515e-05
0.0457658 	39.1303 	-0.173031 	-2.76015e-05
0.04602 	39.2132 	-0.175778 	1.02168e-10
0.0462743 	39.2976 	-0.177433 	5.88347e-11
0.0465285 	39.3831 	-0.17587 	-1.40482e-05
0.0467828 	39.4709 	-0.177286 	-7.41709e-05
0.047037 	39.5586 	-0.178703 	-0.000134294
0.0472913 	39.6463 	-0.18012 	-0.000194416
0.0475455 	39.7341 	-0.181536 	-0.000218917
0.0477998 	39.8218 	-0.182953 	-0.000160072
0.0480541 	39.9095 	-0.18437 	-0.000101226
0.0483083 	39.9972 	-0.185787 	-4.2381e-05
0.0485626 	40.0857 	-0.188 	1.17515e-10
0.0488168 	40.1764 	-0.190368 	4.46266e-11
0.0490711 	40.2685 	-0.188876 	-1.79536e-05
0.0493253 	40.3628 	-0.190324 	-7.91595e-05
0.0495796 	40.457 	-0.191771 	-0.000140365
0.0498338 	40.5512 	-0.193218 	-0.000201571
0.0500881 	40.6454 	-0.194666 	-0.000237676
0.0503423 	40.7396 	-0.196113 	-0.000177831
0.0505966 	40.8338 	-0.197561 	-0.000117986
0.0508509 	40.928 	-0.199008 	-5.81405e-05
0.0511051 	41.0223 	-0.200543 	1.33151e-10
0.0513594 	41.1195 	-0.203711 	3.03496e-11
0.0516136 	41.2185 	-0.202359 	-2.2471e-05
0.0518679 	41.3194 	-0.203834 	-8.46066e-05
0.0521221 	41.4203 	-0.205308 	-0.000146742
0.0523764 	41.5213 	-0.206783 	-0.000208878
0.0526306 	41.6222 	-0.208258 	-0.000256855
0.0528849 	41.7231 	-0.209733 	-0.00019616
0.0531391 	41.8241 	-0.211208 	-0.000135465
0.0533934 	41.925 	-0.212683 	-7.47696e-05
0.0536476 	42.0259 	-0.214158 	-1.40745e-05
0.0539019 	42.1292 	-0.217444 	1.56076e-11
0.0541562 	42.2354 	-0.216302 	-2.75627e-05
0.0544104 	42.3433 	-0.2178 	-9.04056e-05
0.0546647 	42.4512 	-0.219298 	-0.000153248
0.0549189 	42.5591 	-0.220795 	-0.000216091
0.0551732 	42.6671 	-0.222293 	-0.00027606
0.0554274 	42.775 	-0.223791 	-0.000214731
0.0556817 	42.8829 	-0.225289 	-0.000153402
0.0559359 	42.9908 	-0.226786 	-9.20738e-05
0.0561902 	43.0987 	-0.228284 	-3.07452e-05
0.0564444 	43.2082 	-0.231533 	5.73503e-13
0.0566987 	43.3218 	-0.230678 	-3.31521e-05
0.056953 	43.437 	-0.232192 	-9.63997e-05
0.0572072 	43.5521 	-0.233706 	-0.000159647
0.0574615 	43.6673 	-0.23522 	-0.000222895
0.0577157 	43.7825 	-0.236734 	-0.000286142
0.05797 	43.8976 	-0.238248 	-0.000233092
0.0582242 	44.0128 	-0.239762 	-0.000171424
0.0584785 	44.1279 	-0.241276 	-0.000109755
0.0587327 	44.2431 	-0.24279 	-4.80863e-05
0.058987 	44.359 	-0.245145 	1.45505e-11
0.0592412 	44.4803 	-0.245439 	-3.91923e-05
0.0594955 	44.6029 	-0.246964 	-0.000102581
0.0597497 	44.7256 	-0.248489 	-0.00016597
0.060004 	44.8482 	-0.250014 	-0.00022936
0.0602583 	44.9709 	-0.251539 	-0.000292749
0.0605125 	45.0936 	-0.253063 	-0.000251163
0.0607668 	45.2162 	-0.254588 	-0.000189408
0.061021 	45.3389 	-0.256113 	-0.000127653
0.0612753 	45.4615 	-0.257638 	-6.58977e-05
0.0615295 	45.5842 	-0.259163 	-4.1428e-06
0.0617838 	45.7132 	-0.260554 	-4.55934e-05
0.062038 	45.8436 	-0.262083 	-0.000108844
0.0622923 	45.974 	-0.263613 	-0.000172094
0.0625465 	46.1044 	-0.265142 	-0.000235344
0.0628008 	46.2348 	-0.266672 	-0.000298595
0.0630551 	46.3652 	-0.268105 	-0.000267561
0.0633093 	46.4954 	-0.269454 	-0.000203953
0.0635636 	46.6257 	-0.270803 	-0.000140344
0.0638178 	46.756 	-0.272152 	-7.67354e-05
0.0640721 	46.8863 	-0.273501 	-1.31267e-05
0.0643263 	47.0224 	-0.274913 	-4.10445e-05
0.0645806 	47.1606 	-0.276245 	-0.000101695
0.0648348 	47.2989 	-0.277576 	-0.000162345
0.0650891 	47.4371 	-0.278907 	-0.000222996
0.0653433 	47.5753 	-0.280238 	-0.000283646
0.0655976 	47.7136 	-0.281569 	-0.000262884
0.0658519 	47.8518 	-0.2829 	-0.000199844
0.0661061 	47.99 	-0.284231 	-0.000136804
0.0663604 	48.1283 	-0.285562 	-7.37636e-05
0.0666146 	48.2665 	-0.286893 	-1.07234e-05
0.0668689 	48.41 	-0.288464 	-2.78932e-05
0.0671231 	48.5564 	-0.289794 	-8.86681e-05
0.0673774 	48.7028 	-0.291124 	-0.000149443
0.0676316 	48.8493 	-0.292455 	-0.000210218
0.0678859 	48.9957 	-0.293785 	-0.000270993
0.0681401 	49.1421 	-0.295115 	-0.000261068
0.0683944 	49.2885 	-0.296445 	-0.000197842
0.0686486 	49.4349 	-0.297776 	-0.000134616
0.0689029 	49.5814 	-0.299106 	-7.13901e-05
0.0691572 	49.7278 	-0.300436 	-8.16416e-06
0.0694114 	49.8789 	-0.302223 	-1.4502e-05
0.0696657 	50.0337 	-0.303565 	-7.58516e-05
0.0699199 	50.1886 	-0.304907 	-0.000137201
0.0701742 	50.3435 	-0.306249 	-0.000198551
0.0704284 	50.4983 	-0.30759 	-0.0002599
0.0706827 	50.6532 	-0.308932 	-0.000260839
0.0709369 	50.8081 	-0.310274 	-0.000196965
0.0711912 	50.9629 	-0.311615 	-0.000133092
0.0714454 	51.1178 	-0.312957 	-6.92182e-05
0.0716997 	51.2727 	-0.314299 	-5.34473e-06
0.071954 	51.4316 	-0.316369 	-5.47292e-07
0.0722082 	51.5951 	-0.31766 	-5.96662e-05
0.0724625 	51.7586 	-0.318951 	-0.000118785
0.0727167 	51.9221 	-0.320243 	-0.000177904
0.072971 	52.0857 	-0.321534 	-0.000237023
0.0732252 	52.2492 	-0.322825 	-0.000248461
0.0734795 	52.4127 	-0.324116 	-0.00018687
0.0737337 	52.5762 	-0.325407 	-0.000125279
0.073988 	52.7397 	-0.326698 	-6.36887e-05
0.0742422 	52.9033 	-0.327989 	-2.09803e-06
0.0744965 	53.0709 	-0.330131 	6.35551e-05
0.0747508 	53.2424 	-0.331542 	-4.41314e-05
0.075005 	53.4146 	-0.332781 	-0.000100863
0.0752593 	53.5868 	-0.33402 	-0.000157594
0.0755135 	53.7591 	-0.33526 	-0.000214326
0.0757678 	53.9313 	-0.336499 	-0.000235388
0.076022 	54.1036 	-0.337738 	-0.000176255
0.0762763 	54.2758 	-0.338977 	-0.000117122
0.0765305 	54.4481 	-0.340216 	-5.79897e-05
0.0767848 	54.6204 	-0.34146 	6.03756e-06
0.077039 	54.7967 	-0.34334 	0.000138364
0.0772933 	54.976 	-0.345326 	-2.96137e-05
0.0775475 	55.1569 	-0.346522 	-8.41798e-05
0.0778018 	55.3378 	-0.347718 	-0.000138746
0.0780561 	55.5188 	-0.348914 	-0.000193312
0.0783103 	55.6997 	-0.350111 	-0.000223253
0.0785646 	55.8806 	-0.351307 	-0.000166358
0.0788188 	56.0615 	-0.352503 	-0.000109463
0.0790731 	56.2425 	-0.353699 	-5.25681e-05
0.0793273 	56.4237 	-0.354826 	2.53413e-05
0.0795816 	56.6085 	-0.355857 	0.000224583
0.0798358 	56.7956 	-0.358924 	-1.51885e-05
0.0800901 	56.9851 	-0.360022 	-6.51222e-05
0.0803443 	57.1745 	-0.361119 	-0.000115056
0.0805986 	57.364 	-0.362216 	-0.00016499
0.0808529 	57.5535 	-0.363313 	-0.000201233
0.0811071 	57.743 	-0.36441 	-0.000149161
0.0813614 	57.9325 	-0.365508 	-9.70877e-05
0.0816156 	58.1219 	-0.366605 	-4.50149e-05
0.0818699 	58.3119 	-0.367411 	4.79311e-05
0.0821241 	58.5051 	-0.367053 	0.000320978
0.0823784 	58.6998 	-0.371763 	-2.75464e-06
0.0826326 	58.8976 	-0.372728 	-4.65688e-05
0.0828869 	59.0954 	-0.373693 	-9.03829e-05
0.0831411 	59.2933 	-0.374657 	-0.000134197
0.0833954 	59.4911 	-0.375622 	-0.000173749
0.0836496 	59.6889 	-0.376587 	-0.000128059
0.0839039 	59.8867 	-0.377552 	-8.23704e-05
0.0841582 	60.0845 	-0.378517 	-3.66814e-05
0.0844124 	60.283 	-0.378798 	7.34246e-05
0.0846667 	60.4843 	-0.376523 	0.000425875
0.0849209 	60.687 	-0.382363 	6.51165e-05
0.0851752 	60.8923 	-0.38404 	-2.83714e-05
0.0854294 	61.0982 	-0.384801 	-6.2992e-05
0.0856837 	61.304 	-0.385562 	-9.76125e-05
0.0859379 	61.5099 	-0.386322 	-0.000132233
0.0861922 	61.7158 	-0.387083 	-9.8889e-05
0.0864464 	61.9216 	-0.387844 	-6.27964e-05
0.0867007 	62.1275 	-0.388604 	-2.67038e-05
0.086955 	62.3343 	-0.388146 	0.000100286
0.0872092 	62.5435 	-0.384223 	0.000485816
0.0874635 	62.7539 	-0.38995 	0.000158809
0.0877177 	62.9661 	-0.392946 	-1.35291e-05
0.087972 	63.1797 	-0.393456 	-3.70636e-05
0.0882262 	63.3933 	-0.393966 	-6.05981e-05
0.0884805 	63.6068 	-0.394476 	-8.41325e-05
0.0887347 	63.8204 	-0.394987 	-6.56331e-05
0.088989 	64.0339 	-0.395497 	-4.11102e-05
0.0892432 	64.2475 	-0.396007 	-1.65872e-05
0.0894975 	64.4621 	-0.394712 	0.000126402
0.0897518 	64.679 	-0.389646 	0.000517017
0.090006 	64.8966 	-0.394529 	0.000253736
0.0902603 	65.1154 	-0.399078 	-4.77501e-06
0.0905145 	65.3361 	-0.399383 	-1.92492e-05
0.0907688 	65.5568 	-0.399688 	-3.37233e-05
0.091023 	65.7775 	-0.399994 	-4.81974e-05
0.0912773 	65.9982 	-0.400299 	-3.9386e-05
0.0915315 	66.2189 	-0.400604 	-2.43153e-05
0.0917858 	66.4396 	-0.400909 	-9.24463e-06
0.09204 	66.6615 	-0.398794 	0.000152218
0.0922943 	66.8852 	-0.392838 	0.000545985
0.0925485 	67.1095 	-0.396619 	0.000349242
0.0928028 	67.3342 	-0.402875 	-3.89759e-07
0.0930571 	67.5613 	-0.402955 	-4.94047e-06
0.0933113 	67.7883 	-0.403035 	-9.49119e-06
0.0935656 	68.0153 	-0.403115 	-1.40419e-05
0.0938198 	68.2424 	-0.403195 	-1.20798e-05
0.0940741 	68.4694 	-0.403275 	-7.34635e-06
0.0943283 	68.6964 	-0.403355 	-2.61294e-06
0.0945826 	68.9247 	-0.40033 	0.000177531
0.0948368 	69.1544 	-0.393478 	0.00057386
0.0950911 	69.3845 	-0.395791 	0.000445061
0.0953453 	69.6148 	-0.402572 	6.02603e-05
0.0955996 	69.8467 	-0.403417 	8.55431e-06
0.0958539 	70.079 	-0.40316 	1.86967e-05
0.0961081 	70.3113 	-0.402903 	2.88391e-05
0.0963624 	70.5436 	-0.402646 	2.62714e-05
0.0966166 	70.7759 	-0.402389 	1.57357e-05
0.0968709 	71.0081 	-0.402132 	5.19997e-06
0.0971251 	71.2415 	-0.398084 	0.000199514
0.0973794 	71.476 	-0.390342 	0.000593446
0.0976336 	71.7107 	-0.390947 	0.000534394
0.0978879 	71.9455 	-0.39752 	0.000151495
0.0981421 	72.1811 	-0.399732 	1.6241e-05
0.0983964 	72.4172 	-0.399091 	4.31143e-05
0.0986507 	72.6533 	-0.39845 	6.99876e-05
0.0989049 	72.8895 	-0.397809 	6.79811e-05
0.0991592 	73.1256 	-0.397168 	4.01107e-05
0.0994134 	73.3617 	-0.396527 	1.22404e-05
0.0996677 	73.5986 	-0.391428 	0.000216121
0.0999219 	73.8362 	-0.382838 	0.000601487
0.100176 	74.0738 	-0.381618 	0.000611391
0.10043 	74.3116 	-0.387953 	0.000236312
0.100685 	74.5495 	-0.391564 	1.62388e-05
0.100939 	74.7877 	-0.390534 	6.01308e-05
0.101193 	75.0258 	-0.389504 	0.000104023
0.101447 	75.2639 	-0.388473 	0.000108605
0.101702 	75.5021 	-0.387443 	6.31723e-05
0.101956 	75.7402 	-0.386413 	1.77395e-05
0.10221 	75.9787 	-0.380289 	0.000224997
0.102464 	76.2173 	-0.370902 	0.000594114
0.102719 	76.456 	-0.367799 	0.000668653
0.102973 	76.6947 	-0.373962 	0.000308819
0.103227 	76.9333 	-0.379066 	7.95764e-06
0.103481 	77.1713 	-0.377759 	6.40845e-05
0.103736 	77.4093 	-0.376452 	0.000120211
0.10399 	77.6473 	-0.375145 	0.000136157
0.104244 	77.8853 	-0.373838 	7.81895e-05
0.104498 	78.1233 	-0.372531 	2.02224e-05
0.104753 	78.3609 	-0.365495 	0.000230784
0.105007 	78.5983 	-0.355391 	0.00058521
0.105261 	78.8357 	-0.350412 	0.000719509
0.105516 	79.0731 	-0.356619 	0.000373365
0.10577 	79.3105 	-0.362826 	2.72204e-05
0.106024 	79.546 	-0.36177 	6.6746e-05
0.106278 	79.7815 	-0.360095 	0.000139188
0.106533 	80.0169 	-0.358419 	0.000172833
0.106787 	80.2524 	-0.356744 	9.82066e-05
0.107041 	80.4878 	-0.355068 	2.35802e-05
0.107295 	80.7221 	-0.346912 	0.0002281
0.10755 	80.9557 	-0.335762 	0.000561565
0.107804 	81.1894 	-0.328458 	0.00074722
0.108058 	81.4229 	-0.334474 	0.000420873
0.108312 	81.6564 	-0.34049 	9.45253e-05
0.108567 	81.8876 	-0.340764 	6.37116e-05
0.108821 	82.1179 	-0.338698 	0.000153401
0.109075 	82.3482 	-0.336631 	0.000211288
0.109329 	82.5785 	-0.334564 	0.000119159
0.109584 	82.8088 	-0.332497 	2.70304e-05
0.109838 	83.037 	-0.323452 	0.000213971
0.110092 	83.2642 	-0.311508 	0.000516786
0.110346 	83.4914 	-0.301977 	0.000739502
0.110601 	83.7183 	-0.3081 	0.000442469
0.110855 	83.9452 	-0.314224 	0.000145436
0.111109 	84.1698 	-0.316042 	5.14101e-05
0.111363 	84.3921 	-0.313729 	0.00015214
0.111618 	84.6145 	-0.311417 	0.000235444
0.111872 	84.8368 	-0.309105 	0.000132301
0.112126 	85.0591 	-0.306793 	2.9158e-05
0.11238 	85.2783 	-0.296905 	0.000197487
0.112635 	85.4962 	-0.284033 	0.000472802
0.112889 	85.7141 	-0.271977 	0.000724774
0.113143 	85.9315 	-0.278195 	0.000454035
0.113397 	86.1489 	-0.284413 	0.000183296
0.113652 	86.3643 	-0.287752 	3.80084e-05
0.113906 	86.5756 	-0.285057 	0.000155687
0.11416 	86.7868 	-0.282362 	0.000273366
0.114414 	86.9981 	-0.279666 	0.000154353
0.114669 	87.2094 	-0.276971 	3.42682e-05
0.114923 	87.4164 	-0.266174 	0.000173663
0.115177 	87.6217 	-0.25214 	0.000416671
0.115431 	87.8269 	-0.238107 	0.00065968
0.115686 	88.0316 	-0.243472 	0.00044338
0.11594 	88.2362 	-0.249822 	0.000203761
0.116194 	88.4397 	-0.254766 	1.99145e-05
0.116448 	88.6365 	-0.251723 	0.000152989
0.116703 	88.8334 	-0.248679 	0.000286064
0.116957 	89.0303 	-0.245636 	0.000176263
0.117211 	89.2271 	-0.242593 	4.09673e-05
0.117465 	89.4187 	-0.231046 	0.000147323
0.11772 	89.608 	-0.215805 	0.000358626
0.117974 	89.7972 	-0.200565 	0.00056993
0.118228 	89.9857 	-0.204106 	0.000419658
0.118482 	90.174 	-0.210695 	0.000210699
0.118737 	90.3624 	-0.217284 	1.74018e-06
0.118991 	90.5415 	-0.214129 	0.00014044
0.119245 	90.7205 	-0.210893 	0.000282058
0.119499 	90.8995 	-0.207657 	0.000191642
0.119754 	91.0785 	-0.204421 	4.82186e-05
0.120008 	91.2514 	-0.192553 	0.000124652
0.120262 	91.4211 	-0.176315 	0.000312436
0.120517 	91.5909 	-0.160076 	0.00050022
0.120771 	91.7598 	-0.161664 	0.000400435
0.121025 	91.9284 	-0.168613 	0.000214172
0.121279 	92.0971 	-0.175562 	2.79093e-05
0.121534 	92.2565 	-0.17375 	0.000124874
0.121788 	92.4142 	-0.170393 	0.000271757
0.122042 	92.572 	-0.167036 	0.000205423
0.122296 	92.7297 	-0.16368 	5.72695e-05
0.122551 	92.8808 	-0.151965 	0.000101883
0.122805 	93.0278 	-0.134983 	0.000267964
0.123059 	93.1747 	-0.118002 	0.000434046
0.123313 	93.3208 	-0.117539 	0.000375796
0.123568 	93.4665 	-0.124956 	0.000210545
0.123822 	93.6122 	-0.132374 	4.52945e-05
0.124076 	93.749 	-0.131997 	0.000105356
0.12433 	93.8825 	-0.128678 	0.000250492
0.124585 	94.016 	-0.12536 	0.000212046
0.124839 	94.1495 	-0.122041 	6.62543e-05
0.125093 	94.2764 	-0.111063 	8.02622e-05
0.125347 	94.3977 	-0.0937059 	0.000227381
0.125602 	94.519 	-0.0763487 	0.0003745
0.125856 	94.6396 	-0.0738812 	0.000349614
0.12611 	94.7597 	-0.0819688 	0.000202798
0.126364 	94.8797 	-0.0900565 	5.59808e-05
0.126619 	94.9916 	-0.0912232 	8.37351e-05
0.126873 	95.0986 	-0.0881247 	0.000219073
0.127127 	95.2055 	-0.0850263 	0.000208406
0.127381 	95.3125 	-0.0819279 	7.29501e-05
0.127636 	95.4134 	-0.072212 	6.18203e-05
0.12789 	95.5073 	-0.0547732 	0.000195789
0.128144 	95.6011 	-0.0373343 	0.000329758
0.128398 	95.6943 	-0.0328816 	0.000331568
0.128653 	95.7869 	-0.0417727 	0.000197579
0.128907 	95.8795 	-0.0506637 	6.35896e-05
0.129161 	95.9651 	-0.0534282 	6.34755e-05
0.129415 	96.0442 	-0.0506588 	0.000184285
0.12967 	96.1234 	-0.0478895 	0.000197102
0.129924 	96.2025 	-0.0451201 	7.64449e-05
0.130178 	96.2768 	-0.0370337 	4.56274e-05
0.130432 	96.3424 	-0.0197539 	0.000170145
0.130687 	96.4081 	-0.0024741 	0.000294662
0.130941 	96.4733 	0.00395902 	0.000319186
0.131195 	96.5378 	-0.00579561 	0.000194479
0.131449 	96.6023 	-0.0155502 	6.97725e-05
0.131704 	96.661 	-0.0199623 	4.55317e-05
0.131958 	96.7123 	-0.0175889 	0.000148892
0.132212 	96.7636 	-0.0152155 	0.000178911
0.132466 	96.8149 	-0.0128421 	7.58326e-05
0.132721 	96.8626 	-0.0066154 	3.10628e-05
0.132975 	96.9006 	0.0103361 	0.00014858
0.133229 	96.9385 	0.0272877 	0.000266097
0.133483 	96.9762 	0.0357342 	0.000310843
0.133738 	97.0132 	0.0251805 	0.000193019
0.133992 	97.0502 	0.0146268 	7.51954e-05
0.134246 	97.0826 	0.00860897 	3.11643e-05
0.134501 	97.107 	0.0105922 	0.0001173
0.134755 	97.1313 	0.0125754 	0.000158167
0.135009 	97.1557 	0.0145586 	7.23856e-05
0.135263 	97.178 	0.0188084 	1.70906e-05
0.135518 	97.1896 	0.0353055 	0.000126526
0.135772 	97.2012 	0.0518026 	0.000235962
0.136026 	97.2127 	0.0622522 	0.00029777
0.13628 	97.2236 	0.0509071 	0.000187934
0.136535 	97.2345 	0.0395619 	7.80984e-05
0.136789 	97.242 	0.0319671 	2.04129e-05
0.137043 	97.2411 	0.0336006 	9.10545e-05
0.137297 	97.2402 	0.035234 	0.00013755
0.137552 	97.2393 	0.0368675 	6.72934e-05
0.137806 	97.2379 	0.0391138 	4.23206e-06
0.13806 	97.2251 	0.0552757 	0.000104559
0.138314 	97.2123 	0.0714375 	0.000204885
0.138569 	97.1995 	0.0840761 	0.000280031
0.138823 	97.1862 	0.0720974 	0.000179234
0.139077 	97.1729 	0.0601188 	7.84382e-05
0.139331 	97.1572 	0.0510965 	1.286e-05
0.139586 	97.1331 	0.0524455 	7.0834e-05
0.13984 	97.109 	0.0537944 	0.000119624
0.140094 	97.0848 	0.0551433 	6.20424e-05
0.140348 	97.0607 	0.0564922 	4.46044e-06
0.140603 	97.0266 	0.0713174 	8.66338e-05
0.140857 	96.9916 	0.087274 	0.000180541
0.141111 	96.9566 	0.102289 	0.000268192
0.141365 	96.9212 	0.0898789 	0.000173753
0.14162 	96.8859 	0.0774692 	7.93132e-05
0.141874 	96.8489 	0.0672376 	8.1241e-06
0.142128 	96.8037 	0.0684258 	5.88421e-05
0.142382 	96.7585 	0.0696139 	0.00010956
0.142637 	96.7133 	0.0708021 	6.04999e-05
0.142891 	96.6682 	0.0719903 	1.01888e-05
0.143145 	96.6152 	0.0849063 	7.05104e-05
0.143399 	96.5602 	0.1008 	0.000158925
0.143654 	96.5052 	0.116695 	0.00024734
0.143908 	96.4499 	0.105709 	0.000168765
0.144162 	96.3946 	0.0930456 	7.97641e-05
0.144416 	96.3384 	0.0818111 	4.86845e-06
0.144671 	96.2743 	0.0829171 	5.17753e-05
0.144925 	96.2102 	0.0840232 	9.86822e-05
0.145179 	96.1461 	0.0851292 	6.19369e-05
0.145433 	96.082 	0.0862352 	1.54627e-05
0.145688 	96.012 	0.0972004 	5.54092e-05
0.145942 	95.9392 	0.113081 	0.000138445
0.146196 	95.8663 	0.128962 	0.00022148
0.14645 	95.7932 	0.120439 	0.000162942
0.146705 	95.7201 	0.107585 	7.92812e-05
0.146959 	95.6466 	0.0954591 	2.31627e-06
0.147213 	95.5656 	0.0965089 	4.65503e-05
0.147467 	95.4846 	0.0975587 	9.07843e-05
0.147722 	95.4036 	0.0986085 	6.42519e-05
0.147976 	95.3226 	0.0996583 	2.04765e-05
0.14823 	95.2374 	0.108608 	4.1535e-05
0.148484 	95.1486 	0.124499 	0.000119571
0.148739 	95.0598 	0.140391 	0.000197608
0.148993 	94.9709 	0.1344 	0.000156944
0.149247 	94.8819 	0.121399 	7.82525e-05
0.149502 	94.7928 	0.108476 	2.35037e-07
0.149756 	94.6968 	0.109481 	4.22908e-05
0.15001 	94.6009 	0.110485 	8.43466e-05
0.150264 	94.5049 	0.11149 	6.68235e-05
0.150519 	94.4089 	0.112495 	2.52489e-05
0.150773 	94.3102 	0.119339 	2.85067e-05
0.151027 	94.2073 	0.135215 	0.000101098
0.151281 	94.1043 	0.151091 	0.00017369
0.151536 	94.0013 	0.147644 	0.000149222
0.15179 	93.8983 	0.134485 	7.59622e-05
0.152044 	93.7953 	0.121326 	2.70272e-06
0.152298 	93.6863 	0.121746 	3.75998e-05
0.152553 	93.5772 	0.122687 	7.66393e-05
0.152807 	93.468 	0.123627 	6.75084e-05
0.153061 	93.3589 	0.124567 	2.89545e-05
0.153315 	93.2482 	0.129211 	1.66077e-05
0.15357 	93.133 	0.145022 	8.33054e-05
0.153824 	93.0177 	0.160834 	0.000150003
0.154078 	92.9024 	0.159918 	0.000139802
0.154332 	92.7872 	0.146568 	7.24412e-05
0.154587 	92.6719 	0.133218 	5.08011e-06
0.154841 	92.5517 	0.132995 	3.21815e-05
0.155095 	92.4312 	0.133844 	6.69873e-05
0.155349 	92.3107 	0.134692 	6.51954e-05
0.155604 	92.1902 	0.13554 	3.08546e-05
0.155858 	92.0691 	0.137897 	6.1714e-06
0.156112 	91.9434 	0.153602 	6.69544e-05
0.156366 	91.8176 	0.169307 	0.000127737
0.156621 	91.6919 	0.170908 	0.000129639
0.156875 	91.5662 	0.157339 	6.82098e-05
0.157129 	91.4405 	0.14377 	6.78035e-06
0.157383 	91.3109 	0.142926 	2.63693e-05
0.157638 	91.1809 	0.143661 	5.60098e-05
0.157892 	91.0508 	0.144396 	5.98801e-05
0.158146 	90.9208 	0.145131 	3.06607e-05
0.1584 	90.7908 	0.145866 	1.4413e-06
0.158655 	90.6566 	0.160704 	5.25272e-05
0.158909 	90.5222 	0.176273 	0.000107779
0.159163 	90.3879 	0.180389 	0.000119691
0.159417 	90.2536 	0.166591 	6.38169e-05
0.159672 	90.1193 	0.152793 	7.94316e-06
0.159926 	89.9822 	0.151356 	2.06287e-05
0.16018 	89.8445 	0.151968 	4.46754e-05
0.160434 	89.7068 	0.152579 	5.21857e-05
0.160689 	89.5691 	0.153191 	2.84988e-05
0.160943 	89.4315 	0.153802 	4.81181e-06
0.161197 	89.2911 	0.166214 	4.01264e-05
0.161451 	89.1499 	0.181634 	9.04809e-05
0.161706 	89.0089 	0.188274 	0.00011062
0.16196 	88.868 	0.174255 	5.96708e-05
0.162214 	88.7271 	0.160237 	8.72123e-06
0.162468 	88.5841 	0.158242 	1.53126e-05
0.162723 	88.4406 	0.15873 	3.37872e-05
0.162977 	88.2972 	0.159219 	4.29096e-05
0.163231 	88.1538 	0.159707 	2.47239e-05
0.163485 	88.0104 	0.160195 	6.53816e-06
0.16374 	87.8653 	0.170149 	2.95727e-05
0.163994 	87.7193 	0.185415 	7.57437e-05
0.164248 	87.5734 	0.194591 	0.000102724
0.164503 	87.4277 	0.180373 	5.59848e-05
0.164757 	87.282 	0.166155 	9.24538e-06
0.165011 	87.135 	0.16364 	1.05744e-05
0.165265 	86.9876 	0.164011 	2.37558e-05
0.16552 	86.8402 	0.164382 	3.26531e-05
0.165774 	86.6929 	0.164753 	1.96856e-05
0.166028 	86.5455 	0.165125 	6.718e-06
0.166282 	86.3973 	0.172599 	2.05559e-05
0.166537 	86.2483 	0.187708 	6.32059e-05
0.166791 	86.0992 	0.199429 	9.5995e-05
0.167045 	85.9505 	0.185039 	5.28018e-05
0.167299 	85.8018 	0.17065 	9.60865e-06
0.167554 	85.6523 	0.167652 	6.40056e-06
0.167808 	85.5027 	0.167913 	1.46319e-05
0.168062 	85.3531 	0.168174 	2.16779e-05
0.168316 	85.2035 	0.168436 	1.35842e-05
0.168571 	85.0538 	0.168697 	5.49047e-06
0.168825 	84.9039 	0.173682 	1.2759e-05
0.169079 	84.7534 	0.188627 	5.24225e-05
0.169333 	84.6028 	0.202888 	9.02314e-05
0.169588 	84.4526 	0.188358 	5.00485e-05
0.169842 	84.3025 	0.173828 	9.86556e-06
0.170096 	84.1521 	0.170381 	2.76673e-06
0.17035 	84.0018 	0.170541 	6.43338e-06
0.170605 	83.8514 	0.170701 	1.01e-05
0.170859 	83.701 	0.17086 	6.63124e-06
0.171113 	83.5506 	0.17102 	3.02742e-06
0.171367 	83.4002 	0.173519 	5.93565e-06
0.171622 	83.2496 	0.188294 	4.30271e-05
0.171876 	83.099 	0.203068 	8.01185e-05
0.17213 	82.9488 	0.190447 	4.76375e-05
0.172384 	82.7986 	0.175815 	1.00496e-05
0.172639 	82.6486 	0.171951 	-3.98035e-07
0.172893 	82.4988 	0.172016 	-9.41695e-07
0.173147 	82.349 	0.172082 	-1.48535e-06
0.173401 	82.1992 	0.172148 	-1.06945e-06
0.173656 	82.0494 	0.172214 	-5.3529e-07
0.17391 	81.8996 	0.172279 	-1.12531e-09
0.174164 	81.7501 	0.18683 	3.47358e-05
0.174418 	81.6006 	0.201418 	6.95624e-05
0.174673 	81.4515 	0.191404 	4.548e-05
0.174927 	81.3025 	0.176705 	1.01794e-05
0.175181 	81.1541 	0.172453 	-3.07191e-06
0.175435 	81.006 	0.172434 	-7.38892e-06
0.17569 	80.8578 	0.172416 	-1.17059e-05
0.175944 	80.7097 	0.172397 	-9.1842e-06
0.176198 	80.5615 	0.172378 	-4.94364e-06
0.176452 	80.4134 	0.172359 	-7.03084e-07
0.176707 	80.266 	0.184362 	2.72781e-05
0.176961 	80.1186 	0.198755 	5.998e-05
0.177215 	79.9717 	0.191362 	4.33919e-05
0.177469 	79.8248 	0.176648 	1.02397e-05
0.177724 	79.6789 	0.172038 	-5.29393e-06
0.177978 	79.5333 	0.171943 	-1.2954e-05
0.178232 	79.3877 	0.171849 	-2.06141e-05
0.178486 	79.2422 	0.171755 	-1.75241e-05