/*--------------------------------*- C++ -*----------------------------------*\
| =========                 |                                                 |
| \\      /  F ield         | OpenFOAM: The Open Source CFD Toolbox           |
|  \\    /   O peration     | Version:  v3.0+                                 |
|   \\  /    A nd           | Web:      www.OpenFOAM.com                      |
|    \\/     M anipulation  |                                                 |
\*---------------------------------------------------------------------------*/
FoamFile
{
    version     2.0;
    format      ascii;
    class       volVectorField;
    location    "8000";
    object      D;
}
// * * * * * * * * * * * * * * * * * * * * * * * * * * * * * * * * * * * * * //

dimensions      [0 1 0 0 0 0 0];

internalField   nonuniform List<vector> 
27023
(
(7.24009e-07 2.08625e-07 0)
(-7.2441e-07 2.08631e-07 0)
(-5.80968e-07 1.54349e-07 0)
(5.80636e-07 1.54313e-07 0)
(7.1392e-07 2.01421e-07 0)
(-7.14318e-07 2.01433e-07 0)
(-2.60722e-06 1.96765e-06 0)
(2.60638e-06 1.9677e-06 0)
(-3.37262e-07 9.15953e-08 0)
(3.3702e-07 9.14483e-08 0)
(-1.86934e-06 1.12252e-06 0)
(1.86857e-06 1.12262e-06 0)
(-7.88852e-08 6.67162e-08 0)
(7.88177e-08 6.64806e-08 0)
(1.38168e-06 4.63734e-06 0)
(-5.85563e-08 5.14756e-07 0)
(-7.22871e-08 4.858e-07 0)
(2.70286e-06 4.13379e-06 0)
(-2.70379e-06 4.13379e-06 0)
(-1.90711e-06 3.61302e-06 0)
(1.90619e-06 3.61302e-06 0)
(-2.63059e-06 1.99583e-06 0)
(2.62975e-06 1.99588e-06 0)
(-1.66828e-06 1.66408e-06 0)
(1.66742e-06 1.66412e-06 0)
(-3.63603e-07 3.14757e-06 0)
(1.13737e-06 1.13031e-06 0)
(-1.01366e-06 7.92642e-05 0)
(1.16316e-06 1.15693e-06 0)
(-3.87077e-06 2.1044e-05 0)
(-6.87671e-07 3.36531e-06 0)
(-1.94842e-06 3.65382e-06 0)
(1.9475e-06 3.65382e-06 0)
(2.64133e-06 6.83684e-06 0)
(1.39951e-06 4.71067e-06 0)
(-2.63031e-06 1.06157e-05 0)
(-1.59596e-06 2.78387e-06 0)
(1.59506e-06 2.78389e-06 0)
(-3.46802e-07 9.37019e-08 0)
(3.46589e-07 9.35829e-08 0)
(5.6974e-07 1.50921e-07 0)
(-5.70065e-07 1.50959e-07 0)
(2.40138e-06 2.07112e-05 0)
(7.28238e-07 2.08011e-07 0)
(-7.28643e-07 2.0802e-07 0)
(-2.74112e-06 4.18254e-06 0)
(2.74019e-06 4.18254e-06 0)
(-1.72316e-06 2.30245e-06 0)
(1.72229e-06 2.30247e-06 0)
(-2.49406e-06 1.06397e-05 0)
(-1.68643e-06 2.28257e-06 0)
(1.68555e-06 2.28258e-06 0)
(2.71024e-06 6.92657e-06 0)
(-6.82787e-08 3.2362e-08 0)
(6.81815e-08 3.21852e-08 0)
(-2.92526e-06 6.74819e-06 0)
(-3.04057e-06 2.76323e-05 0)
(-1.24928e-05 0.000110484 0)
(1.40744e-06 1.07974e-05 0)
(-5.75812e-07 1.53067e-07 0)
(5.75485e-07 1.53038e-07 0)
(-3.57043e-06 2.09347e-05 0)
(-1.93963e-07 4.24154e-06 0)
(-1.44733e-06 7.55816e-05 0)
(2.63764e-06 2.09443e-05 0)
(-6.43568e-07 3.35675e-06 0)
(-1.82342e-06 4.15626e-06 0)
(-4.01248e-07 3.13824e-06 0)
(1.11584e-06 7.11964e-07 0)
(1.55099e-06 1.07927e-05 0)
(-1.56204e-06 2.79012e-06 0)
(1.56114e-06 2.79013e-06 0)
(-2.24698e-06 2.15934e-06 0)
(2.24611e-06 2.15937e-06 0)
(-3.82355e-06 3.96553e-06 0)
(3.82263e-06 3.96552e-06 0)
(-4.4534e-08 4.7487e-08 0)
(4.44951e-08 4.72849e-08 0)
(3.17444e-06 2.64658e-06 0)
(-3.17532e-06 2.64657e-06 0)
(9.95594e-07 2.06347e-06 0)
(-1.85513e-06 1.11473e-06 0)
(1.85436e-06 1.11484e-06 0)
(-2.22577e-06 2.16806e-06 0)
(2.2249e-06 2.16809e-06 0)
(4.18237e-06 4.21946e-06 0)
(-4.18329e-06 4.21948e-06 0)
(1.82427e-06 4.15042e-06 0)
(-1.35389e-07 8.02557e-05 0)
(1.71814e-05 0.000249797 0)
(-1.66675e-05 0.000249654 0)
(-7.95872e-07 2.26363e-07 0)
(7.95431e-07 2.26353e-07 0)
(-6.59966e-07 5.44302e-07 0)
(1.28659e-07 5.10196e-08 0)
(1.61004e-06 1.49756e-06 0)
(-1.6109e-06 1.49751e-06 0)
(1.01618e-06 2.04167e-06 0)
(1.82625e-06 1.61011e-05 0)
(-3.33324e-08 1.2902e-05 0)
(3.6116e-06 2.28964e-05 0)
(1.72693e-05 0.000253398 0)
(-1.64327e-05 0.000253495 0)
(-2.33678e-06 1.82756e-06 0)
(2.33594e-06 1.82761e-06 0)
(-2.06078e-07 1.2817e-05 0)
(-2.61403e-06 2.11293e-06 0)
(2.61317e-06 2.11296e-06 0)
(-2.9418e-06 6.67152e-06 0)
(-1.33637e-05 0.000111922 0)
(-2.70674e-06 2.79681e-05 0)
(-2.60552e-06 2.12409e-06 0)
(2.60466e-06 2.12413e-06 0)
(-1.63455e-06 1.63457e-06 0)
(1.63369e-06 1.63461e-06 0)
(-3.84027e-06 4.01853e-06 0)
(3.83935e-06 4.01852e-06 0)
(-6.19009e-07 2.54637e-08 0)
(1.04254e-06 3.43048e-07 0)
(1.14881e-06 3.12823e-06 0)
(-1.1227e-06 5.48669e-06 0)
(-1.42718e-07 4.23033e-06 0)
(1.79472e-06 1.00831e-06 0)
(-1.79541e-06 1.00822e-06 0)
(-2.81069e-06 2.14916e-06 0)
(2.80984e-06 2.1492e-06 0)
(-7.98656e-07 2.23661e-07 0)
(7.9821e-07 2.23649e-07 0)
(-2.3108e-06 1.79617e-06 0)
(2.30996e-06 1.79623e-06 0)
(1.60188e-06 1.59536e-05 0)
(1.20656e-08 2.44659e-08 0)
(-1.19066e-08 2.38919e-08 0)
(6.76723e-07 3.47229e-06 0)
(-1.05425e-06 5.50072e-06 0)
(4.21174e-06 4.27241e-06 0)
(-4.21267e-06 4.27243e-06 0)
(-3.46952e-07 1.7683e-06 0)
(-2.63459e-06 3.73182e-06 0)
(2.63368e-06 3.73182e-06 0)
(2.36996e-06 1.6872e-06 0)
(-2.37078e-06 1.68713e-06 0)
(2.35496e-07 1.94803e-06 0)
(-2.52474e-06 1.88759e-06 0)
(2.5239e-06 1.88764e-06 0)
(6.79139e-07 3.52347e-06 0)
(2.5452e-06 2.92422e-05 0)
(-1.358e-06 9.15645e-07 0)
(-1.86951e-06 4.18789e-06 0)
(-1.11612e-06 4.20469e-07 0)
(1.11558e-06 4.20504e-07 0)
(-1.31167e-06 5.31458e-07 0)
(1.31105e-06 5.31503e-07 0)
(2.81263e-06 1.66805e-05 0)
(1.1931e-06 3.12078e-06 0)
(1.27604e-05 0.000148757 0)
(-1.26684e-05 0.0001487 0)
(-1.44526e-06 4.75282e-06 0)
(-2.63777e-06 3.69121e-06 0)
(2.63685e-06 3.69121e-06 0)
(4.98542e-06 1.36393e-05 0)
(3.01337e-06 2.931e-05 0)
(9.49448e-06 4.71812e-05 0)
(-3.48832e-07 1.18238e-05 0)
(1.50897e-06 7.08064e-07 0)
(-1.50962e-06 7.08e-07 0)
(2.20422e-06 1.51364e-06 0)
(-2.20503e-06 1.51356e-06 0)
(7.38851e-07 2.13413e-06 0)
(-7.51923e-08 2.08873e-06 0)
(-1.48236e-06 7.44142e-05 0)
(3.14743e-06 2.61312e-06 0)
(-3.14831e-06 2.6131e-06 0)
(1.04658e-05 0.000149204 0)
(-1.03881e-05 0.000149114 0)
(7.53972e-06 8.09545e-05 0)
(-2.28437e-07 1.17356e-05 0)
(2.44591e-07 1.91881e-06 0)
(6.33235e-06 8.10913e-05 0)
(-3.7681e-07 1.74735e-06 0)
(1.87185e-06 4.18198e-06 0)
(2.34579e-06 1.6728e-06 0)
(-2.34662e-06 1.67273e-06 0)
(3.44585e-06 2.32341e-05 0)
(3.1755e-06 6.20191e-06 0)
(3.26483e-06 6.20758e-06 0)
(1.57824e-06 1.49492e-06 0)
(-1.5791e-06 1.49488e-06 0)
(9.21262e-06 4.77541e-05 0)
(2.7153e-06 3.93821e-05 0)
(2.18675e-06 1.49002e-06 0)
(-2.18756e-06 1.48994e-06 0)
(9.11266e-07 1.70166e-06 0)
(-3.2979e-07 7.37566e-06 0)
(-2.80773e-06 2.15986e-06 0)
(2.80688e-06 2.1599e-06 0)
(7.48825e-06 2.30497e-05 0)
(2.07579e-06 1.34332e-06 0)
(-2.07658e-06 1.34322e-06 0)
(1.0191e-06 3.35484e-07 0)
(-1.50543e-06 4.7839e-06 0)
(1.09683e-06 7.27609e-07 0)
(-4.34427e-06 5.01442e-06 0)
(4.34332e-06 5.01441e-06 0)
(7.1346e-07 1.99157e-07 0)
(-7.1386e-07 1.99172e-07 0)
(9.61445e-07 2.97211e-06 0)
(5.41171e-06 1.31665e-05 0)
(-4.27302e-06 4.96686e-06 0)
(4.27208e-06 4.96684e-06 0)
(-4.43137e-10 1.03192e-08 0)
(4.40215e-10 1.02698e-08 0)
(-6.20603e-07 5.22906e-07 0)
(1.00341e-06 2.99062e-06 0)
(3.63697e-07 1.02859e-07 0)
(-3.63906e-07 1.03047e-07 0)
(1.0448e-06 1.65033e-06 0)
(-1.03208e-07 2.06768e-06 0)
(-9.71573e-07 4.81992e-05 0)
(3.43e-06 3.23513e-06 0)
(-3.43089e-06 3.23513e-06 0)
(2.92453e-06 4.0055e-05 0)
(1.81189e-06 1.02483e-06 0)
(-1.81259e-06 1.02474e-06 0)
(2.78592e-06 1.69242e-05 0)
(-3.07584e-06 3.15619e-06 0)
(3.07495e-06 3.15619e-06 0)
(-2.1871e-06 1.95366e-06 0)
(2.18624e-06 1.95371e-06 0)
(-1.93884e-07 6.94431e-08 0)
(1.93747e-07 6.92635e-08 0)
(-2.80764e-06 0.000113373 0)
(-3.18215e-06 3.21927e-06 0)
(3.18125e-06 3.21927e-06 0)
(4.82269e-06 1.3444e-05 0)
(-3.48573e-06 3.8599e-06 0)
(3.48481e-06 3.85989e-06 0)
(-5.97746e-06 8.39682e-06 0)
(-1.98829e-06 6.07814e-06 0)
(2.66901e-06 1.99062e-06 0)
(-2.66985e-06 1.99057e-06 0)
(-1.14909e-06 8.68794e-07 0)
(-8.55304e-06 3.31685e-05 0)
(-4.24956e-06 9.60856e-06 0)
(2.33924e-06 5.17546e-06 0)
(-6.5286e-07 3.29966e-07 0)
(8.68159e-08 2.77403e-05 0)
(1.04316e-06 1.00839e-06 0)
(-5.30567e-06 1.97678e-05 0)
(2.37864e-06 5.25019e-06 0)
(2.93055e-06 2.45888e-06 0)
(-2.93142e-06 2.45885e-06 0)
(2.12223e-06 1.52633e-05 0)
(5.53456e-07 8.83205e-07 0)
(7.53787e-06 2.40057e-05 0)
(5.39951e-06 1.33486e-05 0)
(-5.03421e-06 8.51995e-06 0)
(5.59514e-06 1.62576e-05 0)
(-2.17366e-06 3.77288e-06 0)
(2.17273e-06 3.77288e-06 0)
(-5.48715e-07 -8.25785e-09 0)
(-1.38755e-07 1.46544e-06 0)
(-1.19072e-05 6.18354e-05 0)
(-3.53007e-06 3.84907e-06 0)
(3.52915e-06 3.84906e-06 0)
(-2.54876e-06 1.91278e-06 0)
(2.54792e-06 1.91283e-06 0)
(-3.91644e-07 4.90145e-06 0)
(4.38007e-07 8.7587e-07 0)
(-1.77611e-06 9.80819e-07 0)
(1.77541e-06 9.80907e-07 0)
(-6.33309e-06 4.38577e-05 0)
(1.01977e-06 4.03012e-06 0)
(2.92371e-06 9.49888e-06 0)
(-1.03072e-06 1.86526e-05 0)
(-2.8305e-07 7.47449e-06 0)
(1.52512e-06 7.23302e-07 0)
(-1.52578e-06 7.23236e-07 0)
(2.26592e-06 4.12849e-06 0)
(-2.26685e-06 4.12849e-06 0)
(-6.80777e-06 3.37813e-05 0)
(3.71085e-06 9.78701e-06 0)
(-1.2815e-05 0.000269893 0)
(1.26993e-05 0.000269616 0)
(5.1313e-09 4.18777e-08 0)
(-5.10689e-09 4.20803e-08 0)
(1.35371e-06 8.40155e-06 0)
(2.20702e-06 1.11676e-05 0)
(-3.62333e-07 3.02763e-07 0)
(-1.20264e-06 4.4846e-07 0)
(-3.57857e-06 0.000223345 0)
(1.47205e-06 8.53814e-06 0)
(2.88874e-06 2.88196e-06 0)
(-2.88963e-06 2.88195e-06 0)
(3.88768e-06 3.84111e-06 0)
(-3.88859e-06 3.84112e-06 0)
(4.77002e-06 1.94513e-05 0)
(-4.22664e-06 8.7736e-06 0)
(4.15834e-06 4.64826e-06 0)
(-4.15928e-06 4.64828e-06 0)
(-7.1163e-08 7.51161e-08 0)
(-2.38714e-07 5.6506e-07 0)
(2.27334e-06 1.64796e-06 0)
(-2.27417e-06 1.64789e-06 0)
(2.98722e-07 -9.7246e-09 0)
(-5.1955e-07 1.2009e-07 0)
(5.19242e-07 1.20006e-07 0)
(-1.06728e-06 1.64289e-06 0)
(-1.55769e-06 5.20861e-06 0)
(6.46689e-07 2.67294e-05 0)
(-7.55825e-07 6.77463e-05 0)
(-9.61848e-09 3.89056e-08 0)
(9.64867e-09 3.8707e-08 0)
(-2.38449e-07 5.43429e-08 0)
(2.38293e-07 5.42091e-08 0)
(-4.05842e-06 1.76017e-05 0)
(1.86931e-06 2.97954e-06 0)
(-1.87021e-06 2.97953e-06 0)
(-6.41611e-08 3.11794e-06 0)
(-1.74229e-06 6.45824e-06 0)
(-1.16367e-07 8.13905e-08 0)
(1.16252e-07 8.10962e-08 0)
(1.25454e-06 1.22619e-06 0)
(7.76767e-07 1.80564e-07 0)
(6.13851e-07 2.78271e-08 0)
(-2.07692e-06 8.44697e-06 0)
(6.90827e-06 1.54195e-05 0)
(-4.6418e-07 4.9215e-06 0)
(-1.32069e-06 8.94355e-07 0)
(1.48744e-06 8.48326e-07 0)
(6.06221e-07 1.33104e-06 0)
(-1.48805e-06 8.48738e-07 0)
(7.9827e-06 1.66339e-05 0)
(-1.24318e-07 5.14302e-08 0)
(-3.74108e-06 1.75517e-05 0)
(9.68369e-07 3.36821e-07 0)
(-9.6886e-07 3.368e-07 0)
(6.88889e-07 3.20495e-06 0)
(-3.23632e-07 5.95117e-07 0)
(-2.40024e-06 2.02922e-06 0)
(2.39939e-06 2.02926e-06 0)
(1.10024e-05 4.1829e-05 0)
(-1.10485e-05 4.18385e-05 0)
(-7.33428e-10 1.00886e-08 0)
(7.29171e-10 1.00401e-08 0)
(1.05186e-06 7.0879e-07 0)
(-7.55103e-07 2.3079e-07 0)
(7.54694e-07 2.30797e-07 0)
(3.95742e-06 3.86286e-05 0)
(-5.78076e-07 4.47749e-06 0)
(7.77648e-06 3.70755e-05 0)
(-7.77759e-06 3.70756e-05 0)
(-3.2348e-06 3.24038e-06 0)
(3.2339e-06 3.24038e-06 0)
(-5.11518e-08 2.91519e-08 0)
(5.10906e-08 2.89874e-08 0)
(-1.92004e-07 1.04911e-07 0)
(3.09145e-06 2.6263e-06 0)
(-3.09232e-06 2.62628e-06 0)
(3.87573e-07 9.90675e-06 0)
(1.17314e-06 4.93731e-07 0)
(4.03421e-06 4.69365e-06 0)
(-4.03515e-06 4.69367e-06 0)
(2.24306e-06 1.49368e-06 0)
(-2.24386e-06 1.49359e-06 0)
(-4.9277e-06 0.000109764 0)
(3.66006e-06 1.72097e-05 0)
(1.99846e-07 6.72368e-07 0)
(8.99629e-07 2.82116e-07 0)
(-9.00105e-07 2.8211e-07 0)
(3.18889e-06 2.73863e-06 0)
(-3.18977e-06 2.73862e-06 0)
(5.46407e-07 3.03406e-07 0)
(3.09195e-06 5.67609e-06 0)
(5.99724e-07 1.71153e-08 0)
(4.00264e-06 8.56769e-06 0)
(3.08977e-06 5.75235e-06 0)
(1.27237e-06 1.83012e-06 0)
(9.22024e-06 6.44123e-05 0)
(-1.4579e-06 2.48056e-06 0)
(-1.66476e-06 6.40411e-06 0)
(1.45701e-06 2.48055e-06 0)
(-2.67639e-06 2.05282e-06 0)
(2.67554e-06 2.05287e-06 0)
(1.0407e-06 1.06988e-06 0)
(-4.72436e-07 2.04239e-06 0)
(-3.13866e-06 3.85617e-05 0)
(5.87153e-06 1.64595e-05 0)
(1.41419e-06 9.27746e-07 0)
(7.71795e-08 -1.23301e-07 0)
(9.66081e-07 8.10144e-07 0)
(-6.86729e-06 0.000223615 0)
(-1.17421e-06 4.9385e-07 0)
(-5.53087e-06 0.000248236 0)
(-3.4283e-08 4.56299e-07 0)
(6.42005e-07 1.07465e-05 0)
(-2.0116e-06 5.83111e-06 0)
(-2.67419e-06 2.51357e-05 0)
(6.71625e-06 1.13092e-05 0)
(2.19418e-06 5.84332e-06 0)
(-2.16937e-06 1.964e-06 0)
(2.16852e-06 1.96404e-06 0)
(-7.59231e-07 3.96715e-07 0)
(9.23327e-07 1.67222e-06 0)
(-2.21876e-06 6.76815e-05 0)
(9.31109e-07 2.92384e-07 0)
(-9.316e-07 2.92378e-07 0)
(-2.02004e-08 2.52316e-06 0)
(-9.80242e-07 4.63856e-06 0)
(1.45331e-06 1.28843e-06 0)
(-9.90911e-08 3.12803e-06 0)
(-1.45199e-06 1.28823e-06 0)
(-1.75733e-09 3.04574e-08 0)
(1.75958e-09 3.0319e-08 0)
(4.14844e-06 5.94985e-05 0)
(-3.05654e-06 7.6032e-06 0)
(-1.05362e-06 2.99665e-07 0)
(-3.16619e-06 5.42769e-06 0)
(-2.2007e-06 8.36668e-06 0)
(2.43444e-06 6.30615e-06 0)
(-6.76182e-07 1.76597e-06 0)
(3.5997e-06 8.43613e-06 0)
(-4.72267e-07 -4.14832e-08 0)
(-2.37544e-07 1.91491e-06 0)
(-1.09312e-06 4.89315e-05 0)
(5.78343e-06 9.8431e-06 0)
(3.98648e-06 4.61854e-06 0)
(-3.98741e-06 4.61855e-06 0)
(7.61504e-06 1.7881e-05 0)
(-7.85888e-07 1.88257e-05 0)
(-1.29328e-05 6.225e-05 0)
(1.05854e-06 1.62177e-06 0)
(-3.66436e-06 4.18117e-06 0)
(3.66344e-06 4.18116e-06 0)
(2.09677e-06 2.27359e-06 0)
(-2.09764e-06 2.27356e-06 0)
(-3.70043e-06 7.52387e-06 0)
(-1.29247e-07 -1.15285e-07 0)
(-4.13499e-07 1.00476e-07 0)
(4.1326e-07 1.00411e-07 0)
(1.19458e-05 3.75775e-05 0)
(-1.19474e-05 3.75776e-05 0)
(-2.21161e-06 3.28524e-06 0)
(2.2107e-06 3.28525e-06 0)
(-6.79584e-10 1.72689e-08 0)
(6.82357e-10 1.73502e-08 0)
(6.68236e-07 1.70692e-06 0)
(9.87138e-07 9.0617e-06 0)
(2.65745e-06 5.86515e-06 0)
(1.01423e-07 -9.58909e-08 0)
(3.80576e-07 -1.9612e-08 0)
(2.04963e-06 1.28849e-06 0)
(-2.05041e-06 1.28839e-06 0)
(2.07663e-06 1.3165e-06 0)
(-2.0774e-06 1.31641e-06 0)
(-2.58322e-06 4.74722e-06 0)
(2.58228e-06 4.74721e-06 0)
(-1.24075e-06 5.03207e-07 0)
(1.24017e-06 5.03251e-07 0)
(4.37557e-07 1.62781e-06 0)
(-3.00362e-08 1.87946e-06 0)
(5.35092e-07 3.95696e-06 0)
(3.15544e-06 8.71072e-06 0)
(-7.64354e-07 1.36606e-06 0)
(-8.77398e-06 3.36764e-05 0)
(1.17151e-06 6.50938e-06 0)
(2.69919e-06 2.02819e-06 0)
(-2.70004e-06 2.02815e-06 0)
(3.4523e-06 8.93365e-06 0)
(-3.8524e-06 3.85352e-05 0)
(-4.48759e-06 8.61858e-05 0)
(-5.04298e-06 1.01116e-05 0)
(-3.59656e-06 7.23994e-06 0)
(1.26452e-06 1.15477e-06 0)
(6.07808e-07 3.11258e-06 0)
(-2.78961e-06 2.68061e-06 0)
(2.78873e-06 2.68062e-06 0)
(6.34291e-06 8.58485e-05 0)
(-6.13937e-06 8.5857e-05 0)
(-5.41046e-07 1.40956e-07 0)
(5.40733e-07 1.40888e-07 0)
(-3.1621e-06 3.23274e-06 0)
(3.1612e-06 3.23274e-06 0)
(-1.11587e-07 3.59308e-06 0)
(-4.61787e-07 1.38943e-06 0)
(6.2814e-07 3.08323e-06 0)
(-5.82606e-07 8.79769e-09 0)
(-9.73048e-06 2.38656e-05 0)
(-6.40236e-06 0.000180433 0)
(1.8262e-06 1.05787e-06 0)
(-1.82695e-06 1.05776e-06 0)
(1.92219e-06 6.21522e-06 0)
(-1.20318e-06 4.41574e-07 0)
(-1.06928e-07 3.64882e-06 0)
(1.87397e-06 3.02011e-06 0)
(-1.87487e-06 3.0201e-06 0)
(-8.39212e-07 2.64727e-07 0)
(8.38766e-07 2.64734e-07 0)
(-9.6663e-07 7.98486e-07 0)
(7.36573e-06 1.78839e-05 0)
(2.35554e-06 6.33461e-06 0)
(8.7709e-07 2.09423e-07 0)
(-8.77621e-07 2.09454e-07 0)
(6.63046e-06 3.44749e-05 0)
(2.49473e-07 6.28106e-07 0)
(-1.53758e-06 2.3488e-06 0)
(1.53671e-06 2.34882e-06 0)
(1.24413e-06 1.79623e-06 0)
(-2.27632e-06 1.51035e-06 0)
(2.27552e-06 1.51043e-06 0)
(-1.91463e-06 1.17109e-06 0)
(1.91386e-06 1.17119e-06 0)
(1.42664e-06 1.03715e-06 0)
(1.61301e-06 8.2775e-07 0)
(-1.61367e-06 8.27677e-07 0)
(1.3644e-06 6.12571e-06 0)
(3.20878e-06 1.49528e-05 0)
(-3.46306e-06 4.15929e-06 0)
(3.46214e-06 4.15928e-06 0)
(3.16598e-06 5.42938e-06 0)
(3.92155e-06 4.39276e-06 0)
(-3.92248e-06 4.39278e-06 0)
(-7.42881e-06 3.36761e-05 0)
(2.61921e-06 2.46413e-06 0)
(-2.62008e-06 2.46411e-06 0)
(2.31504e-06 4.16233e-06 0)
(-2.31598e-06 4.16233e-06 0)
(5.72573e-07 3.54217e-06 0)
(-1.35584e-06 6.33121e-07 0)
(1.35525e-06 6.33176e-07 0)
(1.17753e-05 7.8734e-05 0)
(6.57294e-07 1.09221e-05 0)
(4.22649e-07 3.52049e-06 0)
(4.98481e-07 2.05595e-06 0)
(-1.81571e-06 1.52908e-06 0)
(1.81485e-06 1.52914e-06 0)
(3.05915e-06 2.62892e-06 0)
(-3.06003e-06 2.62891e-06 0)
(2.03674e-06 6.23275e-06 0)
(7.49652e-06 2.27344e-05 0)
(-1.27329e-06 1.83027e-06 0)
(-4.12805e-07 3.96641e-05 0)
(1.29886e-06 9.20045e-07 0)
(1.27543e-06 1.12723e-06 0)
(-6.3659e-06 8.41248e-05 0)
(4.05092e-07 9.75962e-08 0)
(-4.05327e-07 9.76628e-08 0)
(8.85358e-06 2.32941e-05 0)
(3.91159e-06 3.89249e-06 0)
(-3.91251e-06 3.8925e-06 0)
(-6.95908e-06 4.44133e-05 0)
(-1.42312e-07 3.48366e-06 0)
(2.40465e-06 2.05768e-06 0)
(-2.4055e-06 2.05764e-06 0)
(1.16425e-06 4.74592e-07 0)
(7.66426e-06 3.75661e-05 0)
(-7.66539e-06 3.75662e-05 0)
(-4.08086e-08 2.55253e-06 0)
(-1.04142e-07 -1.37015e-07 0)
(1.70402e-06 1.80312e-05 0)
(1.08034e-06 1.08504e-06 0)
(1.73663e-06 6.012e-06 0)
(-1.54738e-06 2.31395e-06 0)
(1.54651e-06 2.31396e-06 0)
(4.97551e-06 1.97116e-05 0)
(1.69433e-08 3.95276e-07 0)
(-2.76691e-06 3.33161e-06 0)
(2.76601e-06 3.33161e-06 0)
(-8.30142e-07 5.35985e-06 0)
(1.92216e-06 3.74932e-06 0)
(-1.92308e-06 3.74932e-06 0)
(6.81991e-07 5.13603e-06 0)
(-9.10283e-07 3.14145e-07 0)
(9.09817e-07 3.14165e-07 0)
(2.06288e-06 1.34006e-06 0)
(-2.06368e-06 1.33997e-06 0)
(1.01965e-06 3.90387e-07 0)
(-1.02015e-06 3.90353e-07 0)
(-4.5223e-06 1.56279e-05 0)
(1.1349e-06 1.62781e-06 0)
(-1.13859e-06 1.62832e-06 0)
(-5.27895e-06 1.9449e-05 0)
(1.15521e-06 4.50633e-07 0)
(-1.15577e-06 4.50594e-07 0)
(2.57025e-06 1.1157e-05 0)
(-5.20743e-07 7.50691e-07 0)
(7.10141e-07 2.15536e-06 0)
(3.22325e-06 7.62739e-06 0)
(-9.85992e-08 3.1412e-07 0)
(1.59181e-07 3.58216e-08 0)
(5.48207e-07 3.32699e-07 0)
(5.84744e-06 9.73911e-06 0)
(-1.5982e-06 1.63754e-06 0)
(1.59734e-06 1.63758e-06 0)
(-9.67693e-06 7.35982e-05 0)
(-1.59295e-06 1.67836e-06 0)
(1.59209e-06 1.6784e-06 0)
(1.33789e-05 0.000118453 0)
(2.16133e-06 2.10992e-06 0)
(-2.16219e-06 2.10989e-06 0)
(5.87767e-07 3.9846e-06 0)
(2.74991e-07 9.96579e-06 0)
(1.95934e-06 3.71421e-06 0)
(-1.96026e-06 3.71421e-06 0)
(-3.53823e-06 4.07097e-06 0)
(3.53731e-06 4.07096e-06 0)
(-4.22668e-06 8.89363e-06 0)
(-8.36972e-07 1.61652e-06 0)
(-1.19864e-06 9.39937e-07 0)
(-2.45007e-06 2.71098e-06 0)
(2.44918e-06 2.71099e-06 0)
(-3.41628e-06 3.34601e-06 0)
(3.41537e-06 3.34601e-06 0)
(-4.01226e-06 2.79106e-05 0)
(1.29046e-06 6.1774e-06 0)
(-1.22761e-05 0.000274553 0)
(1.20783e-05 0.000274193 0)
(-1.30143e-06 2.42616e-06 0)
(1.30046e-06 2.42607e-06 0)
(1.35262e-05 0.000110807 0)
(3.09676e-09 3.40716e-09 0)
(9.64787e-10 1.40099e-09 0)
(-9.69537e-10 1.40783e-09 0)
(-3.11193e-09 3.42378e-09 0)
(2.03978e-06 1.55101e-05 0)
(-7.6354e-08 6.86697e-08 0)
(7.62656e-08 6.84302e-08 0)
(1.13937e-06 4.22036e-07 0)
(-1.13993e-06 4.22002e-07 0)
(7.8089e-07 2.22701e-07 0)
(-7.81322e-07 2.2271e-07 0)
(-9.17037e-07 3.19879e-07 0)
(9.16569e-07 3.19901e-07 0)
(-2.31275e-07 1.1234e-06 0)
(-1.9685e-06 1.87698e-06 0)
(1.96764e-06 1.87702e-06 0)
(2.77061e-06 6.68727e-06 0)
(7.18976e-06 9.21405e-05 0)
(1.86344e-06 1.80871e-06 0)
(-1.8643e-06 1.80867e-06 0)
(1.652e-06 5.99059e-06 0)
(-2.28629e-06 2.5228e-06 0)
(2.28541e-06 2.52282e-06 0)
(2.23645e-06 6.91335e-06 0)
(1.29745e-06 3.82474e-06 0)
(-3.60094e-06 7.34056e-06 0)
(9.78266e-07 3.63789e-07 0)
(-9.78752e-07 3.63759e-07 0)
(-3.2129e-06 6.16861e-06 0)
(-2.60479e-07 7.67087e-06 0)
(9.11156e-09 2.11093e-06 0)
(4.60927e-06 3.91924e-05 0)
(2.64316e-06 2.45918e-06 0)
(-2.64403e-06 2.45916e-06 0)
(2.44594e-07 -3.12673e-09 0)
(-1.39835e-06 9.84704e-07 0)
(3.14719e-06 2.70582e-06 0)
(-3.14807e-06 2.70581e-06 0)
(-2.28461e-10 1.47852e-08 0)
(2.29359e-10 1.48538e-08 0)
(-2.53694e-06 4.78222e-06 0)
(2.536e-06 4.78222e-06 0)
(-6.54398e-06 3.4458e-05 0)
(1.08119e-06 2.631e-05 0)
(-3.61088e-06 3.21449e-06 0)
(3.60998e-06 3.21449e-06 0)
(1.10071e-06 1.83245e-06 0)
(1.42281e-06 9.09325e-07 0)
(-1.88862e-07 -1.33045e-07 0)
(-1.3542e-05 0.000208583 0)
(-1.16745e-06 4.76422e-07 0)
(-1.64915e-06 4.54698e-06 0)
(-1.45547e-06 1.04535e-05 0)
(7.84068e-08 7.85361e-08 0)
(5.26103e-07 2.03428e-06 0)
(3.73778e-06 8.50316e-06 0)
(-1.07847e-06 3.40038e-07 0)
(-3.05632e-06 6.68032e-06 0)
(3.79278e-06 9.96118e-06 0)
(7.56923e-07 1.85444e-07 0)
(6.59716e-06 8.42152e-05 0)
(-1.13017e-08 4.09402e-08 0)
(1.13301e-08 4.07361e-08 0)
(-2.19008e-06 2.14311e-06 0)
(2.18922e-06 2.14314e-06 0)
(-1.13996e-06 5.00983e-07 0)
(1.40624e-07 2.80864e-06 0)
(1.2769e-06 6.51796e-06 0)
(2.43585e-06 7.87605e-05 0)
(-1.3112e-05 7.83951e-05 0)
(-2.88309e-06 6.4385e-06 0)
(1.43577e-06 1.02024e-06 0)
(2.79086e-07 5.69945e-06 0)
(-1.24314e-05 0.000120599 0)
(1.33121e-05 0.000120384 0)
(4.48122e-07 1.85385e-06 0)
(-7.57362e-07 2.00264e-07 0)
(7.56928e-07 2.00241e-07 0)
(-1.32439e-06 1.12069e-06 0)
(-7.69285e-06 2.13465e-05 0)
(3.67856e-07 5.75208e-06 0)
(5.58185e-06 4.47683e-05 0)
(-2.82143e-06 2.7065e-06 0)
(2.82055e-06 2.70651e-06 0)
(4.17759e-06 4.72244e-06 0)
(-4.17853e-06 4.72246e-06 0)
(1.20271e-09 3.46293e-08 0)
(-1.17813e-09 3.44601e-08 0)
(4.03814e-07 3.08874e-05 0)
(1.99828e-07 6.41633e-07 0)
(1.2658e-06 4.33796e-06 0)
(1.35802e-07 1.53001e-06 0)
(1.47884e-06 1.80874e-06 0)
(-1.47971e-06 1.80871e-06 0)
(-7.39571e-06 6.85075e-05 0)
(-3.53652e-07 8.62958e-08 0)
(3.53438e-07 8.62029e-08 0)
(3.45569e-06 3.27653e-06 0)
(-3.45659e-06 3.27653e-06 0)
(7.84719e-06 1.81309e-05 0)
(-2.48203e-06 2.3915e-06 0)
(2.48116e-06 2.39152e-06 0)
(4.3132e-07 2.06416e-08 0)
(-3.7738e-06 7.61354e-06 0)
(2.26773e-06 7.50247e-06 0)
(2.68238e-06 2.23775e-05 0)
(-4.90286e-06 1.23977e-05 0)
(-4.2831e-07 7.99864e-06 0)
(-3.43248e-06 4.18066e-06 0)
(3.43155e-06 4.18065e-06 0)
(-8.71628e-06 9.27239e-05 0)
(3.82557e-07 2.49872e-06 0)
(-2.26806e-06 1.52219e-06 0)
(2.26726e-06 1.52227e-06 0)
(2.88957e-06 1.40309e-05 0)
(4.87271e-06 6.80884e-06 0)
(8.66609e-07 1.16042e-06 0)
(-4.87372e-06 6.80867e-06 0)
(-6.5429e-07 6.81745e-08 0)
(6.53644e-07 6.78103e-08 0)
(-2.85566e-06 8.98659e-06 0)
(-8.88954e-07 2.25826e-07 0)
(4.00365e-06 1.35965e-05 0)
(2.64835e-08 -4.86865e-08 0)
(2.67622e-06 6.70319e-06 0)
(7.66286e-07 1.92693e-06 0)
(-1.097e-05 3.09076e-05 0)
(6.09669e-07 3.15507e-06 0)
(-8.607e-07 1.96549e-07 0)
(8.60166e-07 1.96514e-07 0)
(3.96586e-06 4.37501e-06 0)
(-3.96679e-06 4.37502e-06 0)
(-1.31747e-06 6.68209e-06 0)
(-5.6934e-07 2.56722e-05 0)
(2.67707e-06 2.55914e-06 0)
(-2.67795e-06 2.55912e-06 0)
(2.64742e-06 5.94055e-06 0)
(-3.76613e-06 1.5884e-05 0)
(-1.21272e-05 0.000118463 0)
(-6.80812e-07 3.49906e-06 0)
(-4.16382e-06 2.1641e-05 0)
(-7.40181e-07 2.23599e-07 0)
(7.39779e-07 2.23605e-07 0)
(7.06381e-07 5.28543e-06 0)
(-1.56283e-06 1.91253e-06 0)
(1.56196e-06 1.91256e-06 0)
(3.73411e-06 4.00423e-06 0)
(-3.73503e-06 4.00424e-06 0)
(-5.82831e-08 3.65674e-06 0)
(2.14056e-06 7.51389e-06 0)
(1.29557e-07 7.53407e-08 0)
(1.0969e-05 3.09084e-05 0)
(-1.71249e-06 9.37879e-07 0)
(1.71176e-06 9.37982e-07 0)
(-2.39995e-06 8.94211e-06 0)
(-1.24484e-07 1.42977e-06 0)
(1.86533e-06 1.20404e-05 0)
(4.37196e-06 1.27024e-05 0)
(2.31445e-06 1.63721e-05 0)
(1.03926e-06 9.76969e-07 0)
(4.53541e-07 1.73358e-06 0)
(9.48191e-07 4.06967e-07 0)
(-2.06936e-06 6.11222e-06 0)
(-3.7348e-06 3.86224e-06 0)
(3.73389e-06 3.86223e-06 0)
(-1.88644e-06 1.12304e-06 0)
(1.88568e-06 1.12315e-06 0)
(-1.09847e-05 4.91018e-05 0)
(1.08068e-05 4.90526e-05 0)
(5.36214e-07 3.49889e-06 0)
(-1.24262e-07 -1.35228e-07 0)
(-3.60747e-06 3.81434e-06 0)
(3.60656e-06 3.81433e-06 0)
(3.84636e-06 7.41894e-06 0)
(3.73129e-06 8.7585e-06 0)
(-7.34054e-08 4.56486e-06 0)
(2.59439e-06 2.13858e-05 0)
(-4.46862e-06 0.000252676 0)
(-1.62548e-07 9.35783e-08 0)
(1.62448e-07 9.33189e-08 0)
(1.06705e-06 4.03314e-06 0)
(5.08934e-07 4.9815e-06 0)
(-2.50407e-06 1.83048e-06 0)
(2.50324e-06 1.83054e-06 0)
(1.0944e-07 2.0579e-06 0)
(-4.44426e-06 3.91464e-05 0)
(8.016e-08 -1.36102e-07 0)
(-3.32929e-06 2.86736e-06 0)
(3.3284e-06 2.86736e-06 0)
(9.19547e-07 2.10408e-07 0)
(-9.20125e-07 2.10452e-07 0)
(1.26046e-06 1.44049e-06 0)
(7.21552e-07 1.90502e-07 0)
(-7.21967e-07 1.90528e-07 0)
(2.08154e-06 4.90114e-05 0)
(3.27365e-07 9.07381e-06 0)
(-1.04731e-06 7.79622e-05 0)
(-9.53587e-07 4.00783e-05 0)
(-3.51545e-06 4.1042e-06 0)
(3.51453e-06 4.10419e-06 0)
(1.49289e-06 2.64927e-05 0)
(1.85029e-06 3.12076e-06 0)
(-1.85119e-06 3.12075e-06 0)
(-4.39969e-06 4.86355e-06 0)
(4.39875e-06 4.86353e-06 0)
(1.0986e-06 1.6123e-06 0)
(-1.09935e-06 1.61268e-06 0)
(-1.25396e-06 5.18253e-07 0)
(1.25338e-06 5.18299e-07 0)
(2.33124e-06 1.61284e-06 0)
(-2.33205e-06 1.61277e-06 0)
(-4.41272e-07 3.1658e-06 0)
(5.55089e-06 1.53394e-05 0)
(-2.42933e-06 1.72718e-06 0)
(2.4285e-06 1.72725e-06 0)
(7.26054e-06 2.20703e-05 0)
(1.78563e-07 2.17714e-06 0)
(-1.25674e-06 4.90905e-07 0)
(1.25614e-06 4.90947e-07 0)
(-3.2794e-06 4.42843e-06 0)
(3.27846e-06 4.42842e-06 0)
(1.48138e-06 7.75636e-07 0)
(2.70988e-06 2.57473e-06 0)
(-2.71075e-06 2.57471e-06 0)
(3.75456e-06 3.42267e-06 0)
(-3.75546e-06 3.42268e-06 0)
(-1.48212e-06 7.75526e-07 0)
(-1.60052e-06 8.22546e-06 0)
(-2.08366e-06 6.48733e-06 0)
(-4.02627e-06 8.74639e-05 0)
(-2.78116e-06 3.88716e-06 0)
(2.78024e-06 3.88715e-06 0)
(4.76127e-06 6.78798e-06 0)
(-1.67041e-07 1.85185e-06 0)
(-1.30527e-07 7.57312e-08 0)
(-4.76224e-06 6.78781e-06 0)
(-9.87194e-07 2.1097e-06 0)
(-1.31956e-06 1.08978e-06 0)
(2.14348e-06 6.96467e-06 0)
(-1.57497e-06 1.946e-06 0)
(1.5741e-06 1.94602e-06 0)
(-1.63494e-08 1.83946e-06 0)
(-4.51615e-07 1.77628e-06 0)
(2.97022e-06 8.3994e-06 0)
(-1.06965e-05 3.73911e-05 0)
(1.06951e-05 3.73909e-05 0)
(-2.31095e-06 1.49409e-05 0)
(1.1235e-07 2.82537e-06 0)
(-2.95985e-08 4.47677e-08 0)
(2.96e-08 4.4561e-08 0)
(1.03347e-06 9.04712e-07 0)
(1.22052e-06 1.20196e-06 0)
(2.37465e-06 1.12463e-05 0)
(-2.4891e-06 1.82857e-06 0)
(2.48826e-06 1.82863e-06 0)
(1.51731e-06 8.64518e-07 0)
(1.12893e-05 8.00173e-05 0)
(1.48354e-06 7.893e-07 0)
(-3.56542e-06 2.75855e-05 0)
(-1.20713e-06 4.97549e-07 0)
(1.20657e-06 4.97595e-07 0)
(5.91959e-06 1.73409e-05 0)
(-7.41074e-07 1.33096e-06 0)
(-1.51766e-06 8.64508e-07 0)
(2.01154e-05 0.000194504 0)
(-2.00598e-05 0.000194496 0)
(-1.48429e-06 7.89191e-07 0)
(4.30448e-06 1.22826e-05 0)
(-1.27324e-06 5.02191e-07 0)
(1.27263e-06 5.02234e-07 0)
(3.78327e-06 4.67949e-06 0)
(-3.7842e-06 4.67951e-06 0)
(-3.58825e-06 9.2987e-06 0)
(7.11607e-07 2.19557e-06 0)
(-2.29084e-06 8.8165e-06 0)
(-1.96598e-06 1.22379e-06 0)
(1.9652e-06 1.22389e-06 0)
(2.74585e-06 3.11597e-06 0)
(-2.74675e-06 3.11597e-06 0)
(9.62204e-09 7.14021e-07 0)
(3.08017e-06 2.22476e-05 0)
(-2.75966e-06 3.91663e-06 0)
(2.75874e-06 3.91662e-06 0)
(2.63886e-06 9.36772e-06 0)
(-3.39542e-07 1.09627e-07 0)
(3.39342e-07 1.09466e-07 0)
(1.62369e-06 5.63136e-06 0)
(9.1159e-07 1.9626e-07 0)
(-5.18602e-06 8.16815e-06 0)
(4.15771e-06 1.27448e-05 0)
(3.58878e-06 9.05226e-06 0)
(7.54531e-06 2.36357e-05 0)
(-1.58978e-06 4.51046e-06 0)
(1.65909e-06 4.406e-06 0)
(7.30319e-07 7.50512e-06 0)
(-3.46072e-06 3.38127e-06 0)
(3.45981e-06 3.38126e-06 0)
(4.8756e-07 4.97887e-05 0)
(-6.32272e-08 1.03433e-06 0)
(-7.17362e-07 3.46767e-06 0)
(2.37432e-06 7.84286e-06 0)
(1.44696e-06 1.83306e-05 0)
(2.60715e-07 3.9205e-07 0)
(2.05163e-07 2.20552e-06 0)
(-3.62633e-06 1.91607e-05 0)
(3.30351e-06 2.55756e-05 0)
(-9.48354e-08 7.42978e-07 0)
(-4.94142e-07 1.48484e-06 0)
(1.0421e-06 9.31522e-07 0)
(-9.84635e-07 2.14491e-06 0)
(8.83818e-06 2.36647e-05 0)
(-1.35931e-06 1.05711e-05 0)
(1.19177e-06 6.88726e-06 0)
(4.15712e-07 9.93898e-08 0)
(-4.15953e-07 9.94498e-08 0)
(-9.86841e-07 8.71188e-07 0)
(3.40265e-07 1.02828e-07 0)
(-3.4047e-07 1.03029e-07 0)
(1.21494e-06 4.37595e-06 0)
(6.34861e-07 3.19041e-06 0)
(-1.8385e-06 1.52264e-06 0)
(1.83765e-06 1.5227e-06 0)
(-9.28184e-07 2.76863e-07 0)
(-2.33021e-07 9.79358e-08 0)
(2.32854e-07 9.76896e-08 0)
(8.53487e-07 7.58362e-07 0)
(3.12941e-06 3.87417e-05 0)
(-9.12172e-07 1.96334e-07 0)
(1.16263e-06 3.90497e-07 0)
(-1.3936e-06 9.58184e-07 0)
(-9.22741e-07 7.00457e-07 0)
(6.73302e-06 1.14886e-05 0)
(-1.24498e-06 1.79645e-06 0)
(-2.88336e-06 1.59477e-05 0)
(-3.72926e-06 1.03783e-05 0)
(-7.75041e-07 2.31763e-07 0)
(7.74619e-07 2.31763e-07 0)
(-5.8788e-07 4.41989e-06 0)
(4.21714e-07 1.59547e-06 0)
(-1.44591e-07 4.68065e-08 0)
(1.44462e-07 4.66217e-08 0)
(-1.37489e-06 7.82825e-07 0)
(9.78451e-06 0.000368759 0)
(-8.58244e-06 7.2834e-05 0)
(-1.56681e-06 6.42061e-06 0)
(1.50193e-06 3.38511e-06 0)
(-1.50279e-06 3.3851e-06 0)
(3.98061e-06 8.68846e-06 0)
(4.19423e-07 2.49655e-06 0)
(-6.93229e-06 6.93584e-05 0)
(1.08515e-07 3.46031e-08 0)
(-1.0864e-07 3.47915e-08 0)
(7.79489e-06 6.24989e-05 0)
(5.6946e-06 8.29229e-05 0)
(4.29364e-08 -9.65432e-08 0)
(-2.74762e-07 7.79476e-06 0)
(5.5484e-07 1.05954e-06 0)
(-4.36928e-06 1.04008e-05 0)
(-9.64791e-07 7.63761e-07 0)
(5.53314e-06 2.59181e-05 0)
(1.54122e-06 3.36551e-06 0)
(-1.54214e-06 3.36551e-06 0)
(5.63358e-06 1.22529e-05 0)
(3.09719e-06 6.52683e-06 0)
(-6.3862e-08 1.11453e-06 0)
(-2.0717e-07 1.09477e-06 0)
(8.82087e-06 6.31036e-05 0)
(1.67119e-06 8.8371e-07 0)
(-1.67191e-06 8.83614e-07 0)
(-1.19336e-07 1.84231e-06 0)
(1.20611e-06 3.48363e-06 0)
(5.82874e-06 1.42187e-05 0)
(4.26158e-07 1.01832e-07 0)
(-4.26404e-07 1.01887e-07 0)
(3.11702e-06 1.4666e-05 0)
(-5.20969e-07 5.16767e-07 0)
(-3.47117e-06 1.60148e-05 0)
(2.90031e-06 2.92139e-06 0)
(-2.9012e-06 2.92138e-06 0)
(6.40551e-07 3.42963e-06 0)
(1.41748e-06 1.42285e-06 0)
(-1.41792e-06 1.42226e-06 0)
(-1.49554e-06 6.92352e-07 0)
(1.49487e-06 6.9242e-07 0)
(-7.47738e-06 7.30019e-05 0)
(1.73218e-06 4.47201e-06 0)
(-3.25929e-08 4.80597e-08 0)
(3.259e-08 4.78465e-08 0)
(1.05914e-06 1.80987e-06 0)
(-6.70796e-08 7.53169e-08 0)
(-1.22902e-05 0.000283814 0)
(-3.54951e-06 3.66972e-06 0)
(3.5486e-06 3.66971e-06 0)
(7.60547e-06 0.000178812 0)
(-2.34256e-06 1.58045e-06 0)
(2.34176e-06 1.58052e-06 0)
(-2.48712e-06 0.00014824 0)
(-5.48027e-06 2.59162e-05 0)
(6.46049e-07 3.28597e-06 0)
(1.74335e-06 1.00828e-06 0)
(9.72657e-07 1.76754e-06 0)
(5.98126e-07 7.5668e-06 0)
(-1.74411e-06 1.00817e-06 0)
(-5.82361e-06 1.44595e-05 0)
(-3.01407e-07 2.96374e-06 0)
(1.21861e-06 3.59006e-06 0)
(1.64045e-06 3.35656e-06 0)
(-1.64138e-06 3.35656e-06 0)
(-1.1018e-06 4.94634e-07 0)
(1.14172e-06 5.51459e-07 0)