/*--------------------------------*- C++ -*----------------------------------*\
| =========                 |                                                 |
| \\      /  F ield         | OpenFOAM: The Open Source CFD Toolbox           |
|  \\    /   O peration     | Version:  v3.0+                                 |
|   \\  /    A nd           | Web:      www.OpenFOAM.com                      |
|    \\/     M anipulation  |                                                 |
\*---------------------------------------------------------------------------*/
FoamFile
{
    version     2.0;
    format      ascii;
    class       volScalarField;
    location    "8000";
    object      sigmaxy;
}
// * * * * * * * * * * * * * * * * * * * * * * * * * * * * * * * * * * * * * //

dimensions      [1 -1 -2 0 0 0 0];

internalField   nonuniform List<scalar> 
27023
(
-1.61109e+07
-1.61145e+07
-1.19021e+07
-1.18997e+07
-1.53499e+07
-1.53535e+07
-1.50344e+07
-1.50315e+07
-5.99219e+06
-5.99152e+06
-1.47179e+07
-1.47134e+07
-1.39691e+06
-1.40427e+06
-2.54732e+06
1.16804e+07
1.11653e+07
-2.55968e+06
-2.56093e+06
-2.02729e+06
-2.02614e+06
-1.35244e+07
-1.35218e+07
-1.35086e+06
-1.34806e+06
-297145
3.98279e+06
-1.40393e+06
3.66326e+06
-3.12466e+06
-680823
-2.48929e+06
-2.48889e+06
-2.14816e+06
-1.63371e+06
-1.85014e+06
-1.07347e+06
-1.07149e+06
-5.97873e+06
-5.97895e+06
-1.1918e+07
-1.19204e+07
-1.98583e+06
-1.55491e+07
-1.55526e+07
-2.47938e+06
-2.47818e+06
-1.6208e+06
-1.61974e+06
-2.69655e+06
-765414
-764282
-2.36186e+06
-87769
-87527.6
-2.18131e+06
-1.77693e+06
-1.59114e+06
-2.99532e+06
-1.23061e+07
-1.23038e+07
-1.65626e+06
-2.03608e+06
-858035
-3.23066e+06
-287584
-1.79889e+06
115425
4.16493e+06
-2.89695e+06
-1.45089e+06
-1.44878e+06
-4.3785e+06
-4.37565e+06
-1.5373e+06
-1.53718e+06
-359085
-356793
-6.13512e+06
-6.13577e+06
1.56001e+06
-1.39545e+07
-1.39498e+07
-4.83946e+06
-4.83669e+06
-783993
-783954
-1.79921e+06
-3.0588e+06
-2.92196e+06
-2.80256e+06
-1.57585e+07
-1.57546e+07
8.68455e+06
-2.20162e+06
-411201
-410264
2.15008e+06
-3.24636e+06
-3.5261e+06
-1.89617e+06
-165866
-66096.1
-9.375e+06
-9.3711e+06
-2.09746e+06
-9.58531e+06
-9.5826e+06
-2.30156e+06
-1.89256e+06
-3.6583e+06
-1.00328e+07
-1.003e+07
-389644
-387475
-896638
-896477
3.0054e+06
525902
-1.24748e+06
-2.076e+06
-1.46777e+06
-3.0443e+07
-3.04474e+07
-1.44452e+07
-1.44436e+07
-1.52058e+07
-1.52019e+07
-1.01279e+07
-1.01238e+07
-1.751e+06
-1.57251e+06
-1.5665e+06
-1.15612e+06
-2.56822e+06
68981
68978.9
3.82218e+06
-2.92377e+06
-2.92257e+06
-1.666e+07
-1.66642e+07
3.70022e+06
-1.4687e+07
-1.46837e+07
-564911
-2.14156e+06
223126
-2.55761e+06
-2.39328e+07
-2.39288e+07
-2.03443e+07
-2.03407e+07
-3.1507e+06
-856348
-645876
-633192
-2.03236e+06
-3.01428e+06
-3.0131e+06
-1.83353e+06
-2.94417e+06
-1.42794e+06
-3.30683e+06
-2.14615e+07
-2.14628e+07
-1.49729e+07
-1.49778e+07
2.63141e+06
2.84161e+06
-4.02172e+06
-7.64025e+06
-7.64096e+06
-3.09082e+06
-2.81966e+06
-2.60872e+06
-2.06924e+06
3.45287e+06
-3.27811e+06
4.76052e+06
-2.56196e+06
-1.55354e+07
-1.55396e+07
-2.14484e+06
-2.14094e+06
-1.71176e+06
-393672
-391789
-1.58824e+06
-3.16022e+06
-1.63555e+07
-1.63606e+07
3.38616e+06
-2.75371e+06
-1.46613e+07
-1.46596e+07
-596108
-1.7081e+07
-1.70862e+07
907520
-2.64432e+06
3.76936e+06
-1.00463e+06
-1.00427e+06
-1.46255e+07
-1.4629e+07
77965.8
-1.896e+06
-384367
-384021
-190451
-189513
9.7493e+06
-714425
-5.73988e+06
-5.73564e+06
2.9629e+06
3.59342e+06
-3.72226e+06
-3.21744e+06
-3.21785e+06
-1.51567e+06
-2.95814e+07
-2.95856e+07
-1.48112e+06
-4.43594e+06
-4.43501e+06
-4.9699e+06
-4.96639e+06
-2.87877e+06
-2.88021e+06
-2.85346e+06
-3.492e+06
-3.49117e+06
-1.65476e+06
-2.51374e+06
-2.51332e+06
-211791
-2.07901e+06
-1.72512e+07
-1.72534e+07
3.21529e+06
-2.04797e+06
-2.12347e+06
-2.63004e+06
8.54717e+06
-3.93564e+06
5.3719e+06
-828725
-2.10223e+06
-7.60035e+06
-7.60183e+06
-2.98699e+06
8.02541e+06
-342282
-1.13026e+06
-1.53298e+06
-584619
-2.81854e+06
-2.81841e+06
3.99658e+06
6.38043e+06
539857
-1.81299e+06
-1.81256e+06
-1.4466e+07
-1.4463e+07
-1.73381e+06
8.66596e+06
-2.67036e+07
-2.67002e+07
-1.15076e+06
-1.82247e+06
-1.62398e+06
-1.87163e+06
-2.60687e+06
-2.07227e+07
-2.07237e+07
-2.03884e+06
-2.04016e+06
-2.67455e+06
-2.17032e+06
-3.23231e+06
-3.09892e+06
-74005.1
-73366.7
-2.36247e+06
-2.02015e+06
1.15121e+07
-4.50261e+06
-1.52949e+06
-3.01561e+06
-5.31161e+06
-5.31289e+06
-1.12649e+06
-1.12655e+06
-2.18072e+06
-2.11852e+06
-991722
-991840
-1.69691e+06
1.09218e+07
-1.28409e+07
-1.28455e+07
-367265
-7.30578e+06
-7.30235e+06
2.54013e+06
-2.66531e+06
-3.87494e+06
-1.94887e+06
23248.8
22253.5
-2.51502e+06
-2.51677e+06
-2.59395e+06
-2.40147e+06
-2.40362e+06
253301
-2.92789e+06
-2.43821e+06
-2.44832e+06
2.42279e+06
5.91271e+06
1.48137e+06
-3.05249e+06
-417397
-2.45969e+06
1.73713e+06
-3.50367e+06
5.92006e+06
-3.41843e+06
-882144
-2.16073e+06
-1.75205e+06
-2.26874e+07
-2.26912e+07
-830847
1.03312e+07
-7.66367e+06
-7.6604e+06
-681913
-660840
-178774
-177894
5.06816e+06
-1.82341e+07
-1.82302e+07
-1.15909e+06
-1.54803e+06
-2.60515e+06
-2.6235e+06
-3.81348e+06
-3.81272e+06
-6456.74
-6385.28
1.26104e+07
-6.64794e+06
-6.64894e+06
-2.19154e+06
-108174
-580979
-581266
-2.24394e+07
-2.2444e+07
-3.38323e+06
-2.81536e+06
1.075e+07
-1.83327e+07
-1.83363e+07
-6.06841e+06
-6.0691e+06
9.46971e+06
-2.31949e+06
1.73101e+06
-1.83577e+06
-1.9045e+06
1.4961e+06
-594760
-821564
-1.94943e+06
-822261
-1.36266e+07
-1.36241e+07
5.02451e+06
2.72319e+06
-2.04698e+06
-2.43004e+06
-743444
4.15367e+06
6.34307e+06
-2.59305e+06
-137292
-3.81404e+06
1.16226e+07
-3.3613e+06
-1.83517e+06
-1.71682e+06
-683805
-1.68655e+06
-5.50804e+06
-5.50457e+06
7.9879e+06
3.34938e+06
-1.55515e+06
-1.801e+07
-1.80134e+07
1.51453e+06
-2.50286e+06
353838
-205269
548087
-411066
-409309
-3.49275e+06
-1.6973e+06
-4.75599e+06
-2.28324e+06
-1.72565e+06
-1.75889e+06
4.26665e+06
-1.20206e+06
4.67812e+06
3.47707e+06
-1.53938e+06
-916793
-1.34494e+06
-1.34522e+06
-233390
-3.49549e+06
-1.7355e+06
3.00458e+06
-1.34166e+06
-1.34136e+06
-3.46404e+06
-3.46626e+06
-1.52015e+06
4.19569e+06
-7.74891e+06
-7.74906e+06
-78225.6
-80608.1
-2.77334e+06
-2.77153e+06
-216779
-217847
3.92878e+06
-2.67406e+06
-2.44973e+06
1.05032e+07
8.89667e+06
-2.02629e+07
-2.02678e+07
-2.07931e+07
-2.07978e+07
-1.88383e+06
-1.88145e+06
-2.44307e+07
-2.44264e+07
5.06856e+06
4.15924e+06
-1.07893e+06
-2.69457e+06
5.35331e+06
-190474
-2.56101e+06
-1.54222e+07
-1.54243e+07
-1.45276e+06
-1.63898e+06
-3.09334e+06
-1.87116e+06
-2.07206e+06
2.64739e+06
-375338
-5.3982e+06
-5.3966e+06
-372351
-704272
-1.01131e+07
-1.01104e+07
-4.23915e+06
-4.23834e+06
-1.18447e+06
6.15043e+06
-68398
4.57563e+06
162573
-3.19499e+06
-1.68699e+07
-1.68736e+07
-2.38458e+06
-4.65036e+06
-718506
-1.7172e+06
-1.71953e+06
-1.96295e+07
-1.96256e+07
6.36312e+06
-424186
-2.74388e+06
-1.02706e+07
-1.02744e+07
-2.36767e+06
1.09592e+07
-580035
-582393
2.00235e+06
-2.52415e+07
-2.52374e+07
-1.51185e+07
-1.51137e+07
-62425.4
-2.86801e+07
-2.86832e+07
-1.95008e+06
-1.51334e+06
-1.63671e+06
-1.6362e+06
-2.34617e+06
-1.60443e+06
-1.60456e+06
-993906
-6.22177e+06
-6.22382e+06
-2.71612e+06
-2.71809e+06
-917793
-3.18036e+07
-3.17995e+07
-1.81744e+06
-2.21157e+06
-1.2523e+06
2.56417e+06
-3.64646e+06
-3.64157e+06
-7.1239e+06
-7.12494e+06
-2.63373e+06
-2.1809e+06
1.52791e+06
-1.46397e+06
1.23818e+06
2.66635e+06
-3.34911e+06
-7.55281e+06
-7.55264e+06
-1.05945e+06
-420760
-420875
-2.95704e+06
-614103
-7.05605e+06
-7.0593e+06
-1.06276e+06
-1.55574e+06
-1.57367e+06
1.37353e+06
4.99947e+06
-2.20552e+06
4.03296e+06
-2.82687e+06
-598927
-600545
-2.01629e+06
1.21889e+07
-3.25141e+06
-3.25023e+06
-2.74242e+06
-2.61963e+06
-2.61835e+06
-1.87334e+06
-2.27482e+07
-2.27441e+07
-1.65133e+07
-1.65187e+07
-2.64029e+07
-2.64073e+07
-1.38593e+06
2.26892e+06
2.22513e+06
-2.58972e+06
-2.48684e+07
-2.48726e+07
-1.83932e+06
8.67555e+06
1.84727e+06
-2.53947e+06
1.17935e+07
-1.84295e+06
1.05129e+07
-181359
-479624
-476878
-3.22477e+06
-291999
-288069
-3.18026e+06
-4.04513e+06
-4.04803e+06
-1.84334e+06
-3.23188e+06
-1.83982e+06
-1.83942e+06
-1.61415e+06
-1.61374e+06
-989803
4.29095e+06
3.00002e+06
-4.51194e+06
-4.51028e+06
-2.7845e+06
-2.78396e+06
-3.42642e+06
-3.04463e+06
-831295
-900674
244328
245044
78391.1
-11975
-128769
-129400
-12039.1
-2.17075e+06
-1.27393e+06
-1.27948e+06
-2.1693e+07
-2.16969e+07
-1.54183e+07
-1.54221e+07
-2.33375e+07
-2.33334e+07
7.69527e+06
-3.09465e+06
-3.09124e+06
-1.94026e+06
-4.10507e+06
-2.77992e+06
-2.78331e+06
-2.28311e+06
-3.73145e+06
-3.72955e+06
-1.80122e+06
-1.97254e+06
-1.08271e+06
-2.54903e+07
-2.54946e+07
-2.38727e+06
-3.20763e+06
3.39987e+06
-3.87196e+06
-5.82442e+06
-5.82651e+06
1.17477e+07
722918
-5.79437e+06
-5.79524e+06
-243879
-245061
-2.77789e+06
-2.77531e+06
-2.0078e+06
-1.62371e+06
-945078
-944973
1.73742e+06
-602521
6.81062e+06
-104492
-1.16594e+06
-2.6806e+06
-2.15914e+06
-1.74817e+06
3.32463e+06
-2.23808e+06
-1.96794e+06
-1.69754e+06
-1.34242e+06
5.6618e+06
-3.16427e+06
-108313
-109168
-4.11423e+06
-4.11144e+06
1.31258e+06
981360
-2.52375e+06
-1.35378e+06
-264685
-1.50015e+06
191783
-1.81422e+06
-191689
225829
4.26431e+06
-1.29921e+07
-1.2988e+07
2.57107e+06
-1.5673e+06
-3.01102e+06
-3.1651e+06
-5.85387e+06
-5.85237e+06
-396369
-396547
-11978.6
-12032.5
-1.71581e+06
1.00075e+07
-1.59247e+06
5.43155e+06
320645
318963
-1.87682e+06
-5.99697e+06
-5.99786e+06
-2.23515e+06
-2.23558e+06
-1.22104e+06
-5.35832e+06
-5.35607e+06
9.49941e+06
-1.7067e+06
-2.20316e+06
-3.41346e+06
-2.48964e+06
-2.24957e+06
-2.40961e+06
-2.40911e+06
-1.97961e+06
1.38463e+06
-2.1044e+07
-2.10397e+07
-1.56716e+06
-728905
5.49419e+06
-723011
-2.12452e+06
-2.08252e+06
-2.13806e+06
2.75085e+06
-2.54932e+06
1.12348e+07
-2.5166e+06
2.76982e+06
-305971
-154406
-8.71986e+06
-8.71585e+06
-735237
-735340
-3.10382e+06
-2.05281e+06
-5.54284e+06
-5.54469e+06
-1.93517e+06
-1.57268e+06
-3.19683e+06
-1.34775e+06
-2.8864e+06
-1.82037e+07
-1.81999e+07
-2.4654e+06
-571412
-570933
-1.10934e+06
-1.10958e+06
-1.21963e+06
-2.86473e+06
-2.80592e+06
-319175
-1.51288e+07
-1.51263e+07
-2.47149e+06
6.0285e+06
-3.27143e+06
-1.78749e+06
-1.83402e+06
4.73353e+06
4.8476e+06
5.33129e+06
-2.76551e+06
-1.71239e+06
-1.71221e+06
-1.75987e+07
-1.75944e+07
-2.71616e+06
-2.63792e+06
-775996
8.66831e+06
-2.21463e+06
-2.21433e+06
-1.95309e+06
-2.23507e+06
-1.56531e+06
-1.52504e+06
-1.58985e+06
-3.40482e+06
-3.40493e+06
-1.82875e+06
-1.67514e+06
-1.5717e+07
-1.57137e+07
2.99094e+06
-3.58992e+06
5.50923e+06
-4.46341e+06
-4.46301e+06
-7.64363e+06
-7.64453e+06
2.83634e+06
-1.29228e+07
-1.29267e+07
-1.78365e+06
-2.20917e+06
-3.59857e+06
-3.88116e+06
-2.23741e+06
-2.23698e+06
-3.62804e+06
-2.30784e+06
-2.31074e+06
-191867
-191742
3.3828e+06
3.2295e+06
-2.56149e+07
-2.56106e+07
-1.84672e+07
-1.84715e+07
-513294
-1.31037e+06
-1.7711e+07
-1.77074e+07
-1.43603e+06
3.06553e+06
-2.06376e+07
-2.06334e+07
-1.93584e+06
-1.93517e+06
-5.8629e+06
-6.22473e+06
-6.22654e+06
-65557.4
-65563.6
-5.86612e+06
-2.8717e+06
-1.81885e+06
-2.13669e+06
-2.49935e+06
-2.49827e+06
-554359
3.93777e+06
-2.8488e+06
-549077
1.38683e+06
1.64786e+06
-2.94398e+06
156017
156421
4.03717e+06
3.83584e+06
-1.71732e+06
-17915.5
-22685.1
-3.38073e+06
420881
-134806
-135083
4.7471e+06
3.67643e+06
-3.30446e+06
-1.57673e+07
-1.57639e+07
-5.0558e+06
-1.33095e+06
-5.54921e+06
-1.24899e+06
-2.6704e+07
-2.66996e+07
-1.70834e+06
5.42973e+06
-5.01755e+06
-2.85326e+06
-2.78983e+06
-5.55123e+06
-2.09322e+06
-2.00061e+07
-2.00021e+07
-1.30045e+06
-1.30096e+06
-1.5811e+06
2.33384e+06
-1.82077e+06
-1.60079e+07
-1.60029e+07
-3.81138e+06
-3.81266e+06
9.93795e+06
-1.49807e+06
-2.94493e+06
-2.94384e+06
-2.72667e+06
-6.14073e+06
-6.14101e+06
-2.58149e+06
-4.00874e+06
-688170
-2.64215e+06
-2.54974e+06
-1.96335e+06
-1.69233e+06
-1.79272e+06
-1.9335e+06
-2.80789e+06
-2.80748e+06
-3.55012e+06
8.41187e+06
-537610
-2.02796e+06
-3.63717e+06
1.19855e+07
2.34005e+06
-3.22934e+06
-3.50152e+06
1.05648e+07
5.0235e+06
5.42275e+06
1.85816e+06
217969
-3.35919e+06
-2.35236e+06
-7.90751e+06
-7.90744e+06
5.25498e+06
-5.87285e+06
-5.86929e+06
-2.48221e+06
-359054
-3.19169e+06
-3.18659e+06
2.706e+06
-4.70416e+06
-4.70276e+06
6.40135e+06
-2.63281e+06
-4.02435e+06
-5.95316e+06
41735.2
5.99424e+06
388797
2.02662e+06
-3.30299e+06
-2.02096e+06
-1.74157e+07
-1.74119e+07
-2.14441e+06
4.89609e+06
-1.00471e+06
-1.00617e+06
-1.63016e+06
-2.55519e+06
-1.0777e+06
-2.34322e+06
-1.89204e+06
-1.88709e+06
-1.56219e+06
1.47966e+06
-2.90277e+06
-282378
-281843
-472070
-2.03079e+06
1.00304e+07
-2.01975e+06
7.5041e+06
-2.30916e+06
5.5318e+06
-2.93238e+06
-1.34561e+06
-1.3439e+06
-2.08807e+06
-1.44002e+06
8.07266e+06
8.0465e+06
-2.94939e+06
-1.59092e+07
-1.5911e+07
4.39231e+06
-1.44302e+06
-1.91026e+06
-8.23912e+06
-8.23913e+06
-3.25658e+06
1.05132e+07
-3.36406e+06
-4.80231e+06
-4.80359e+06
-646464
1.34729e+06
1.33516e+06
-1.59683e+07
-1.59693e+07
-2.78994e+06
-2.49063e+06
-359296
-358965
2.90163e+06
-1.52875e+06
-3.11378e+06
-1.72351e+06
-1.7231e+06
-3.22534e+06
-2.57989e+07
-2.57953e+07
-3.9537e+06
-3.16854e+06
-770141
-1.15039e+07
2.45249e+06
-3.2376e+06
-1.15073e+07
-595138
383965
-1.36126e+06
-1.74429e+06
-1.74702e+06
1.48227e+06
1.38374e+06
-1.36447e+06
3.61277e+06
-2.58492e+06
-2.07263e+06
-3.47431e+06
-2.49743e+06
2.57163e+06
-2.88751e+06
-3.04372e+06
1.00725e+07
1.43945e+06
7.4555e+06
-96936.3
-1.40627e+06
-1.16443e+06
-1.44417e+06
8.62556e+06
-1.81748e+06
-1.93875e+06
-3.16159e+07
-3.16201e+07
1.06419e+07
-4.00353e+06
-1.24806e+06
-1.24263e+06
-3.67174e+06
-3.67052e+06
-677329
-2.57973e+06
-1.15636e+06
-3.96515e+06
-3.9671e+06
-2.05337e+06
-2.05314e+06
-3.0501e+06
9.59106e+06
-3.12114e+06
9.67718e+06
-1.91859e+06
1.25393e+07
4.18104e+06
5.27791e+06
-1.24279e+06
-2.27733e+06
-2.27383e+06
2.92146e+06
3.001e+06
5.86722e+06
-1.69344e+06
-1.15498e+06
-1.15474e+06
1.03014e+07
1.71406e+06
4.94121e+06
-2.2953e+06
-1.38273e+06
-3.11098e+06
-893110
-1.77392e+06
-1.79864e+06
-2.33026e+06
-3.42467e+06
-1.64487e+06
-3.57813e+06
-3.57456e+06
-2.07189e+06
4.54659e+06
-3.45297e+06
-1.61164e+06
-1.12589e+06
-44501.5
-45053.2
5.40279e+06
101486
-4.97165e+06
-4.97193e+06
-6.50884e+06
-6.50914e+06
9.15804e+06
-3.67897e+06
-3.38494e+06
-24329.6
-2.18656e+07
-2.18701e+07
-7.41366e+06
-7.412e+06
9.17906e+06
-2.15379e+06
-2.15337e+06
-1.09742e+06
-811595
-392977
-157103
-156279
5.99008e+06
7.47139e+06
804417
-1.98014e+06
-1.36287e+07
-1.36334e+07
4.91843e+06
-2.11935e+06
-2.42306e+06
-2.91204e+06
-2.96741e+06
-781870
3.00204e+06
3.01031e+06
-2.37383e+06
-2.37424e+06
-229763
1.10907e+06
1.10462e+06
-4.73503e+06
-4.73621e+06
129600
-2.34937e+06
-1.50675e+06
-2.4485e+06
-9.56046e+06
-9.56009e+06
3.94273e+06
8.44983e+06
-557920
-2.95451e+06
-1.85696e+07
-1.85733e+07
-1.79939e+06
-966243
-422839
-4.32124e+06
-4.32013e+06
-2.25873e+06
1.80247e+06
-2.67172e+06
-4.07946e+06
-2.22181e+07
-2.22141e+07
-2.84612e+06
-3.56446e+06
-3.56244e+06
-2.67834e+06
-857190
-716619
-496384
4.23939e+06
-2.31754e+06
-3.04788e+06
-1.86189e+06
-1.64013e+06
5.81418e+06
3.72436e+06
-128058
-127607
-854526
-6.80294e+06
-6.80285e+06
-1.69403e+07
-1.69353e+07
-2.75652e+06
-2.07188e+07
-2.07141e+07
-2.65333e+07
-2.65359e+07
-26210
-26208.5
-2.06303e+06
-1.09384e+06
-1.09361e+06
-1.85092e+06
-1.93221e+06
-1.70759e+06
-1.43957e+06
-3.05196e+06
-3.57981e+06
-1.4615e+06
-1.45211e+06
-8.73777e+06
-8.74288e+06
-1.40616e+06
-1.28907e+06
5.90302e+06
-1.02866e+06
-2.01681e+06
-1.74029e+06
-2.13085e+06
1.13626e+07
-1.98497e+06
-3.90705e+06
-3.90791e+06
-1.12093e+06
2.81822e+06
-1.19976e+06
-1.52226e+06
4.14305e+06
6.72595e+06
135681
135808
3.60034e+06
-1.60798e+06
1.19807e+06
1.12535e+06
-2.21626e+06
-2.12174e+06
186472
-770937
-774366
-2.43198e+06
5.15453e+06
48453.1
-9.20716e+06
304068
189880
-9.21249e+06
-2.28106e+06
-1.83892e+06
1.71045e+06
-1.98779e+06
4.1806e+06
-2.42477e+06
-2.50033e+06
-2.77204e+06
-3.32724e+06
-2.67248e+06
-1.42072e+06
47644.7
-2.05909e+06
-2.15328e+06
-2.1527e+06
-1.51269e+06
1.0585e+07
3.35671e+06
5.77321e+06
-1.3956e+06
-7.61047e+06
207109
805980
-1.99462e+06
-2.27641e+06
-7.61996e+06
-3.50431e+06
-2.7231e+06
-2.26782e+06
-3.40137e+06
-108854
-255802
-2.24826e+06
-271272
-269372
-1.33309e+06
-1.55559e+07
-1.55594e+07
4.20119e+06
-1.3445e+07
-1.34392e+07
1.11139e+07
-1.73661e+07
-1.73623e+07
-1.65705e+06
-566425
-1.45142e+06
265121
265342
-3.79456e+06
-1.7361e+06
-736515
-1.91501e+06
-1.5912e+07
-1.59066e+07
-5.85412e+06
3.55773e+06
4.88738e+06
-1.77869e+06
-1.76188e+06
-1.75111e+06
-35392.7
-35301.3
4.43276e+06
-2.10584e+06
-2.61049e+07
-2.61006e+07
-6.66012e+06
-6.65733e+06
-1.03881e+06
-1.7243e+06
-1.05248e+06
-6.84486e+06
-6.84083e+06
-3.23089e+06
-236377
-235890
-2.12365e+06
-2.122e+06
-6.57748e+06
-6.57962e+06
-874920
-1.74922e+06
-1.74881e+06
-1.55467e+07
-1.55474e+07
-2.76378e+06
-2.87383e+06
-9506.91
-808976
4.95805e+06
3.89011e+06
-814147
2.47704e+06
1.39438e+06
-2.56411e+06
-2.72597e+06
-2.37431e+06
-2.06547e+06
-2.06514e+06
1.47996e+06
-2.70743e+07
-2.70771e+07
-8.97948e+06
-8.9772e+06
4.06437e+06
-3.32043e+06
-3.32293e+06
-1.10303e+06
-1.09637e+06
-1.8152e+06
-948018
-929215
-3.23688e+06
-407777
-407843
-2.47859e+06
-1.41351e+06
-1.8635e+06
1.09485e+07
2.62472e+06
2.70931e+06
-2.0608e+06
-1.77581e+06
5.18574e+06
-2.96258e+06
14451.7
14425.3
-9.11606e+06
-9.11758e+06
-2.10457e+06
-1.71196e+06
-2.33058e+07
-2.33014e+07
-2.11073e+06
356355
-3.23558e+06
760562
483242
3.69341e+06
3.72883e+06
-1.42215e+06
-3.44309e+06
-2.01397e+07
-2.01437e+07
-1.73791e+06
-1.73967e+06
-2.84047e+06
-2.84155e+06
-1.35955e+06
-1.35413e+06
-2.71967e+06
-1.60366e+06
-2.04165e+06
-2.78098e+06
355314
9.94336e+06
-2.16449e+06
-2.16605e+06
-2.50705e+06
-1.93999e+06
-2.12801e+06
-1.04101e+07
-1.04135e+07
6.54037e+06
-2.92189e+06
-1.02704e+06
-3.67737e+06
-3.67555e+06
1.82506e+06
1.19985e+07
-2.5928e+06
-2.59391e+06
7.28169e+06
-3.56321e+06
-3.56646e+06
-1.70473e+06
-773148
2.74087e+06
-1.23939e+06
-1.44024e+06
-1.41435e+06
-572058
-280857
-1.87336e+07
-1.87301e+07
-2.6145e+06
-1.96397e+07
-1.96363e+07
3.97472e+06
-4.77131e+06
-4.76918e+06
-1.81887e+07
-1.81925e+07
-2.20513e+06
-6.41596e+06
-6.42285e+06
-2.49847e+06
-2.49924e+06
-945485
3.49476e+06
-1.45556e+06
-2.25193e+07
-2.25155e+07
-1.56252e+06
-1.85221e+06
1.14572e+06
1.15219e+06
-3.28589e+06
-2.95046e+07
-2.94998e+07
4.31215e+06
-2.57867e+06
-1.54525e+06
-1.5451e+06
-272671
-270863
-5.32191e+06
-6.88102e+06
-6.87826e+06
-1.2305e+06
-788633
-784129
-4.09618e+06
-4.09695e+06
8.37753e+06
-94591.7
-2.85097e+07
-2.85051e+07
-1.15896e+07
-1.15913e+07
3.04873e+06
7.63088e+06
-7.09299e+06
-7.09262e+06
-1.62216e+06
-108889
-108278
-1.13129e+06
-1.13132e+06
6.09432e+06
-1.02026e+07
-1.02015e+07
-1.52628e+06
-5.8883e+06
-5.89057e+06
1.53362e+06
1.05668e+07
-3.02549e+06
-3.02617e+06
-2.1317e+07
-2.13217e+07
-1.05531e+06
1.02335e+07
-1.12681e+06
7.41092e+06
-2.03487e+06
2.1988e+06
5.95772e+06
4.34969e+06
-3.12355e+06
-3.1714e+06
-3.13701e+06
-3.13808e+06
-1.50868e+06
-1.50835e+06
-1.81919e+06
-2.61689e+06
-3.58163e+06
1.20983e+07
-577332
-2.55492e+06
-1.5932e+06
-1.23362e+06
-2.3718e+06
-2.62014e+06
-2.61798e+06
-2.12782e+07
-2.12819e+07
4.03978e+06
-3.17152e+06
-94567.4
8.26317e+06
9.72901e+06
-1.65146e+06
2.0912e+06
-1.2177e+06
-1.68112e+06
-1.67634e+06
6.39961e+06
-980403
-980482
127620
-2.83917e+07
-2.83962e+07
-1.47117e+07
-1.47163e+07
8.77895e+06
-4.38522e+06
-4.38805e+06
-9.53174e+06
-9.53081e+06
-6.69718e+06
-6.69321e+06
-2.58891e+07
-2.58849e+07
-1.31789e+06
829053
-1.5532e+06
-2.29017e+06
-1.80078e+07
-1.80111e+07
-4.66024e+06
-4.66324e+06
-1.29663e+06
-1.24893e+06
1.53929e+06
-1.00838e+06
-1.0082e+06
-2.64367e+06
-2.35188e+06
-2.17228e+06
4.03171e+06
-2.47265e+06
-2.71026e+06
-1.63753e+06
826009
818378
-2.913e+06
-3.05481e+06
-2.99261e+06
-1.752e+06
-1.75465e+06
-622120
-1.92209e+06
4.71309e+06
-2.0217e+06
-1.76379e+06
-1.43651e+06
-2.16011e+06
-1.24752e+07
-1.24727e+07
-3.78111e+06
-3.77997e+06
-1.93647e+07
-1.93611e+07
-2.01405e+06
-3.39277e+06
-928213
6.69852e+06
3.227e+06
-1.30593e+06
-1.51701e+06
-3.39906e+06
340663
-61507.7
-62193.4
-2.81476e+06
-2.81652e+06
-1.562e+06
5.95631e+06
-2.73972e+06
-2.74265e+06
-2.79461e+07
-2.79415e+07
-814331
-814184
269109
-1.04775e+06
-1.0081e+06
1.41985e+06
1.44236e+06
1.21921e+06
-1.82839e+06
-1.82884e+06
-2.6295e+06
-2.03947e+06
-1.34922e+07
-1.349e+07
-820071
-912122
-2.00452e+06
-3.45865e+06
-2.76877e+06
-1.80065e+06
3.49507e+06
3.52872e+06
-2.33525e+07
-2.3349e+07
-2.16921e+06
-3.57286e+06
-3.57194e+06
-1.62356e+07
-1.62315e+07
-218893
2.14905e+06
2.19736e+06
-1.32513e+07
-1.32555e+07
2.66045e+06
-1.65676e+06
787066
-707604
-709905
-7.021e+06
-7.02055e+06
1.24045e+07
571654
-2.56342e+06
-2.56588e+06
-1.38484e+06
-2.29837e+06
-1.05753e+07
-1.05772e+07
-2.80275e+06
-1.20304e+06
-1.34894e+06
-3.1643e+06
-6.80766e+06
-5.01033e+06
-5.01292e+06
5.17553e+06
-5.46395e+06
-5.46154e+06
1.07959e+07
259413
-6.81133e+06
-2.27608e+06
-2.27809e+06
-1.49229e+06
-68248.1
2.93271e+06
-3.67907e+06
-3.6784e+06
4.51995e+06
-2.8285e+06
-2.21951e+06
-2.21834e+06
-544959
-1.9001e+06
-1.86268e+06
-5.32392e+06
-2.35509e+06
-2.3266e+06
-2.22345e+06
-2.22158e+06
1.01259e+07
-710169
-1.84569e+06
-1.51399e+06
-2.23765e+06
2.03243e+06
-474112
-3.38316e+06
5.46374e+06
-1.57086e+06
-1.00192e+06
-2.52116e+07
-2.52085e+07
-6.54421e+06
-2.01189e+06
-2.01349e+06
-1.19961e+07
-1.19902e+07
-508910
-1.543e+07
-1.54355e+07
-1.58926e+06
97582.8
-3.31357e+06
-463262
-462475
5.40631e+06
-3.5314e+06
-3.53285e+06
738533
-2.27581e+06
1.34511e+06
1.14943e+07
-1.81821e+06
-3.09335e+06
-5.91013e+06
-5.91832e+06
-2.28478e+07
-2.28439e+07
-2.41293e+06
-3.60777e+06
-3.86199e+06
-7.57019e+06
-7.57467e+06
-3.49008e+06
-4.69648e+06
-4.69632e+06
-1.37039e+06
-1.97734e+06
-1.97756e+06
-2.86138e+06
2.12849e+06
-2.7267e+06
-2.47476e+06
-2.48688e+06
-1.33926e+06
-1.33545e+06
-55624.9
-3.09052e+06
-2.24869e+06
-2.11455e+06
-2.43295e+06
-2.59366e+06
-2.41267e+06
-2.76519e+06
-1.5608e+06
1.00473e+07
-1.37955e+06
-1.37185e+06
4.90017e+06
-1.22344e+07
-1.22317e+07
-1.34469e+06
-1.33125e+06
-1.40831e+06
43010.2
-1.50256e+06
779480
3.66986e+06
3.92817e+06
-525693
-2.0731e+06
-2.14936e+06
3.75182e+06
-2.50635e+06
-3.60411e+06
-2.61147e+06
-2.6994e+06
-2.69884e+06
22274.1
24233.4
-98647.1
-64836
7.53868e+06
-2.02872e+06
-2.03131e+06
-3.13313e+06
-2.30476e+06
-1.23649e+06
-5.63876e+06
-5.64139e+06
1.05877e+06
-2.56956e+06
-1.91307e+06
-2.94996e+06
-963220
6704.67
6651.4
-1.35029e+06
-4.15168e+06
-1.90218e+06
1.5518e+06
-2.25172e+06
-9.30791e+06
-9.30653e+06
-4.24063e+06
-4.24469e+06
5.45319e+06
-1.33044e+06
-1.48671e+06
-1.48641e+06
-2.42441e+06
-2.42793e+06
-1.98171e+06
8.28029e+06
-2.95467e+06
-2.06834e+06
-3.41374e+06
-3.01564e+06
-1.65397e+06
-1.47829e+06
-1.59699e+06
-2.62494e+07
-2.62537e+07
-2.37389e+06
-1.75683e+07
-1.75645e+07
-685712
-677274
243906
-817630
-859780
2.45202e+06
9.68846e+06
-2.9789e+06
8.74493e+06
300194
-5.19201e+06
-5.19151e+06
3.19581e+06
297973
-2.89132e+06
-2.89305e+06
-654320
-3.55633e+06
-1.5701e+06
-2.45504e+06
-2.02785e+07
-2.02751e+07
-1.38499e+06
-1.76032e+07
-1.76077e+07
577558
-2.69534e+06
1.86424e+06
-1.72277e+06
-1.9845e+06
-1.98231e+06
-910341
-1.21746e+06
-2.72443e+06
-1.4511e+06
-1.45164e+06
-3.00228e+06
-2.99805e+06
3.32433e+06
3.3994e+06
-2.29857e+06
9.33217e+06
-2.2956e+06
-2.82324e+06
-2.62358e+06
-2.54473e+06
-1.94228e+06
-3.27801e+06
-3.94828e+06
-3.95144e+06
-3.16225e+06
16754
-4.19296e+06
-4.19554e+06
-2.16343e+06
1.0629e+06
-1.77849e+06
4.90208e+06
1.09414e+06
-1.3504e+06
-1.35083e+06
-1.95466e+06
-416617
-5.66665e+06
-5.6723e+06
4.17138e+06
-1.78684e+06
-2.42848e+06
-48331.8
-47696.1
2.20959e+06
-1.47255e+07
-1.47198e+07
-3.40886e+06
6.41619e+06
-1.90601e+06
-1.21961e+06
-1.27419e+06
1.24026e+06
16482
-329391
-330310
-3.66572e+06
-2.72549e+06
-1.60473e+06
-280740
-279896
1.80927e+06
-2.71041e+06
-2.71224e+06
-1.75751e+07
-1.75713e+07
-2.56258e+07
-2.563e+07
-2.86333e+06
-1.8234e+06
-1.81978e+06
-2.94264e+06
-3.75234e+06
7.82798e+06
-2.1957e+06
3.70273e+06
5.57091e+06
-1.0888e+06
-1.06292e+06
-3.90015e+06
-3.90162e+06
-3.0422e+06
4.71013e+06
282009
-542182
-1.94527e+06
447925
-1.20626e+06
-2.60358e+06
-2.68962e+07
-2.68917e+07
-1.46798e+06
-3.147e+06
-2.78828e+06
-2.78868e+06
-2.43998e+06
-444172
1.47694e+06
-2.92231e+06
21015.9
20719.3
-3.06159e+06
-5.165e+06
-5.16564e+06
5.23081e+06
-1.23365e+07
-1.23412e+07
-962127
427233
-2.60199e+06
428042
362486
377709
-1.32528e+06
8.29295e+06
-1.30075e+06
-2.94574e+06
-1.29449e+07
-1.29497e+07
-881817
-644540
724759
-1.17015e+06
-1.73154e+07
-1.7318e+07
-1.90994e+07
-1.90954e+07
-395927
-1.49491e+06
-3.19898e+06
-1.41609e+06
-1.41928e+06
-741403
-741344
-2.01765e+06
-3.86076e+06
-3.61571e+06
-175172
-399767
-889168
-3.55715e+06
-3.55945e+06
-473117
-1.86184e+06
2.55676e+06
-1.0399e+06
-966745
2.87166e+06
-3.06298e+06
-3.06125e+06
-1.67867e+06
-2.15697e+06
-2.15727e+06
-441814
-439856
-1.67294e+06
4.16699e+06
-871857
-2.93055e+06
-1.95022e+06
-1.95301e+06
-2.07843e+06
-6.57385e+06
-879529
4.81503e+06
-2.87915e+06
-2.95041e+06
-2.95096e+06
-1.3807e+06
-3.1104e+07
-3.11084e+07
-1.56987e+07
-1.57013e+07
-872563
-92515.7
-91978.6
-1.4776e+06
-1.94287e+06
-1.94306e+06
-2.27425e+06
-2.27581e+06
-6.54764e+06
-6.54686e+06
-2.63877e+06
4.41469e+06
-2.92489e+06
-2.92394e+06
-2.72523e+06
-3.55171e+06
-3.57354e+06
-3.57152e+06
-2.20593e+06
-1.14818e+06
-7.65201e+06
-7.64852e+06
-3.80707e+06
-7.72365e+06
-7.723e+06
-1.2362e+06
6.9168e+06
-2.14382e+06
-2.53141e+07
-2.531e+07
-286899
-2.49324e+06
-2.49154e+06
-1.04971e+07
-1.04992e+07
-4.28405e+06
-4.28464e+06
5.4217e+06
-2.11966e+06
-4.97083e+06
-4.9709e+06
-3.13621e+06
-3.13787e+06
832216
-4.53126e+06
6.3659e+06
-2.08291e+06
-602872
1.47201e+06
-2.58901e+07
-2.58873e+07
-4.95332e+06
-4.95137e+06
-1.56731e+07
-1.56749e+07
-3.05124e+06
-1.46577e+06
-1.30519e+06
-4.36647e+06
-4.36497e+06
3.17669e+06
-598197
-600894
-3.17906e+06
-1.80286e+06
-1.82864e+06
-1.8246e+06
925892
-1.88185e+06
-2.1663e+06
-1.22588e+06
-1.22594e+06
-2.29998e+06
2.30372e+06
2.32513e+06
-2.69654e+06
-1.79049e+06
-2.28839e+06
-1.79606e+06
-1.55131e+07
-1.55148e+07
-1.88049e+06
3.75225e+06
-10738
-2.24833e+07
-2.24874e+07
-2.10232e+06
-4.45717e+06
-4.4552e+06
-3.98337e+06
5.8443e+06
-2.24732e+06
-1.64215e+06
6.30344e+06
-2.9492e+06
-2.3981e+06
-2.39891e+06
-2.24641e+06
-2.24636e+06
-959840
-5.94977e+06
-5.95108e+06
-3.91416e+06
-2.82813e+06
-3.91943e+06
-7.34474e+06
-7.35121e+06
-977045
6.47228e+06
-2.98769e+06
-625960
-5.19558e+06
8.61802e+06
-1.33856e+06
-1.33796e+06
8.70724e+06
1.43111e+06
-2.22602e+06
-996099
-1.16803e+06
-1.6069e+06
-1.23427e+06
1.03294e+07
-2.03955e+06
-2.97208e+06
-5.99342e+06
-5.99458e+06
-2.64674e+06
-2.64718e+06
-1.99624e+06
-1.91631e+06
-1.91904e+06
-2.12834e+06
9.34731e+06
-5.20376e+06
1.11581e+06
5.09247e+06
-1.67293e+06
2.50735e+06
-1.34417e+06
-3.6278e+06
-3.62834e+06
9.15595e+06
1.15494e+07
214450
-2.07705e+07
-2.07664e+07
-1.62483e+06
-46642.4
-1.52092e+06
-2.55473e+06
-2.52212e+06
-404736
4.54826e+06
-2.00787e+06
6.90632e+06
1.19727e+07
-1.56165e+06
-1.56183e+06
-2.09037e+06
-2.1022e+06
-2.08693e+06
-1.06626e+06
-7.24021e+06
-7.2386e+06
-241112
1.00437e+07
8.66506e+06
-3.17759e+06
-3.179e+06
-1.68771e+06
-2.33684e+06
-79830.7
-1.01341e+06
4.79472e+06
-1.42296e+06
6.67501e+06
-2.11561e+06
-1.84727e+06
-1.55372e+06
-1.94736e+06
-2.20136e+06
202485
-2.33391e+06
162957
162934
-1.77574e+06
-1.77471e+06
-565181
-336299
-4.41816e+06
-1.78043e+06
-3.04906e+06
-1.54785e+07
-1.54814e+07
-986344
-2.08168e+06
-1.84182e+06
533738
3.17537e+06
3.21374e+06
-3.51182e+06
-1.85664e+06
-1.84602e+06
-680899
-683234
-4.97188e+06
-4.97213e+06
-1.39926e+06
-3.64474e+06
7.43422e+06
1.05212e+07
-1.60141e+06
5.3737e+06
-105403
91786.2
-1.0653e+06
-2.51235e+06
-3.50838e+06
6.9062e+06
-328963
309273
-1.97575e+06
-1.98044e+06
-2.85621e+06
8.31657e+06
1.72667e+06
-2.82326e+06
-2.82238e+06
-4.40505e+06
-4.40322e+06
-260376
-2.45218e+06
-2.54614e+06
-1.20148e+06
-1.22357e+06
-536037
-2.89636e+06
-2.49933e+06
-2.93485e+06
-2.75098e+06
-2.58137e+06
-1.76111e+06
1.11981e+07
-1.23481e+06
-1.22354e+06
-2.15513e+06
276928
-1.31978e+06
-2.41161e+06
706099
730284
-103967
-1.70023e+06
-1.69927e+06
-818576
-814451
-3.5992e+06
-4.42191e+06
-4.4198e+06
-3.49828e+06
-2.31333e+06
1.22381e+07
5.7879e+06
-147318
-100561
-3.15562e+06
-3.15755e+06
-3.27815e+06
4.21101e+06
173865
-1.75956e+07
-1.75907e+07
-5.5139e+06
-5.51021e+06
5.03535e+06
54779.5
43126
-261782
-1.38621e+06
-3.58496e+06
-3.58583e+06
-433549
-2.36713e+06
-3.02907e+06
2.50763e+06
-2302.4
-2269.41
-2.30093e+06
-2.30228e+06
-1.91369e+06
-1.91633e+06
-4.32535e+06
-4.32597e+06
-1.91514e+06
-1.86268e+06
-1.86562e+06
-1.14829e+06
-287762
-3.34524e+06
-2.22342e+06
-2.22227e+06
-823488
-2.51294e+06
2.76307e+06
1.07076e+07
-2.2164e+06
-2.39195e+07
-2.39236e+07
-1.89026e+06
-3.65201e+06
-1.68757e+06
-2.05089e+07
-2.05135e+07
-2.15453e+06
-1.39862e+06
-1.39988e+06
-577763
-576072
139.523
129.596
470799
4.15455e+06
3.6477e+06
914584
3.86909e+06
-2.4324e+06
481359
-637671
-4.00698e+06
-4.00625e+06
1.19385e+07
-1.56663e+06
-1.56613e+06
-1.51028e+06
-1.86705e+06
-1.86449e+06
-469330
-1.32058e+06
-6.05069e+06
-6.05333e+06
-473747
-2.74416e+06
-453332
7.61206e+06
-1.43887e+06
-3.43415e+06
-3.43602e+06
-3.88523e+06
-3.88512e+06
1.00471e+07
-2.33356e+06
-1.43042e+06
-3.33476e+06
-1.79775e+06
-3.02401e+06
-3.07911e+06
5.9762e+06
-1.34047e+06
-1.34072e+06
-5.37098e+06
-5.37374e+06
-2.72459e+06
-119476
-111255
68338.1
-1.97539e+06
-1.81134e+06
-2.15062e+06
-1.26654e+06
-1.01973e+06
-89111.9
-3.42821e+06
-2.07573e+06
1.03061e+07
3.81661e+06
-1.27975e+06
-2.45558e+06
-2.45457e+06
762780
-1.74076e+07
-1.74101e+07
-1.93899e+06
-1.93594e+06
3.91618e+06
-2.45584e+06
-120403
-4.75319e+06
-1.86409e+06
-2.68083e+06
-2.68011e+06
-2.12938e+06
-1.77527e+06
7.58935e+06
-1.79839e+06
-321825
-319858
-1.00103e+06
-2.39493e+06
-3.04682e+06
-3.04278e+06
-1.57841e+07
-1.57876e+07
-7.56143e+06
-7.56754e+06
-5.93073e+06
-2.68069e+06
-2.62777e+06
-5.94262e+06
-2.53681e+06
927298
910989
-2.6567e+06
-1.17011e+07
-1.17045e+07
1.9151e+06
-2.19922e+06
-2.20935e+06
-2.59643e+06
7.46399e+06
-281532
3.49001e+06