/*--------------------------------*- C++ -*----------------------------------*\
| =========                 |                                                 |
| \\      /  F ield         | OpenFOAM: The Open Source CFD Toolbox           |
|  \\    /   O peration     | Version:  v3.0+                                 |
|   \\  /    A nd           | Web:      www.OpenFOAM.com                      |
|    \\/     M anipulation  |                                                 |
\*---------------------------------------------------------------------------*/
FoamFile
{
    version     2.0;
    format      ascii;
    class       volScalarField;
    location    "8000";
    object      sigmaxz;
}
// * * * * * * * * * * * * * * * * * * * * * * * * * * * * * * * * * * * * * //

dimensions      [1 -1 -2 0 0 0 0];

internalField   nonuniform List<scalar> 
27023
(
1.63821e-13
1.07449e-13
7.11399e-13
5.45991e-13
0
-5.41975e-13
4.50316e-12
-1.1123e-12
-1.05256e-13
-4.95846e-13
-6.75941e-13
-9.58042e-13
-6.83784e-14
3.63848e-14
8.24221e-13
1.00951e-12
-9.14233e-13
0
3.34428e-12
0
-7.2493e-14
3.51799e-15
-2.61522e-12
-9.25558e-13
2.37091e-12
3.81866e-12
1.77305e-12
8.35093e-12
-1.38479e-12
-5.13721e-12
9.86517e-12
4.11452e-13
5.07279e-12
-4.89238e-13
1.00421e-12
-1.08478e-11
1.7341e-12
3.46814e-12
1.94447e-13
-2.81587e-13
-2.08439e-13
-9.24923e-14
-1.09762e-11
-1.13206e-13
1.13185e-13
5.1601e-12
-3.72384e-12
-4.85125e-12
4.85124e-12
-3.27891e-12
3.66385e-12
-1.43044e-12
8.53888e-12
4.65478e-15
1.0285e-13
1.78367e-12
2.8905e-12
1.35162e-11
-2.42398e-12
-1.10679e-12
-7.43192e-13
-1.9697e-11
7.95521e-12
4.52405e-12
-1.17341e-11
-2.32368e-12
1.21042e-12
-5.23767e-12
1.14422e-12
-1.14811e-11
0
-3.50478e-12
-3.36581e-13
-1.94991e-12
-2.09761e-12
-1.25309e-12
1.2615e-14
-6.69137e-14
7.78491e-12
-3.5605e-12
1.24629e-12
4.19743e-12
-3.30113e-12
-6.19211e-13
1.5582e-12
-4.97127e-12
-2.67144e-12
2.92797e-12
5.52769e-12
-4.7953e-12
2.82574e-12
1.42105e-13
-2.83439e-13
-3.99218e-13
-8.67335e-14
-3.83136e-12
-4.03407e-12
3.65046e-12
-5.85655e-12
3.17622e-12
-2.17144e-12
-9.14357e-12
-3.49982e-12
-3.91522e-14
2.15185e-12
1.3814e-11
-1.32423e-12
9.47936e-13
-5.11212e-12
2.84934e-11
-1.29075e-11
-9.93885e-14
1.03579e-12
-4.88619e-12
7.47078e-13
2.19448e-12
5.30816e-12
-3.57229e-13
-1.57523e-12
2.48335e-12
-1.39392e-11
8.26663e-12
-7.80446e-13
2.11662e-12
-3.85655e-12
1.79213e-12
-5.60495e-14
3.30508e-13
3.39879e-13
2.396e-12
-1.10251e-12
2.51128e-14
-1.23412e-14
1.45746e-13
-1.00033e-11
-7.76379e-12
-2.01994e-13
2.42784e-12
2.52218e-12
2.82692e-13
-7.21074e-13
-5.55587e-12
-2.46923e-12
-2.36726e-12
-1.60304e-12
1.85685e-12
-9.34229e-12
-3.31815e-12
1.19681e-12
2.2085e-13
-3.09309e-13
1.17973e-12
-6.79761e-13
2.96521e-12
2.89955e-12
2.10367e-11
-8.96189e-12
6.04902e-12
6.26687e-12
-2.74821e-12
4.4649e-12
-9.96545e-12
9.54473e-12
1.02221e-11
-5.54832e-13
-5.84515e-13
-4.03225e-13
2.15629e-12
-3.4372e-13
-1.66892e-12
1.45475e-12
7.04308e-12
2.39403e-13
-2.32116e-12
0
1.26852e-11
1.32807e-11
-3.29443e-12
-2.43382e-12
3.86942e-13
1.02906e-12
-3.9886e-12
-2.56888e-12
-2.98396e-12
-6.85436e-12
1.94237e-12
1.83204e-12
-1.24935e-12
-6.63006e-12
4.61252e-12
-3.13278e-12
2.11992e-13
-8.48076e-13
-2.35848e-12
1.79865e-12
3.00079e-12
-1.1842e-11
1.11651e-12
6.77621e-13
6.30006e-13
5.23596e-12
1.19588e-12
3.81634e-12
7.38508e-12
0
-7.56667e-13
2.83512e-12
-1.71279e-12
3.36694e-12
4.13634e-12
0
1.32287e-15
-7.18177e-13
2.79812e-12
-3.25341e-13
1.91215e-13
-1.71954e-12
1.79764e-12
3.42729e-12
2.6644e-12
3.66583e-12
1.16122e-11
1.02423e-12
1.00173e-13
-3.09785e-12
-2.15854e-12
4.79365e-12
-7.19182e-13
-2.77451e-12
2.63885e-14
1.81208e-13
-8.72506e-12
-1.45892e-12
-2.44822e-12
-3.27037e-12
4.07122e-12
-1.73452e-12
6.41393e-12
2.95393e-13
5.02098e-12
-5.02133e-12
3.24963e-12
-3.60258e-13
-1.18171e-11
-1.09556e-12
1.27606e-12
1.10395e-11
1.02169e-12
-7.8575e-13
7.58715e-13
-3.08174e-12
4.687e-12
-7.8032e-12
-1.22934e-12
3.13516e-12
-7.92994e-12
0
-6.67627e-12
-6.58235e-12
2.48889e-12
8.18604e-13
-2.12656e-12
-9.89926e-12
3.06846e-12
-5.91867e-12
-5.66338e-12
-2.79539e-13
-1.07913e-12
-4.82758e-12
-1.98616e-13
1.36224e-13
2.26659e-11
8.5199e-12
1.13894e-12
-5.91252e-12
-2.20102e-12
-5.24006e-14
-3.30855e-14
-7.14727e-12
1.17794e-12
-2.23558e-11
2.30118e-12
3.03886e-11
-4.58088e-12
-2.04761e-14
-2.17682e-14
-6.07931e-12
1.44789e-11
-3.02266e-12
-2.63873e-14
-8.78295e-12
3.91122e-12
-6.17255e-13
2.77284e-12
0
-1.54667e-12
-5.2059e-12
2.94887e-12
3.09758e-12
0
-1.25927e-13
-1.30225e-12
9.6085e-13
0
-1.97984e-13
3.63749e-14
-1.44078e-14
-4.97554e-12
-9.95975e-12
-3.98646e-12
2.69615e-11
5.02384e-14
-5.01889e-14
1.71722e-13
4.14058e-13
4.87383e-12
-1.8978e-12
5.52023e-13
-5.41928e-12
2.13387e-12
-5.52549e-14
-8.64956e-14
1.04711e-12
1.10698e-12
-7.2654e-13
-9.41213e-13
5.88109e-12
-1.57976e-12
-3.98813e-12
5.78009e-13
-1.30728e-13
-2.68527e-12
-7.29527e-12
-3.32817e-13
-9.8988e-12
-5.61097e-13
-9.34871e-13
7.54385e-13
-2.1107e-12
-1.23934e-13
-1.60502e-12
2.54973e-11
-1.38986e-11
0
2.18225e-15
-2.1543e-12
-5.93551e-13
1.26323e-12
-3.12501e-12
2.99884e-12
3.84013e-12
-5.95522e-13
4.36589e-13
-2.68135e-12
2.85176e-14
-2.11359e-14
-7.81989e-13
4.92856e-12
-5.52806e-12
8.77137e-13
1.55848e-12
1.66416e-12
-4.91975e-12
6.94632e-14
1.998e-12
-9.38577e-12
4.23554e-12
1.18977e-12
-5.53849e-13
5.54021e-13
-3.62167e-12
-2.2905e-12
-1.8802e-12
0
-1.74989e-13
9.51973e-12
-6.07843e-12
-2.3082e-12
7.15965e-12
4.01612e-12
4.36024e-12
3.02523e-12
3.33092e-12
1.51057e-12
-3.85243e-13
-1.66567e-12
-1.3092e-12
5.97754e-12
-1.47572e-12
1.44862e-13
-1.77669e-12
2.569e-11
6.8549e-13
-6.80881e-12
-7.05306e-13
1.219e-12
6.39648e-13
-1.54105e-11
-9.69161e-12
0
7.92624e-13
-9.22013e-13
-7.30993e-13
-1.87382e-12
-2.39458e-11
3.8358e-13
-9.0378e-13
1.72769e-12
1.0276e-11
2.08955e-12
3.735e-12
-2.94739e-12
8.52278e-15
-1.09418e-14
5.86039e-12
3.39142e-13
-4.9877e-13
-6.52581e-12
5.50935e-12
-7.64749e-12
0
-8.00473e-12
3.51028e-13
-3.93061e-12
1.10032e-11
-7.06805e-12
0
-3.63782e-13
9.32867e-12
2.75245e-13
1.07554e-11
0
2.29275e-12
-4.47317e-12
-1.6403e-12
3.23759e-12
-1.51407e-12
9.68348e-14
1.54055e-13
-3.26441e-13
-8.91671e-12
-2.34507e-11
-3.86184e-13
-5.4216e-12
2.17165e-15
-4.39167e-17
-6.61871e-13
5.61496e-12
7.9449e-13
-4.93411e-15
3.8125e-13
1.92868e-13
-1.92544e-13
-7.16643e-13
1.30454e-12
-2.86904e-12
-5.68226e-12
1.26545e-12
1.77258e-12
2.22237e-12
3.32002e-12
-1.47919e-12
-4.6866e-12
-4.46185e-12
-5.50862e-12
-9.14504e-12
-4.33658e-12
2.1545e-12
7.01346e-15
1.15016e-11
2.67663e-11
0
1.27431e-12
-1.32987e-12
1.38323e-12
0
-1.60964e-12
7.30258e-12
1.24388e-11
-4.70155e-13
7.09816e-13
-4.92269e-12
2.29185e-12
-2.57553e-12
4.55182e-12
3.03111e-12
-8.49852e-13
-9.3416e-12
-3.11072e-11
-5.803e-12
2.63056e-12
4.11724e-12
4.51887e-13
-4.61793e-12
-3.95316e-13
-6.11335e-13
-2.12291e-12
-1.72579e-13
-1.52782e-12
9.86459e-12
2.14362e-12
5.70149e-15
-9.40255e-15
-7.06533e-12
6.53748e-13
2.66507e-12
1.95168e-12
1.33094e-13
1.5507e-12
2.19122e-12
-1.815e-12
-2.79913e-12
-1.39536e-12
3.19794e-13
1.44579e-12
3.10818e-12
-2.7701e-12
-5.124e-12
5.22315e-12
-5.88488e-13
-6.27716e-12
3.13855e-12
3.23521e-12
-1.01844e-12
2.37588e-12
-1.02256e-11
-5.0048e-12
6.18143e-12
-2.90861e-12
2.65075e-13
9.57268e-12
-1.65009e-12
5.19069e-14
3.14018e-13
4.40207e-13
-4.40543e-13
-5.17905e-12
-4.78851e-12
-8.23479e-13
5.00247e-12
2.09591e-12
1.07594e-11
3.36499e-12
-2.56357e-13
1.16585e-11
3.96157e-13
5.56332e-13
2.49871e-13
-9.62505e-13
-1.07944e-11
-1.38098e-11
5.81318e-12
-8.50105e-13
-1.51879e-12
-1.48015e-12
7.21502e-12
1.19957e-11
4.02585e-12
-2.703e-13
-1.14134e-11
1.59868e-12
6.6657e-12
2.33745e-12
-5.26005e-12
8.3454e-12
1.06425e-12
0
0
5.91458e-12
6.14827e-12
3.29989e-12
1.14165e-12
1.46687e-13
0
1.73547e-12
1.2248e-12
-3.50885e-13
-6.44484e-13
2.06848e-12
1.1865e-12
-1.2453e-12
-6.0417e-12
1.00526e-12
0
-6.09563e-12
2.05141e-12
8.60162e-14
-6.4611e-12
9.90047e-13
-2.67873e-13
0
-6.53202e-12
1.26183e-12
-2.85895e-12
-6.3691e-12
3.32456e-12
-3.16726e-12
-1.37826e-11
-2.78152e-12
1.74548e-12
-4.08099e-12
4.56482e-12
-2.42582e-12
3.4865e-12
1.17424e-12
1.71163e-14
-5.85032e-12
4.68669e-12
-1.01633e-12
4.29687e-12
-4.29691e-12
-6.5545e-12
3.70877e-13
-8.36284e-12
-5.50425e-13
-1.87304e-11
-3.03892e-11
-2.33039e-12
-2.84905e-12
-4.21693e-11
-1.06881e-14
-7.30473e-15
9.17827e-16
7.53637e-16
-5.77293e-12
-6.81343e-14
8.79727e-14
0
-1.01426e-12
-3.21595e-14
3.20574e-14
3.28051e-13
-2.39836e-13
8.10525e-13
-1.2639e-12
3.14219e-12
-1.1112e-12
1.4889e-12
2.08414e-12
-5.08445e-12
-2.40389e-12
-2.51305e-12
-3.30842e-12
3.35701e-12
2.17799e-12
5.14574e-12
-1.76886e-12
-9.8554e-13
2.64506e-12
0
3.93846e-12
-1.37891e-12
3.35548e-12
0
4.14373e-13
1.55546e-12
-3.73801e-12
-2.91146e-12
-2.01042e-15
2.88803e-15
-5.32167e-12
-2.90848e-12
-9.22445e-12
-6.83125e-12
7.81351e-13
9.41534e-12
-2.15915e-12
-6.27459e-13
0
-5.10735e-12
1.8153e-13
-4.84111e-12
-9.63363e-12
-7.30337e-14
6.4218e-12
-1.11668e-11
-1.68079e-12
-1.23337e-11
2.66993e-12
0
5.55715e-12
3.18094e-14
1.01327e-14
-3.7906e-13
3.32496e-12
2.27064e-12
2.61927e-12
-2.31896e-12
-6.39034e-12
2.68966e-11
-4.40064e-12
-8.25448e-13
1.00481e-11
3.55728e-12
-6.88405e-12
-4.64024e-12
-8.45698e-14
-4.9913e-14
-1.6588e-12
-1.8607e-12
1.55303e-14
-1.20359e-11
1.77895e-12
8.89386e-13
3.37939e-12
2.25342e-12
-1.16989e-15
7.39936e-15
-2.21358e-12
-1.96332e-15
-5.9454e-12
5.88831e-13
2.20473e-12
-1.04841e-12
-1.13281e-11
3.84493e-13
1.02767e-13
0
4.84687e-12
-1.71831e-13
-2.18187e-13
2.28475e-12
-2.6029e-13
-1.08783e-11
-8.21507e-13
-6.56101e-12
-2.12961e-12
-4.31412e-12
0
3.03433e-12
-1.01798e-11
8.32426e-13
-2.83386e-12
1.05707e-12
6.42524e-12
-7.24345e-13
-1.44851e-12
7.24916e-13
-7.12756e-13
-4.31599e-13
1.88561e-12
4.71462e-13
2.13722e-12
1.56713e-12
-4.05351e-12
1.71582e-12
3.89005e-12
1.2609e-12
5.52147e-13
-8.10389e-13
-4.02098e-12
-7.20403e-13
-4.80747e-12
5.26834e-13
7.60137e-12
0
7.79854e-12
6.36179e-13
1.43121e-11
2.79638e-12
3.76584e-12
-1.09372e-12
-4.60918e-13
8.0737e-12
-1.77748e-12
-8.66998e-13
-4.35974e-12
-2.97804e-12
-9.95703e-13
2.5636e-12
-6.49909e-14
-4.97685e-12
1.2177e-12
8.76401e-14
-7.17825e-12
3.5553e-12
1.0557e-12
-5.8733e-12
-4.67373e-12
0
1.76503e-13
-8.20939e-13
-9.51832e-12
0
2.86941e-12
5.88294e-13
-4.05279e-12
-9.50656e-12
2.55371e-12
5.30509e-12
-2.25811e-13
0
0
8.28143e-12
-1.29782e-12
4.11704e-12
1.20231e-11
-1.03263e-11
1.03059e-14
0
9.58674e-12
9.24387e-12
2.84345e-13
-7.48782e-13
-1.29307e-12
-6.24571e-13
2.93043e-13
1.92747e-12
6.41959e-12
3.74028e-13
4.92288e-13
6.2826e-14
-1.55221e-13
-3.48875e-13
2.17057e-11
5.02306e-12
-1.11837e-11
-1.8329e-11
-2.24257e-13
-1.27835e-12
-1.59436e-11
-4.60708e-14
-1.34147e-12
0
-1.12169e-11
2.94978e-12
-2.45049e-12
-7.00363e-14
-7.78316e-13
-6.02888e-12
-1.05268e-12
-5.56869e-12
3.12776e-12
-8.07441e-13
3.54294e-12
1.27004e-11
-1.9689e-13
-9.93575e-14
2.95992e-13
-2.54438e-12
1.80845e-12
1.46611e-12
8.50307e-12
0
-7.09773e-12
3.41057e-12
-1.34977e-12
1.23739e-11
-2.49427e-12
-4.83563e-12
5.45231e-13
7.75122e-13
4.61056e-12
-2.71471e-12
1.18632e-14
4.52437e-14
-3.03906e-12
3.53806e-12
-1.37835e-12
-2.5197e-12
1.05229e-12
-1.51959e-12
0
9.60247e-12
8.52886e-12
9.38193e-12
5.99702e-12
-4.96766e-13
3.57423e-14
-2.54642e-14
6.04592e-13
1.34832e-12
9.45813e-12
-9.76457e-13
1.80224e-12
-1.52996e-13
-5.66455e-12
8.98261e-13
7.99585e-12
-2.35507e-13
9.52755e-14
-3.12767e-12
-3.45177e-12
4.92919e-13
2.72425e-11
4.16576e-11
7.6663e-13
2.91449e-12
-1.65606e-13
-1.30427e-12
0
1.68693e-12
1.07076e-11
-6.47574e-13
3.14653e-12
2.04544e-13
-4.49776e-13
-1.27646e-12
8.66189e-13
8.87711e-13
5.17647e-12
3.14316e-12
6.58943e-12
-2.45119e-12
1.99419e-13
-6.07943e-14
4.24315e-12
-3.46779e-13
-4.9882e-13
-4.54746e-12
1.9243e-13
-4.83665e-12
-5.18442e-12
1.88966e-12
-5.98679e-13
1.72459e-12
-1.68743e-12
-2.41512e-11
6.00185e-13
-2.0778e-12
0
-6.39509e-12
4.01534e-13
-3.41225e-12
7.96144e-12
-2.22254e-12
1.58716e-12
2.54678e-12
1.39426e-13
-5.14827e-12
1.1439e-11
-7.73268e-12
-9.27848e-12
0
-2.03988e-13
-1.25562e-12
-2.96966e-13
3.29024e-13
-2.2711e-12
7.85734e-12
5.83008e-13
-1.49676e-12
0
3.61324e-13
7.70011e-14
2.18381e-12
1.02562e-11
1.27248e-13
0
3.68656e-12
1.69483e-13
2.20565e-12
1.76878e-12
-1.90459e-12
3.77022e-12
2.06435e-12
-1.63359e-12
3.60404e-12
1.93056e-12
-2.56745e-13
-6.77387e-15
7.92425e-13
4.15316e-12
1.4239e-11
1.58906e-12
3.35868e-12
-4.14837e-12
-1.91142e-12
4.90395e-12
1.2994e-11
1.00228e-13
-1.42194e-13
0
4.56703e-13
-6.83131e-13
5.90129e-13
4.06142e-12
-3.64945e-12
6.4462e-14
9.76618e-12
1.5815e-12
2.53937e-12
-1.52234e-12
1.59958e-12
4.07421e-12
-1.83381e-14
4.35396e-12
-5.92794e-13
-4.25542e-13
2.10352e-12
-2.39165e-12
6.40625e-12
-9.44604e-13
-1.77778e-13
7.57892e-12
-8.71566e-13
-8.3209e-13
0
3.16069e-12
-1.86663e-12
3.1065e-12
-3.05187e-12
9.70346e-13
1.48853e-13
1.30274e-11
-8.8123e-13
7.08087e-14
-9.17246e-15
-1.61155e-12
-1.19436e-14
-3.85353e-12
2.41978e-12
-1.16057e-12
-8.3267e-12
-1.12234e-12
2.13438e-12
5.70292e-13
-6.45943e-12
2.40006e-12
0
-3.25341e-13
-1.8977e-13
1.5881e-13
-1.08711e-11
-1.29444e-12
-3.61536e-12
-1.02387e-12
2.29278e-12
-2.75356e-13
-2.13515e-12
-1.76298e-12
1.3696e-12
3.22149e-14
-1.33631e-14
2.04904e-13
-2.15559e-12
-5.87567e-13
1.46133e-12
-2.48957e-12
-5.85259e-13
4.26347e-12
1.9754e-12
-3.5785e-13
-5.19271e-13
5.87363e-12
-1.00197e-11
-5.49954e-14
-3.05942e-12
3.6859e-12
1.13925e-12
1.03609e-13
-2.92555e-12
-5.2413e-12
-1.19355e-13
-2.39229e-12
-4.75865e-12
1.61844e-12
1.41534e-12
-7.41844e-12
1.16164e-12
1.7482e-13
-7.96461e-14
-6.99625e-12
6.68313e-12
6.79766e-13
9.17461e-13
-1.20067e-11
1.07611e-12
4.94285e-12
-1.44412e-12
2.39512e-12
2.56676e-13
-3.46789e-12
-3.42764e-12
2.71382e-12
-7.66813e-13
-6.37248e-12
-1.42567e-12
-2.65092e-12
6.54021e-12
-9.23764e-12
1.2139e-12
2.80508e-12
-6.02475e-13
4.95829e-12
9.81095e-13
-4.30379e-12
-9.44084e-12
2.70022e-13
2.16548e-12
6.07974e-12
9.46353e-12
2.29408e-12
4.25579e-12
-9.06326e-13
-1.08726e-11
-1.63479e-12
3.92036e-13
1.65997e-12
4.76396e-14
-6.29045e-12
-6.29522e-12
1.05158e-12
-1.86585e-12
2.26752e-13
-4.34859e-13
8.85809e-14
2.77708e-13
1.15515e-13
-2.34752e-11
-2.49373e-11
3.45781e-12
-2.50736e-13
1.90616e-12
-1.20486e-13
-2.61188e-13
5.37295e-13
2.29091e-12
-4.34175e-12
4.55156e-12
-2.04256e-11
6.07182e-13
-2.5619e-15
1.20039e-15
4.19149e-13
4.22213e-12
6.52856e-12
2.48691e-11
2.99416e-12
-3.19743e-12
1.56467e-12
1.79078e-11
1.02423e-11
-4.13667e-12
-6.17871e-12
2.05813e-12
2.35749e-13
-1.87829e-12
-7.47946e-12
-1.85442e-12
1.15001e-12
9.17286e-13
0
2.85417e-12
-2.18316e-12
-8.47273e-13
2.18007e-12
5.65145e-12
-7.30414e-13
8.95029e-13
1.03028e-12
-2.86973e-13
9.27007e-14
8.72515e-13
-1.1729e-12
-3.50845e-13
-3.5105e-13
-1.43157e-11
-1.25839e-12
7.57484e-12
-2.69272e-12
2.23234e-12
1.10413e-11
-1.49112e-12
-2.08407e-13
-1.8984e-11
-1.66532e-12
1.55234e-12
9.21882e-12
1.52887e-12
-3.19021e-13
5.86393e-13
5.68041e-12
-3.67235e-11
-1.361e-12
1.2969e-12
3.40136e-12
1.09052e-11
8.40338e-12
-2.04877e-12
2.90479e-12
-1.81772e-13
1.02607e-13
-1.02421e-13
-9.59715e-12
-2.41829e-13
-6.91744e-13
2.99567e-13
-9.39587e-13
3.78093e-11
-1.87778e-12
2.79342e-12
-9.60113e-13
1.71667e-12
-2.63808e-12
6.26586e-14
-2.3938e-13
3.4969e-12
-2.73372e-12
5.8951e-12
-4.91022e-12
1.9754e-13
4.49044e-12
8.13107e-13
-9.12868e-12
1.63118e-12
-6.05885e-12
1.22272e-13
-1.13973e-12
2.02369e-12
8.73889e-13
-2.92542e-12
7.63871e-13
-5.52278e-12
4.05515e-13
4.55406e-13
-2.18687e-13
-4.2704e-12
-2.21015e-13
2.31143e-13
9.88339e-13
6.12469e-13
-7.25574e-13
3.64803e-12
-1.16802e-12
-1.63387e-13
1.45851e-12
-1.62553e-13
-3.77076e-12
-1.86676e-11
4.87469e-11
-3.39235e-11
-2.11542e-12
-4.10465e-12
-4.10921e-12
1.40962e-12
-2.36429e-12
1.77251e-11
-8.02894e-13
-3.52579e-12
-1.07204e-12
-2.29755e-12
1.16293e-11
-5.35909e-13
-3.93274e-12
5.65235e-12
-1.3168e-12
-9.2015e-13
1.02602e-12
8.97145e-12
2.59665e-12
-6.52241e-12
9.61939e-12
1.83759e-13
-6.47883e-12
2.02677e-12
2.11129e-12
5.61539e-12
-3.5221e-12
8.03552e-13
0
-1.71117e-12
2.8107e-13
2.17562e-12
4.32552e-13
-5.80433e-12
1.06028e-11
-1.59059e-12
-2.36246e-12
3.33239e-13
2.85502e-12
-1.41427e-11
6.90509e-15
0
-2.1688e-11
0
3.06211e-12
1.5009e-14
-8.30873e-14
-3.43826e-12
2.17835e-13
3.56506e-12
6.57985e-12
-4.36244e-13
0
0
8.53622e-13
-5.58205e-13
1.8157e-12
2.10878e-12
-1.75225e-11
-3.2242e-12
4.52499e-12
-2.28847e-11
-7.57737e-12
-1.0191e-11
8.94938e-13
7.21524e-13
-2.25936e-12
1.32558e-12
0
9.73373e-13
-2.48385e-12
3.06976e-12
0
-7.65761e-15
1.00251e-14
-4.44931e-12
1.31897e-12
7.75889e-13
3.13754e-13
-3.77906e-12
2.94111e-12
2.0824e-12
3.7327e-12
-2.39582e-12
4.36074e-13
2.00222e-12
-1.32337e-11
4.63793e-14
-4.06794e-14
0
2.40534e-14
4.20993e-13
-5.17128e-12
0
-2.00507e-12
-3.22796e-12
-8.47928e-13
1.39235e-12
-8.00153e-13
7.13004e-13
-1.07618e-11
-1.73913e-12
1.65667e-12
1.60669e-12
1.99159e-13
1.80513e-12
1.31729e-12
0
-2.68922e-12
8.75939e-12
2.16551e-12
-9.33401e-13
-2.98589e-12
1.00781e-12
-1.61285e-12
4.4553e-12
7.86988e-12
5.20211e-13
-1.36051e-12
-1.40391e-12
-3.31096e-12
2.74696e-12
2.18407e-12
-2.82367e-12
-2.79589e-12
0
1.46957e-12
5.85318e-12
4.38239e-12
6.08505e-12
-1.88012e-12
-7.94593e-14
-3.82411e-12
6.02078e-13
3.20998e-12
6.6288e-12
9.88135e-13
-5.00375e-12
-1.54512e-15
-1.19744e-15
-3.4377e-13
-1.40909e-12
-1.04154e-11
3.38125e-12
1.09125e-12
-1.79938e-14
5.36361e-12
-4.68814e-14
3.48047e-13
-5.13653e-12
-1.11468e-11
-2.55221e-13
1.74049e-13
5.33583e-12
-1.48276e-11
-4.29519e-12
1.32091e-12
6.11184e-13
-5.43082e-13
5.40148e-12
-1.55476e-13
1.34967e-14
2.34344e-14
5.05552e-12
1.1218e-12
8.66493e-12
-2.18098e-12
-1.63393e-12
5.25525e-13
-1.85123e-13
-1.18931e-13
9.93536e-12
5.47601e-12
-5.08348e-12
8.70881e-13
-1.16404e-12
6.76391e-13
9.71479e-12
2.98217e-12
3.98882e-13
1.55746e-12
3.40516e-13
-7.84535e-13
-1.54133e-12
-3.80362e-12
2.52369e-12
-1.59223e-12
-1.08769e-12
-7.09114e-12
1.73191e-12
1.26423e-12
1.60885e-11
8.58542e-13
2.52784e-13
3.25598e-12
-4.80472e-13
1.71599e-12
0
-2.95685e-12
1.57314e-12
-1.57234e-12
-6.42973e-13
2.46787e-12
1.98859e-12
-4.61523e-13
-2.16307e-13
3.99374e-12
-2.30641e-13
2.20012e-13
-1.54825e-12
-9.5163e-12
1.78586e-12
-2.80769e-12
-4.83863e-12
6.13328e-13
-3.71768e-13
-8.82215e-12
5.20452e-12
0
-3.56042e-13
-4.06551e-12
-2.00154e-13
1.26456e-12
-2.03663e-12
-1.29735e-12
-5.52491e-12
7.276e-12
-2.79782e-14
0
3.03449e-13
-1.0923e-13
8.80405e-13
-4.96667e-12
-1.05425e-11
4.44259e-12
6.88744e-13
-3.56561e-13
1.69574e-13
-5.05115e-12
1.85562e-12
-4.29491e-13
1.7712e-12
2.33925e-12
-1.04084e-13
3.47519e-12
6.58265e-14
3.20814e-13
3.13644e-12
3.78941e-16
-1.4224e-15
4.58871e-12
-2.52471e-12
2.80348e-12
0
-1.02583e-13
-1.25281e-11
-1.01734e-12
-2.16037e-13
7.3262e-13
1.15681e-12
1.8527e-12
3.58497e-12
-3.11034e-13
-3.11304e-13
0
-2.09339e-13
-3.95783e-13
1.34179e-12
3.71758e-12
6.65932e-12
1.24363e-13
-3.1263e-13
-1.61685e-11
1.09975e-11
-3.19816e-12
1.68265e-12
4.08809e-12
4.08801e-12
1.15187e-11
5.3238e-12
6.15912e-12
-2.31024e-12
-3.04086e-13
-1.11537e-11
3.91335e-12
-8.0517e-12
-4.96855e-12
-1.2938e-12
2.78573e-12
-4.45249e-13
1.06353e-12
0
-3.02548e-12
-2.52173e-12
1.48625e-12
4.48968e-13
-1.84684e-12
2.42797e-12
-6.69504e-12
4.46111e-12
-5.81729e-12
2.61246e-12
-3.04553e-12
5.92104e-13
-2.48576e-13
-1.07281e-13
-1.03363e-13
2.49501e-12
2.29978e-12
3.05542e-12
-1.37687e-12
-9.86206e-13
-3.58643e-12
-9.00802e-13
-3.80373e-12
1.74893e-12
1.81509e-12
2.62335e-14
1.53026e-12
1.59971e-13
3.0259e-12
-3.98958e-12
-4.54481e-13
8.95165e-13
-2.9629e-12
-1.5546e-12
9.2059e-12
-9.55148e-12
0
-1.95447e-12
-1.95443e-12
-3.80492e-12
-8.25564e-12
7.40832e-12
-6.49379e-13
2.18437e-12
4.58514e-12
-8.7063e-12
-6.24439e-13
5.5724e-13
-5.32747e-12
-1.49658e-11
8.24836e-12
4.09126e-13
-1.76107e-14
2.29413e-12
2.55942e-13
-1.00121e-12
0
9.80663e-12
-2.89826e-12
-5.48324e-12
-2.95021e-13
5.93668e-13
2.01523e-12
1.59956e-12
6.7587e-13
-1.32034e-12
2.9051e-12
-5.92394e-12
-3.32362e-14
-2.12055e-12
-6.87352e-13
1.95332e-12
2.0614e-11
4.57707e-12
2.77785e-12
-5.78641e-12
5.78615e-12
2.56644e-13
-2.94823e-13
-3.09205e-12
-2.68674e-12
-1.43741e-12
6.12526e-12
-9.72169e-13
-1.94349e-13
2.21409e-12
-2.25183e-13
-4.11126e-13
-2.40268e-11
1.53166e-11
5.34571e-12
2.35836e-11
1.31439e-11
-1.16131e-11
8.264e-12
1.0146e-12
-9.45215e-12
-1.83523e-13
1.83224e-13
3.71644e-13
0
-3.37668e-12
-2.20162e-12
2.08402e-12
-1.68872e-11
-1.13576e-12
4.15692e-12
5.60067e-13
-8.10143e-13
-8.1214e-13
4.07109e-12
-1.31077e-12
-1.06586e-13
1.174e-13
-2.43689e-12
-1.99946e-12
1.11211e-12
8.54232e-13
-9.19461e-13
-2.29287e-13
1.32288e-11
1.27215e-12
-3.87588e-12
-2.33233e-12
1.02762e-13
3.34178e-13
1.04248e-12
-5.6283e-13
-3.42122e-12
0
-4.73883e-12
-2.06745e-11
1.22967e-12
1.12399e-12
5.67382e-12
8.73194e-13
3.46283e-13
-8.56112e-12
-3.13709e-13
2.69676e-12
-8.84457e-13
-1.42099e-12
-1.18085e-13
4.07506e-12
-1.15969e-13
3.67769e-12
6.52855e-13
1.21163e-12
1.40957e-12
8.75348e-13
-2.72309e-12
1.28075e-12
0
2.76193e-12
-1.77468e-12
-5.03108e-13
3.92232e-12
-1.37297e-12
-8.00154e-12
-1.58566e-12
2.52146e-12
-4.4351e-14
6.2245e-14
-1.62993e-13
3.56839e-12
3.73973e-12
-1.1306e-12
-1.43169e-12
5.78158e-12
-1.87339e-12
-1.85639e-13
-1.07601e-12
-1.33937e-11
-3.28886e-12
-1.6406e-12
-8.14553e-12
1.17543e-12
-4.05289e-13
2.09999e-12
-7.53066e-13
2.32229e-13
-1.18953e-13
2.54656e-12
-5.05444e-13
-1.37264e-11
-9.14168e-13
-7.34415e-13
5.72013e-12
-1.08048e-11
1.08196e-11
-2.62882e-13
3.32158e-13
-1.87734e-12
-6.46943e-13
2.83118e-12
-2.33482e-12
-1.15332e-11
1.52173e-12
3.33566e-13
3.19466e-12
1.22592e-11
-1.22018e-12
4.53346e-13
-1.66042e-13
1.22528e-12
-5.98727e-12
2.59262e-15
-6.95382e-13
-2.64241e-12
3.60254e-12
9.04568e-12
-6.65704e-15
2.99429e-13
2.50608e-12
4.08923e-12
2.15402e-12
-2.41194e-12
1.49865e-12
0
4.27181e-11
2.19817e-12
2.91302e-12
-2.91329e-12
-2.77326e-12
0
-1.18271e-11
-2.28412e-12
-1.00677e-11
-2.78949e-12
-4.15095e-12
-9.56201e-12
-4.94821e-12
-2.05605e-12
3.08239e-12
-1.32721e-12
-1.67983e-12
5.67173e-13
-2.7495e-13
3.79916e-12
5.27276e-12
3.04336e-12
6.98824e-12
-9.31134e-12
-3.47886e-13
-5.17523e-13
6.91425e-13
0
-6.49297e-13
-9.94216e-12
-4.50448e-13
7.89484e-12
0
6.48131e-12
-4.67219e-12
-4.71308e-12
-2.19289e-12
3.82756e-13
6.17905e-12
5.73637e-12
5.42049e-13
-2.00922e-12
7.07842e-14
-2.10437e-11
1.14923e-11
0
-4.62892e-12
-2.25736e-12
-1.11575e-12
1.26076e-11
-3.32656e-12
1.05465e-12
-6.79589e-12
-1.49817e-15
1.98778e-15
2.96301e-12
1.62556e-11
3.08875e-12
-4.3699e-12
-6.25058e-12
-4.67037e-13
-1.64576e-12
-1.14495e-12
-2.04762e-12
2.37257e-12
5.36582e-13
-3.35927e-13
2.74503e-12
0
-2.26451e-12
1.09764e-12
-1.65342e-12
-2.58215e-12
5.09251e-13
-4.95729e-12
1.49814e-11
2.14232e-12
8.31922e-12
3.64435e-12
1.15788e-12
-5.40616e-13
4.36655e-12
1.61103e-12
-4.76917e-13
3.49102e-13
0
7.27929e-13
6.42088e-12
2.78245e-11
-2.42834e-12
-3.77963e-12
-5.9405e-13
1.64569e-12
-6.45973e-12
0
0
6.11051e-13
3.37352e-12
2.08185e-12
4.45934e-12
4.12181e-12
-7.18704e-12
1.54544e-12
3.22029e-12
-9.12883e-13
1.06074e-12
-3.38783e-12
4.47417e-12
-4.47444e-12
-8.26202e-13
-8.6194e-12
1.75611e-12
1.60705e-11
-3.41168e-14
-7.45817e-13
5.22481e-13
-7.42874e-12
-2.35178e-11
-1.47631e-13
1.27788e-12
3.20706e-12
-7.50845e-12
3.52175e-12
-3.14761e-12
-1.63258e-11
-1.27353e-12
0
2.47569e-12
-1.08203e-11
-1.99736e-12
8.85827e-12
-7.86638e-12
-5.43164e-13
6.72611e-13
6.54511e-12
7.59822e-12
-4.55837e-13
0
7.42485e-12
-2.9631e-12
3.62668e-12
-1.41684e-13
1.65763e-12
-1.72594e-12
2.24344e-12
3.69536e-12
-5.99934e-13
0
7.2235e-13
-2.36865e-12
4.74827e-12
-7.25113e-13
-2.07425e-13
-1.45091e-14
-1.41958e-13
3.25369e-13
-4.21954e-13
4.16217e-12
-1.11559e-12
-8.1806e-12
1.56325e-13
-1.70695e-11
-5.24642e-12
2.22157e-12
2.40319e-13
2.32342e-15
-1.74708e-12
-5.02785e-12
-6.60644e-12
-1.1722e-13
1.52542e-13
1.11969e-12
-2.00601e-12
4.56663e-13
1.43637e-12
2.64882e-13
-4.79115e-13
-1.10353e-12
-4.89737e-12
-1.08086e-13
-9.18934e-14
-3.80395e-12
9.13082e-12
-2.13103e-12
1.1401e-11
-8.93832e-13
-3.02431e-12
-4.67636e-12
0
3.40003e-12
-2.35073e-12
-3.47154e-11
9.72065e-13
-2.63713e-12
1.55061e-12
-1.53653e-12
4.7406e-12
7.70496e-12
-6.13762e-12
8.55152e-13
-1.95094e-12
-9.78435e-12
1.7706e-11
1.33735e-12
-3.67059e-12
1.18246e-11
-3.55508e-13
-1.37503e-12
5.53673e-12
1.79935e-14
-8.20219e-14
-6.58279e-12
6.01732e-14
-1.79708e-13
3.50266e-12
0
0
-1.99042e-12
-3.34762e-12
9.14472e-13
0
8.89805e-12
-1.6797e-12
-1.13489e-12
2.40113e-12
2.07175e-11
-7.90348e-12
1.31339e-13
-1.16806e-12
9.49822e-13
-2.07144e-11
5.16021e-12
2.2938e-12
-2.87224e-13
1.86902e-12
-5.88542e-13
1.86385e-13
3.52102e-12
7.77408e-12
1.70824e-11
0
-1.41835e-12
-5.0622e-12
-1.31447e-12
-3.88029e-12
1.51625e-12
9.04511e-13
-2.87589e-12
-1.64756e-13
-2.09269e-12
1.78776e-13
3.30131e-12
-1.66752e-12
-5.81471e-12
3.73734e-13
9.46039e-12
-5.37229e-12
1.48169e-13
2.87226e-12
2.25343e-13
5.64051e-12
5.14133e-12
-9.6904e-13
0
1.19405e-15
2.94468e-12
-1.56642e-12
9.06331e-12
9.73169e-13
3.12348e-12
2.31209e-12
5.44631e-14
-5.21149e-13
-6.07869e-13
-2.12385e-12
7.26041e-12
1.43196e-12
2.75778e-12
-3.49437e-12
-7.61374e-13
1.11205e-13
4.32559e-12
-3.27493e-12
-6.24181e-14
2.88026e-15
-4.14088e-15
-5.16126e-12
-8.07699e-12
9.09219e-13
-1.185e-12
1.38509e-12
3.54473e-13
1.25434e-13
0
3.19288e-12
-2.5975e-12
-2.65576e-12
5.54058e-13
-9.48908e-12
1.62976e-12
-1.77478e-12
-3.29515e-13
8.47048e-13
-2.64375e-12
8.09892e-13
-5.32238e-13
-4.01785e-13
-2.15383e-13
-1.06445e-12
2.24906e-12
1.1549e-13
3.02667e-12
-1.16715e-12
-1.24834e-12
-3.4379e-12
-8.20144e-13
4.24456e-13
-1.72783e-13
2.35261e-13
-4.70316e-13
0
2.8916e-12
1.54059e-13
-3.75886e-13
-5.10691e-12
3.3456e-12
0
0
-1.01255e-12
-4.51093e-12
2.08946e-11
3.11029e-12
-8.54359e-13
8.54367e-13
2.27643e-12
-1.34842e-12
-4.89086e-13
4.08138e-12
5.6266e-12
5.47344e-12
3.5987e-12
-1.07611e-12
4.69693e-12
6.23035e-13
1.22145e-15
2.18401e-15
-4.13983e-12
-1.44866e-13
-2.93789e-12
-2.9702e-12
-2.41655e-12
7.32154e-12
-2.72721e-12
5.81512e-12
7.29618e-13
-3.59034e-12
-5.37649e-13
-2.93496e-13
-1.45295e-11
8.39748e-13
4.73949e-11
-1.15497e-11
-7.58881e-13
1.7847e-12
6.60704e-12
1.53958e-12
-7.59887e-12
-9.37788e-13
2.38193e-13
-3.72596e-12
-7.15344e-13
-1.36909e-12
-8.97688e-12
8.22744e-13
3.88527e-12
-4.98137e-12
1.86975e-12
-8.57012e-12
-1.6016e-13
2.55622e-12
3.93495e-12
2.29224e-12
3.17608e-11
3.14079e-12
3.68824e-12
4.13247e-14
-4.9575e-14
2.04482e-13
3.44089e-14
-2.94726e-13
3.06496e-12
8.79928e-13
2.68341e-12
4.31931e-11
3.60952e-13
-2.02583e-12
4.38457e-12
1.00122e-11
8.35038e-13
-2.03548e-12
-6.60379e-12
9.71074e-13
3.01092e-12
-1.13501e-12
1.425e-11
-2.12716e-12
9.08002e-12
2.86465e-12
-4.18524e-12
8.98855e-13
6.27895e-12
-1.30157e-12
-9.2558e-12
-2.15349e-14
3.80451e-14
-1.58304e-12
1.69203e-12
-8.21701e-13
-3.53606e-12
2.65782e-12
3.91288e-13
-2.92599e-12
-2.01627e-11
0
1.80969e-12
1.38424e-12
1.23384e-13
1.04244e-11
0
-1.83686e-12
3.71038e-14
-1.64443e-12
-2.27375e-12
3.90849e-12
3.67088e-12
7.96592e-12
-2.12294e-12
-6.38893e-12
-4.22447e-12
1.1588e-12
2.44097e-12
-2.14371e-12
1.74488e-13
1.09245e-13
7.44317e-13
-6.31179e-12
1.25277e-13
1.52562e-12
-1.46963e-12
4.41596e-13
-1.23567e-12
2.27034e-12
4.85357e-12
1.2241e-11
-4.35347e-12
1.26617e-12
-1.83229e-12
-2.96671e-12
-9.32163e-12
-2.84088e-12
-2.1842e-13
4.58443e-12
-5.85062e-12
0
6.73785e-12
-1.8917e-13
-2.08481e-12
-6.62544e-12
-8.14932e-14
7.50759e-12
2.58765e-12
1.8601e-11
1.48978e-11
3.99067e-12
-8.19689e-12
-3.84726e-13
7.97794e-13
1.34014e-14
5.3098e-12
3.44074e-12
6.89157e-13
-1.32904e-12
1.4109e-13
4.30494e-12
-1.15681e-12
4.72073e-14
-5.50981e-14
-2.18806e-12
5.21404e-12
-1.75502e-13
9.32447e-14
-3.3207e-12
8.66836e-13
1.69558e-12
1.40268e-12
-3.79667e-12
-2.36174e-13
2.79155e-12
-1.75712e-12
1.8013e-12
5.26397e-12
1.03602e-12
-1.70961e-12
2.35549e-12
-3.24454e-12
-6.85159e-12
-7.57922e-12
4.82895e-12
-2.8233e-13
2.87285e-12
-3.46307e-12
0
7.92934e-13
-3.91364e-12
1.8722e-12
-1.68993e-11
-4.34902e-12
0
3.14475e-12
-3.55511e-12
4.10741e-12
-4.50237e-12
1.46796e-12
3.64937e-11
3.78506e-11
7.32461e-12
7.52277e-13
2.42451e-14
-1.75403e-14
-7.44557e-12
-8.94078e-13
1.62797e-12
-1.5805e-12
-9.64879e-13
7.83326e-13
1.81205e-12
2.5862e-12
9.16462e-13
0
3.01209e-15
6.28133e-12
3.71598e-12
4.15225e-13
7.29827e-12
1.99346e-12
3.02046e-13
-1.88349e-13
-1.17845e-11
-2.26e-11
5.02826e-12
-3.10601e-12
2.41553e-12
-3.6648e-12
-7.90202e-13
-1.56922e-12
-9.9179e-13
-8.39886e-14
-1.3086e-12
-1.71064e-12
2.41537e-12
9.25437e-13
1.71612e-12
1.28738e-11
2.63135e-12
-2.74704e-13
1.68263e-13
2.04206e-12
-5.23445e-13
1.41061e-12
-1.34205e-14
-1.16796e-14
5.66067e-12
-4.5035e-12
-1.18163e-12
-3.18855e-12
1.14284e-13
-2.35462e-13
2.97814e-12
-5.8539e-14
1.79948e-13
-4.95915e-12
-2.77123e-12
9.24461e-13
7.10345e-12
0
2.11646e-12
-7.35354e-12
3.34024e-13
2.40407e-12
7.90053e-12
2.30652e-13
2.40197e-13
-4.65691e-12
2.68537e-11
-5.99682e-12
-5.50083e-12
5.09647e-12
2.70799e-12
1.90268e-12
-1.66117e-12
-3.61503e-12
1.74905e-12
5.21252e-15
8.81774e-15
-5.75706e-13
-2.08312e-13
1.23608e-12
7.23103e-12
-1.90661e-13
5.50823e-13
-4.46683e-12
-2.25777e-12
4.55095e-12
4.70906e-12
-3.03777e-12
4.53166e-12
-3.5244e-12
2.15569e-12
-2.27381e-12
-2.73793e-12
-9.05419e-12
-7.16836e-12
-4.44622e-12
3.58283e-12
-1.11948e-11
-1.98909e-12
2.72396e-12
6.29221e-13
-2.14836e-11
3.72177e-12
-2.17976e-13
5.30931e-13
-3.2115e-13
2.64769e-12
-6.91332e-13
-5.88614e-12
-4.11471e-12
-2.14849e-12
6.46796e-12
1.27043e-11
5.96065e-12
-4.81906e-12
2.99425e-12
-2.25156e-12
0
1.17723e-11
2.12714e-11
0
-5.80069e-12
1.60103e-12
2.34489e-12
2.14986e-12
3.97098e-13
1.26451e-11
-1.46154e-12
2.03005e-12
5.69263e-15
2.09282e-13
-8.52296e-13
-2.34509e-14
4.79174e-13
-2.74206e-13
1.41845e-14
-2.02988e-12
4.59875e-13
-6.26421e-12
2.27752e-12
-2.96283e-13
4.99828e-12
1.57204e-12
2.14381e-12
-5.84794e-12
-2.54607e-12
-1.36085e-12
1.16735e-11
-1.54267e-12
-2.62913e-13
4.30163e-12
-1.23415e-13
9.8611e-14
-9.89745e-12
2.64551e-11
0
-3.19023e-12
6.21826e-14
-6.21512e-14
-1.87163e-14
1.85062e-14
-1.07947e-13
1.06618e-11
-1.50744e-11
0
0
-4.24957e-13
-1.94564e-12