/*--------------------------------*- C++ -*----------------------------------*\
| =========                 |                                                 |
| \\      /  F ield         | OpenFOAM: The Open Source CFD Toolbox           |
|  \\    /   O peration     | Version:  v3.0+                                 |
|   \\  /    A nd           | Web:      www.OpenFOAM.com                      |
|    \\/     M anipulation  |                                                 |
\*---------------------------------------------------------------------------*/
FoamFile
{
    version     2.0;
    format      ascii;
    class       volScalarField;
    location    "8000";
    object      sigmaxx;
}
// * * * * * * * * * * * * * * * * * * * * * * * * * * * * * * * * * * * * * //

dimensions      [1 -1 -2 0 0 0 0];

internalField   nonuniform List<scalar> 
27023
(
-1.95174e+07
1.95213e+07
1.25678e+07
-1.25648e+07
-1.97198e+07
1.97237e+07
1.06412e+08
-1.06403e+08
4.71964e+06
-4.71386e+06
7.69931e+07
-7.69812e+07
849287
-868009
-3.08011e+07
2.5125e+06
1.69704e+06
-6.60077e+07
6.60135e+07
4.83901e+07
-4.8386e+07
1.05798e+08
-1.05789e+08
5.41257e+07
-5.41222e+07
8.50686e+06
-3.78523e+07
4.01875e+06
-3.73528e+07
3.67351e+07
1.7663e+07
4.84361e+07
-4.8433e+07
-4.92396e+07
-3.04922e+07
3.82677e+07
4.40987e+07
-4.4091e+07
4.52291e+06
-4.5205e+06
-1.25403e+07
1.25435e+07
-2.48889e+07
-1.87945e+07
1.87984e+07
6.51394e+07
-6.51336e+07
5.12031e+07
-5.11985e+07
3.38951e+07
4.94046e+07
-4.94006e+07
-4.80302e+07
485.538
-483.006
5.41075e+07
2.26326e+07
4.02364e+07
-1.83469e+07
1.19717e+07
-1.1969e+07
3.33578e+07
5.15246e+06
5.96887e+06
-2.41771e+07
1.56816e+07
4.30618e+07
1.05404e+07
-3.83735e+07
-2.32188e+07
4.22261e+07
-4.22182e+07
7.37389e+07
-7.37338e+07
9.8158e+07
-9.81531e+07
177039
-174905
-1.15699e+08
1.15705e+08
-2.87484e+07
7.43964e+07
-7.43843e+07
7.18349e+07
-7.18299e+07
-1.04216e+08
1.04221e+08
-4.29229e+07
4.13608e+06
-1.94111e+07
1.86001e+07
2.44636e+07
-2.44595e+07
2.14992e+07
-8.7297e+06
-5.42738e+07
5.42712e+07
-2.86789e+07
-1.93418e+07
922753
-3.16113e+07
-1.97889e+07
2.01181e+07
8.6389e+07
-8.63823e+07
3.48067e+06
9.65849e+07
-9.65778e+07
5.34072e+07
3.76313e+07
2.29993e+07
9.69015e+07
-9.68946e+07
5.35565e+07
-5.35537e+07
9.9002e+07
-9.8997e+07
2.3798e+07
-3.90756e+07
-2.9148e+07
2.36646e+07
2.48076e+06
-8.01361e+07
8.01492e+07
1.14618e+08
-1.1461e+08
2.40416e+07
-2.40374e+07
8.78161e+07
-8.78092e+07
-1.77631e+07
-2.09261e+06
2.12702e+06
-1.65787e+07
2.04307e+07
-1.04488e+08
1.04493e+08
1.00645e+07
6.77105e+07
-6.77046e+07
-9.94989e+07
9.95087e+07
-7.02624e+06
1.02918e+08
-1.0291e+08
-1.66678e+07
-1.82783e+07
4.92286e+07
4.38601e+07
4.1382e+07
-4.13753e+07
5.19074e+07
-5.19023e+07
-2.97924e+07
-3.13879e+07
-3.26018e+07
3.25658e+07
3.09603e+07
6.69039e+07
-6.6898e+07
-6.07098e+07
-2.51611e+07
-5.24867e+07
3.62035e+06
-6.19304e+07
6.19397e+07
-9.03369e+07
9.03469e+07
-2.05716e+07
2.13265e+06
5.87075e+06
-1.16399e+08
1.16405e+08
-2.13744e+07
2.13117e+07
-3.32888e+07
2.69824e+06
-6.55371e+06
-2.18451e+07
1.05888e+07
-4.40216e+07
-9.49828e+07
9.49921e+07
-3.30624e+07
-6.02766e+07
-6.41737e+07
-5.14165e+07
5.14153e+07
-5.51284e+07
-1.96712e+07
-9.03159e+07
9.03255e+07
-2.76175e+07
4.64918e+06
1.1536e+08
-1.15352e+08
-6.81032e+07
-8.72914e+07
8.73027e+07
-3.66999e+07
3.2761e+07
-3.89477e+07
9.62646e+07
-9.62597e+07
-1.86054e+07
1.86093e+07
-2.46762e+07
-6.71251e+07
9.60581e+07
-9.60531e+07
25400.1
-25231.4
2.08967e+07
-2.63152e+07
-1.1129e+07
1.11331e+07
-3.23583e+07
2.49528e+06
6.88009e+06
-1.02631e+08
1.02637e+08
-1.78853e+07
-8.06156e+07
8.06285e+07
-3.09551e+07
9.0429e+07
-9.04233e+07
7.43873e+07
-7.43822e+07
1.9177e+06
-1.91785e+06
4.85723e+06
9.3118e+07
-9.31123e+07
-6.19428e+07
9.03219e+07
-9.03166e+07
9.96281e+07
3.73256e+07
-1.1194e+08
1.11949e+08
3.97264e+07
6.40201e+07
6.33765e+07
-5.04186e+07
2.33076e+07
294973
-3.45403e+07
5.28294e+07
-4.93501e+07
-1.06964e+08
1.06971e+08
-2.29768e+07
-1.70715e+07
-6.75443e+07
-6.83146e+07
8.21654e+07
-6.25831e+07
5.43237e+07
-5.43175e+07
2.14157e+07
3.66157e+06
5.77979e+07
9.28396e+07
-9.28343e+07
1.02045e+08
-1.02036e+08
7.71643e+06
-1.46886e+07
7.93134e+07
-7.93004e+07
4.01377e+07
-2.32318e+07
-4.34774e+07
1.02238e+07
5.98515e+06
-6.27394e+07
6.27489e+07
-5.42492e+07
5.42575e+07
4.58285e+07
-5.63635e+07
1.12996e+07
-1.10495e+07
-23088.3
22542.9
-2.33587e+07
-2.91052e+07
1.33913e+07
4.62168e+07
2.5563e+06
-2.24396e+07
-8.84495e+07
8.84553e+07
-1.02704e+08
1.02709e+08
-4.98914e+07
6.64257e+07
-9.61677e+07
9.61726e+07
1.49009e+06
8.59328e+06
-8.87095e+07
8.87175e+07
-1.34665e+07
1.51903e+07
-1.51829e+07
3.26402e+07
3.34369e+07
-6.46823e+06
-203607
-910.994
923.497
936783
-937416
4.50484e+07
-5.03269e+07
5.03335e+07
1.41945e+06
3.26628e+07
1.94814e+06
-1.95009e+06
-4.07915e+07
-2.74296e+07
-2.18823e+07
3.39296e+07
-7.82302e+07
1.04257e+07
4.56962e+07
-5.48381e+07
-1.92676e+07
5.48325e+07
-8.90978e+07
8.99671e+06
3.8075e+07
-3.2618e+07
3.26234e+07
-1.771e+07
1.14343e+07
8.41339e+07
-8.4128e+07
-6.55188e+07
6.58242e+07
66286.2
-65935.4
-3.55534e+07
1.90837e+07
-1.90798e+07
-2.79746e+07
1.30923e+07
-5.05906e+07
5.0614e+07
9.58517e+07
-9.58461e+07
-36084.2
36104.7
6.33447e+06
-1.11711e+08
1.11718e+08
-5.84753e+06
-4.3805e+07
-9.31572e+07
9.31622e+07
-9.82773e+07
9.82895e+07
1.88765e+07
-4.05919e+07
-6.63034e+06
-2.82472e+07
2.82518e+07
-1.10516e+08
1.10522e+08
-1.85139e+07
-6.23126e+07
-2.29001e+07
-6.32921e+07
-6.29428e+07
-3.75971e+07
-4.13115e+07
4.14003e+07
3.15888e+07
-4.1391e+07
1.08571e+08
-1.08562e+08
-3.3273e+07
1.30028e+07
1.79878e+07
-6.45825e+07
-5.19347e+07
-3.63841e+06
-3.26423e+07
1.22121e+07
4.39218e+07
4.56859e+06
1.97711e+06
-9.60975e+06
4.02529e+07
2.18593e+07
-9.18368e+07
-4.32238e+07
7.37828e+07
-7.37778e+07
2.7599e+07
-2.6862e+07
1.29085e+07
-2.95504e+07
2.95551e+07
1.08245e+06
2.17598e+07
-4.95315e+07
2.95609e+06
4.945e+07
98268.2
-98370
-1.87531e+07
5.34498e+07
4.00668e+07
6.56589e+07
3.53355e+07
-4.649e+07
1.99979e+07
-5.80559e+07
1.66073e+07
7.24364e+06
4.89741e+06
-8.75651e+07
-9.35335e+07
9.35384e+07
-8.14094e+07
7.68745e+06
6.27518e+07
-3.1534e+07
9.0186e+07
-9.01809e+07
-6.44442e+07
6.44489e+07
6.51761e+07
6.04839e+06
5.44831e+06
-5.44802e+06
-8.23581e+07
8.23312e+07
5.78757e+07
-5.78698e+07
14883.7
-14946.8
-2.01605e+07
-1.4458e+07
-5.19515e+07
-5.39045e+06
-1.38289e+07
-8.93553e+07
8.93678e+07
-8.75403e+07
8.75526e+07
5.73077e+07
-5.73053e+07
4.81647e+07
-4.81583e+07
-1.24068e+07
322781
-1.26362e+07
-5.00635e+07
2.28162e+07
6.11525e+07
-2.09118e+07
-1.11696e+08
1.11706e+08
-5.50382e+07
2.79474e+07
1.41035e+07
7.37631e+07
6.34063e+07
-4.30828e+07
-1.56192e+07
8.95298e+07
-8.95238e+07
-2.52133e+07
2.52687e+07
1.43671e+07
-1.43623e+07
9.20571e+07
-9.20514e+07
2.39243e+06
1.31943e+07
-1.55006e+07
2.02526e+07
8.91121e+07
9.62753e+06
-7.66897e+07
7.67021e+07
-3.57537e+07
4.42756e+07
2.83594e+06
-5.08067e+07
5.08133e+07
2.49056e+07
-2.49013e+07
3.2738e+07
-7.66647e+07
-4.4444e+07
-3.0586e+07
3.05891e+07
-4.93335e+07
-7.98172e+06
4.48016e+07
-4.47968e+07
-3.78234e+07
1.03027e+08
-1.03012e+08
7.80965e+07
-7.80846e+07
-5.09719e+07
-6.9811e+07
6.98214e+07
-2.57476e+07
-3.66539e+07
8.51527e+07
-8.51474e+07
-6.56347e+07
-9.43556e+07
9.43605e+07
5.49024e+07
-8.52156e+07
8.52214e+07
-5.42971e+07
5.43069e+07
-1.30061e+07
5.43576e+07
-5.43506e+07
-4.40947e+07
-8.90052e+06
-1.04362e+07
-1.43586e+07
6.27881e+07
-6.27853e+07
-1.06398e+08
1.06404e+08
-3.99605e+07
-6.73751e+07
3.75877e+07
4.09797e+06
-4.55005e+07
-4.18077e+07
2.29156e+07
-5.16304e+06
5.16336e+06
-7.81476e+07
-1.03335e+08
1.0334e+08
3.97445e+07
4.04751e+06
-8.56738e+07
8.568e+07
-4.29055e+07
-5.29141e+07
5.29287e+07
502703
6.27273e+06
-1.55868e+07
-3.57751e+07
-3.39953e+07
4.40061e+07
-4.40023e+07
-4.73838e+07
-1.10565e+06
7.54495e+07
-7.54436e+07
1.73154e+07
-4.75721e+07
4.75755e+07
-1.39139e+07
2.85764e+07
-2.85715e+07
-8.45812e+07
8.45916e+07
-3.34882e+07
3.34937e+07
5.27808e+07
-3.50928e+07
3.50259e+07
5.20268e+07
-4.23564e+07
4.23631e+07
-3.68498e+07
1.74839e+07
-1.99749e+07
-5.50942e+07
4.05275e+06
-1.02441e+07
-1.90855e+07
-8.73603e+07
5.08352e+07
-5.08289e+07
4.05397e+07
5.18099e+07
-5.18058e+07
-3.83524e+07
-7.06953e+07
7.07001e+07
-1.37734e+07
-3.69809e+06
-4.84763e+07
4.84796e+07
8.85527e+07
-8.85474e+07
6.76714e+07
2.48225e+07
4.02849e+07
7.39568e+07
-7.39511e+07
1.0037e+08
-1.00364e+08
3.21251e+07
-2.50772e+07
1.28641e+07
-1.31996e+07
3.58499e+07
-3.58352e+07
-4.10009e+07
-237646
-434816
436953
238828
-2.51618e+07
806508
-813668
-4.22212e+07
4.22277e+07
-2.18849e+07
2.1889e+07
2.78824e+07
-2.78776e+07
6.426e+06
6.39291e+07
-6.39254e+07
-5.21486e+07
-2.48574e+07
-6.0353e+07
6.03564e+07
-3.12408e+07
6.9914e+07
-6.99086e+07
-4.0902e+07
-3.07135e+07
6.38059e+07
-3.10408e+07
3.1046e+07
6.26855e+07
4.69216e+06
-50189.8
-2.99197e+07
-8.76953e+07
8.77013e+07
-8.72446e+06
4.98376e+07
-1.11421e+08
1.11428e+08
14273.8
-14320.2
5.63412e+07
-5.6341e+07
4.89871e+07
-7.79613e+06
1.1174e+08
-1.11735e+08
-3.27475e+07
-5.01533e+07
9.24074e+06
2.21067e+07
4.26779e+07
3.65503e+07
2.03139e+07
-1.75932e+06
-1.44664e+07
-6.10201e+07
3.9036e+07
5.75986e+07
-5.50402e+07
-2.79303e+07
-2.31963e+07
50343.2
-50649.7
7.04299e+07
-7.04251e+07
4.18656e+07
-3.42068e+06
-2.46919e+07
-8.95593e+06
5.05006e+07
5.39575e+07
-5.02576e+07
-5.47331e+06
3.51282e+07
-3.85604e+07
-1.30576e+07
2.26197e+07
-2.26153e+07
4.50128e+07
7.09588e+07
-6.74172e+06
-3.53717e+07
8.93799e+07
-8.9374e+07
-9.71157e+07
9.71206e+07
-18590.6
18209.4
-4.80499e+06
-6.49765e+06
-2.80423e+07
-3.44175e+06
-4.64602e+07
4.64613e+07
3.06834e+07
3.83565e+06
-3.83587e+06
-1.02973e+08
1.02978e+08
-8.09225e+07
7.92593e+07
-7.92538e+07
-1.4191e+07
6.41549e+07
-4.02595e+07
-2.33758e+07
6.36382e+07
7.07954e+06
8.4462e+07
-8.44567e+07
3.41789e+07
-9.8332e+06
9.79899e+07
-9.79773e+07
-3.40462e+07
-9.13224e+07
-2.67258e+07
9.13292e+07
2.40441e+07
-2.40071e+07
4.60157e+07
3.35124e+07
-4.82853e+07
-1.94726e+06
-4.82403e+07
-2.24524e+07
8.48004e+07
-1.56456e+07
2.9555e+07
-2.95512e+07
-9.67848e+07
9.67897e+07
2.43379e+07
6.6994e+06
-8.55181e+07
8.55239e+07
-5.30913e+07
4.38371e+07
3.57671e+07
1.68731e+07
3.96829e+07
1.93056e+07
-1.93017e+07
-1.37538e+07
4.80401e+07
-4.80366e+07
-9.57175e+07
9.57227e+07
1.09136e+06
-3.65269e+07
-6.62751e+06
-8.47436e+07
7.07196e+07
-7.0707e+07
3.60721e+07
4.12543e+06
-2.57428e+07
-5.74372e+07
-2.35508e+07
-3.42073e+07
-1.32235e+07
-3.40174e+07
4.05668e+07
9.74379e+07
-9.74328e+07
7.83991e+07
-7.83868e+07
6.38382e+07
-6.28084e+07
-1.40672e+07
6.30435e+06
9.47121e+07
-9.4707e+07
-6.65168e+07
-6.03389e+07
1.76785e+06
-2.46817e+07
7.50772e+06
3.38063e+06
-3.37382e+06
-2.5697e+07
-1.01849e+07
1.03113e+08
-1.03104e+08
-2.6959e+06
2.7576e+07
-5.2961e+06
1.14813e+08
-1.14807e+08
-3.39883e+07
3.39954e+07
-4.05314e+07
-2.00167e+07
2.00212e+07
-1.42771e+07
-6.48939e+06
3.3661e+06
6.18222e+06
8.83889e+07
-8.83837e+07
-1.26382e+07
-4.98873e+07
4.98933e+07
9.91588e+07
-9.91537e+07
-3.32593e+07
3.30389e+07
4.82189e+07
-4.82126e+07
-9.87146e+07
9.87258e+07
1.14004e+07
-6.24797e+07
1.01321e+08
-1.01311e+08
-6.54236e+07
-4.81445e+06
4.81467e+07
-4.81413e+07
7.8631e+07
-7.86256e+07
-5.54222e+07
-8.81424e+07
8.81483e+07
-1.08594e+08
1.08599e+08
5.54184e+07
2.67842e+07
3.85234e+07
1.74848e+07
6.92078e+07
-6.92019e+07
-8.7232e+07
5.26978e+06
6.63615e+06
8.72358e+07
2.77437e+07
4.45667e+07
-3.87178e+07
4.78226e+07
-4.78198e+07
982546
1.27392e+07
-4.69391e+07
6.99472e+07
-6.99723e+07
2.71836e+07
-3.08852e+06
66167.5
-64655.8
-3.48336e+07
-4.00012e+07
-3.23616e+07
1.0114e+08
-1.01131e+08
-5.84091e+07
-4.83047e+07
-5.71635e+07
3.00038e+07
4.58259e+07
-4.5819e+07
-6.22058e+07
2.34316e+07
5.845e+07
-3.44211e+07
3.46322e+07
5.71638e+07
-5.75496e+07
4.93979e+07
-4.93922e+07
-8.65905e+07
8.65956e+07
5.6326e+07
-1.99516e+07
3.65276e+07
8.05328e+07
-8.0521e+07
-7.91678e+07
7.91736e+07
105406
-2.98474e+07
6.96337e+07
-6.96279e+07
-4.03552e+07
7.44168e+06
-7.44011e+06
-3.18572e+07
-3.24241e+07
8.75589e+07
-5.26589e+07
-5.5132e+07
-6.60998e+07
3.56383e+07
-3.80307e+07
-1.27639e+07
9.97515e+07
-9.97462e+07
-5.49557e+06
1.2818e+06
1.752e+07
-3.87465e+07
-1.65737e+07
-9.18771e+06
-5.44623e+06
3.67099e+07
-2.9142e+07
2.5806e+06
1.47349e+07
-3.45352e+07
2.83601e+07
-8.00854e+07
1.98725e+07
-2.05096e+07
-5.29386e+06
5.29422e+06
3.38892e+07
-1.04078e+07
1.0407e+07
-2.7426e+07
-1.54655e+07
6.43618e+07
-6.43583e+07
3.47584e+07
7.50676e+06
-7.50835e+06
-2.90408e+07
-1.72041e+07
3.24068e+07
-4.23944e+07
4.85871e+07
3.09471e+07
-9.29761e+07
3.77967e+07
3.13751e+07
5.24584e+07
2.10595e+07
-2.10556e+07
1.26312e+07
-1.28616e+07
282202
-282579
5.16425e+07
-1.56909e+06
3.84734e+07
2.85301e+07
-3.78808e+07
3.78812e+07
-6.45323e+07
-1.17639e+07
3.28608e+07
-76309.4
76128.5
-3.6574e+07
-2.5088e+07
-763650
4.36014e+06
-1.82201e+07
6.31955e+07
3.24763e+07
-4.73761e+07
-3.93146e+07
3.93152e+07
-7.40117e+07
-5.77246e+07
1.21574e+06
7.06873e+06
-4.30529e+07
-6.69902e+07
6.70031e+07
2.76856e+06
-2.9091e+07
-7.11243e+07
-5.59271e+06
5.59313e+06
-3.78151e+07
1.72349e+07
3.83958e+07
-8.88264e+07
8.88323e+07
-1.65341e+07
-4.6845e+07
4.6861e+07
6.11853e+07
-6.11738e+07
2.89533e+07
-3.84752e+07
230486
-228232
-3.13052e+07
1.50401e+06
1.13518e+07
9.69467e+07
-9.69414e+07
-1.13187e+07
1.04802e+08
-1.04788e+08
5.97882e+06
4.64954e+07
-1.5619e+07
-6.85376e+07
-2.89228e+07
-9.82135e+06
6.85503e+07
6.98166e+07
8.1424e+06
-2.91245e+07
-4.13512e+07
4.13543e+07
3.99924e+07
-4.11479e+07
6.24068e+07
3.08451e+07
4.22398e+07
-9.27731e+06
7.10784e+06
-1.45632e+07
-2.34695e+07
2.72384e+06
9.07898e+06
-1.44573e+07
-9.63852e+06
479418
4.07436e+07
2.37155e+07
-5.26885e+07
-3.86996e+07
-1.75119e+07
-6.46139e+07
6.05355e+07
-5.64938e+07
5.65008e+07
1.18774e+07
-4.82112e+06
-3.71476e+07
3.71436e+07
7.59458e+07
-7.59399e+07
-2.5883e+07
-1.01047e+07
5.21955e+07
-5.96964e+06
5.96847e+06
9.42325e+07
-9.42275e+07
6.44233e+06
1.39943e+06
-3.35592e+07
-9.43294e+06
-7.73802e+06
-1.84965e+06
-8.3333e+06
-2.06405e+06
6.44175e+07
6.24046e+07
-6.24011e+07
3.62598e+07
-3.62076e+07
1.6239e+07
1.55251e+07
9.44769e+07
-9.44718e+07
8.25037e+06
1.65435e+07
3.67045e+07
-1.37699e+07
-5.90546e+07
-2.50943e+07
2.30528e+07
-1.92282e+07
7.0476e+07
-1.08094e+07
-2.19769e+07
8.37448e+07
6.47972e+07
-6.47933e+07
-7.45849e+07
1.27115e+07
4.1013e+07
-3.09635e+07
3.21406e+07
8.27197e+07
-8.26568e+07
-3.24242e+07
-8.57141e+07
-3.54593e+06
3.54746e+06
6.38934e+06
-6.38815e+06
2.37511e+07
3.42848e+07
-3.15018e+07
9.75818e+07
-8.87578e+07
8.87712e+07
1.36629e+07
-1.36565e+07
-1.57468e+07
9.9844e+07
-9.98386e+07
-4.01648e+07
3.96326e+07
-1.08421e+07
-22875.4
22811.5
-3.28883e+07
-1.56176e+07
7.95016e+07
-2.12247e+07
-9.1461e+07
9.14701e+07
3.52122e+07
7.59115e+07
-7.53716e+07
2.84634e+07
1.86947e+07
-2.58306e+06
3.74399e+07
-3.74353e+07
-9.37913e+07
9.37966e+07
-1.75506e+07
-4.37607e+07
4.37584e+07
-8.80962e+07
8.81021e+07
1.94302e+07
-4.759e+07
4.00149e+07
-1.57448e+07
3.45953e+07
-3.4588e+07
-3.06162e+07
1.41476e+07
6.86104e+07
-699918
-2.79793e+07
2.79837e+07
-4.08561e+07
1.96115e+07
8.1399e+07
8.19183e+07
-8.19126e+07
6.09287e+07
-8.05429e+06
-3.10914e+07
3.06007e+07
1.00928e+08
-1.00915e+08
-4.33953e+07
6.86963e+07
-6.86912e+07
4.21912e+07
-6.78487e+07
-5.42698e+07
5.42691e+07
3.62799e+07
2.49484e+07
1.93307e+06
-3.00952e+06
-5.04236e+07
1.59335e+07
-1.29003e+07
36550.6
-36768.2
6.79096e+07
8.07881e+06
-8.07677e+06
8.09631e+07
-8.09515e+07
19857.2
9.89069e+07
-9.88953e+07
-6.6294e+07
6.63033e+07
-1.06796e+08
1.06801e+08
2.76331e+07
9.84303e+07
-9.84253e+07
8.03636e+06
-3.33117e+07
-1.38016e+06
-3.06476e+07
2.13707e+07
-2.91639e+07
7.65618e+07
-7.65577e+07
-2.01242e+07
2.01305e+07
2.01779e+07
-2.77352e+06
1.5438e+06
6.24492e+07
1.08923e+07
4.54902e+07
-6.75466e+07
1.03132e+07
-1.3511e+07
2.94012e+06
-2.94032e+06
6.29258e+07
-4.33392e+07
6.20658e+07
-4.03354e+07
-1.9598e+07
7.92288e+06
4.17901e+07
-4.17739e+07
4.0991e+07
2.2769e+07
-3.65122e+07
3.65076e+07
-1.54427e+07
-4.8279e+07
-9.55774e+07
-5.1061e+07
5.10636e+07
6.73108e+07
-3.24375e+07
3.95534e+07
-4.17072e+07
5.06244e+07
9.55859e+07
4.17114e+07
5.31911e+07
4.35882e+07
2.55466e+07
3.99339e+07
-1.29793e+07
3.49671e+07
2.62506e+07
2.0015e+07
-6.26793e+06
-2.14823e+07
3.6786e+07
-3.9542e+07
-2.42968e+07
7.76105e+07
-7.7605e+07
-5.58279e+07
1.55359e+07
-1.42426e+07
-1.66973e+07
6.63074e+07
-6.43255e+07
7.70021e+06
-7.96825e+07
-2.76389e+07
1.2084e+07
6.43407e+07
3.5324e+07
-5.18492e+07
2.20977e+07
-9.62771e+06
6.07255e+07
-5.98241e+07
4.10631e+07
58761.2
-59838.2
-6.76614e+07
-7.32789e+07
7.32914e+07
3.47542e+06
8.41568e+07
-8.41483e+07
1.00554e+07
1.7684e+07
-1.76803e+07
-4.39484e+07
331592
1.02134e+07
1.02968e+08
-1.02963e+08
-4.94712e+06
-7.91366e+07
8.59593e+07
-3.15312e+07
8.13296e+07
-8.13187e+07
-4.489e+07
1.25955e+07
7.80596e+06
-7.3413e+07
3.87087e+07
-3.87123e+07
9574.24
-9666.71
5.13674e+06
2.40582e+07
4.5989e+07
-4.59824e+07
8.68895e+07
-8.68834e+07
-7.23998e+07
1.5929e+07
3.21844e+07
8.01593e+07
-8.01534e+07
3.9179e+06
-151981
150875
-7.58796e+07
7.58597e+07
-8.69211e+07
8.6927e+07
-8.05396e+07
9.40947e+07
-9.40894e+07
5.99851e+07
-5.99742e+07
4.47799e+07
-2.08072e+07
-8.79194e+07
8.58764e+07
3.64545e+07
2.4024e+06
-8.58736e+07
1.56002e+07
4.49827e+07
4.7653e+07
5.18625e+07
3.06343e+07
8.97817e+07
-8.97766e+07
-2.32166e+07
-6.84776e+07
6.84874e+07
9.69677e+07
-9.69611e+07
-3.38568e+07
-6.47432e+07
6.47478e+07
3.86734e+07
-3.86759e+07
-3.84579e+07
3.70368e+07
-3.70299e+07
3.84131e+07
-9.72031e+07
9.72081e+07
2.45468e+07
-1.69682e+07
-3.90039e+07
-7.3411e+06
3.34492e+07
-3.33779e+07
1.47766e+07
-3.72187e+07
1.78316e+07
-2.96316e+07
-4100.04
4092.87
-1.0624e+08
1.06247e+08
-1.50722e+07
2.71442e+07
1.02574e+08
-1.02561e+08
-4.10002e+07
3.56066e+07
1.95745e+07
-6.37404e+07
6.40881e+07
3.86276e+07
-2.44441e+06
-6.62642e+07
8.71237e+06
-1.01556e+08
1.01567e+08
-4.20192e+07
4.20233e+07
-6.14568e+07
6.14629e+07
1.55393e+06
-1.56878e+06
1.7301e+07
-6.06442e+07
-1.22164e+07
-3.40215e+07
-3.55885e+07
-7.33795e+06
1.0779e+06
-1.07841e+06
-1.74705e+07
-2.32155e+06
3.34297e+07
-3.82986e+07
3.83046e+07
3.00752e+07
-2.28541e+06
-4.65847e+07
6.73615e+07
-6.73562e+07
-4.11003e+07
6.50378e+06
-6.83015e+07
6.83071e+07
-2.84704e+07
-6.79057e+07
6.79102e+07
-5.61016e+07
-3.08365e+07
-3.85614e+07
-2.03798e+07
2.29371e+07
-2.3028e+07
8.69765e+07
1.94442e+07
5.00288e+07
-5.00236e+07
2.29962e+06
4.01323e+07
-4.01258e+07
6.80171e+06
7.45428e+07
-7.45375e+07
-2.38089e+07
2.38131e+07
-4.17733e+06
-2.25213e+07
2.2529e+07
-7.48343e+07
7.48398e+07
4.63005e+07
-2.71926e+07
-4.60827e+07
3.9344e+07
-3.93376e+07
4.587e+07
-1.52966e+07
-4.0852e+07
4.08628e+07
1.01175e+07
8.70466e+07
-8.7032e+07
1.21792e+07
5.89568e+07
9.48966e+07
-9.48916e+07
-198273
200000
-3.78606e+06
8.40841e+07
-8.40783e+07
1.04557e+07
3.91067e+07
-3.90984e+07
3.93608e+06
-3.93566e+06
-1.19087e+06
3.82928e+07
8.65456e+07
-8.65311e+07
-1.10147e+08
1.10154e+08
3.54181e+07
4.13554e+06
-5.05126e+06
5.05157e+06
2.55136e+07
-24633.2
24553.5
-1.01465e+08
1.01469e+08
-2.72545e+07
8.0991e+06
-8.09781e+06
1.22003e+07
-8.68501e+07
8.68561e+07
-2.26845e+07
-1.18547e+07
-9.56796e+07
9.56852e+07
-8.69319e+07
8.69445e+07
-2.66766e+07
2.38724e+06
-6.35066e+07
2.97361e+07
-1.96166e+07
-1.01363e+07
3.2807e+07
3.62546e+07
-4.15023e+07
4.15651e+07
-7.77469e+07
7.77527e+07
9.53397e+07
-9.53345e+07
7.6259e+07
-4.01038e+07
-8.95517e+06
3.28864e+06
-8.98621e+07
-3.9277e+07
6.19781e+07
5.76682e+07
-6.25956e+07
5.22767e+07
-5.22716e+07
-3.11682e+07
3.11734e+07
7.74907e+06
-1.09703e+07
-3.82807e+07
1.84979e+06
-3.93805e+06
3.1947e+07
-3.50751e+07
-1.48444e+07
4.18821e+07
-4.18755e+07
926126
-4.68608e+07
4.68676e+07
-1.93872e+07
-9.80156e+07
9.80312e+07
-9.18691e+07
9.18778e+07
-1.39337e+07
-6.89436e+07
6.89483e+07
1.16412e+08
-1.16406e+08
7.68975e+07
-7.68922e+07
3.70864e+07
-3.70803e+07
8.4664e+07
2.05192e+07
2.67559e+07
-1.25198e+07
-3.25582e+07
3.25633e+07
-7.00638e+07
7.00685e+07
-2.42301e+07
2.37912e+07
-2.05588e+07
1.09727e+08
-1.09721e+08
4.09214e+07
-5.59517e+07
5.59543e+07
-3.20547e+07
-4.00213e+07
5.87725e+07
-1.78189e+07
3.72263e+07
-3.71811e+07
5.41827e+06
-4.18205e+07
3.85368e+07
807377
-807623
7.17488e+07
1.47898e+07
1.46554e+07
-2.10261e+07
-5.0837e+07
-8.28212e+07
1.98721e+07
1.28076e+07
-1.28045e+07
8.27197e+07
-8.27139e+07
4.21596e+07
-4.21531e+07
-2.31767e+07
1.99353e+07
1.92298e+07
1.11838e+07
-2.03931e+07
-7.01356e+07
2.57859e+07
2.81554e+07
1.23028e+07
-8.00539e+07
8.00261e+07
1.3523e+06
-1.35312e+06
2.18466e+07
1.75441e+07
-5.4502e+07
5.45045e+07
3.76505e+07
-3.76442e+07
1.01697e+08
-1.01692e+08
-2.6075e+07
-1.32807e+07
1.3175e+07
6.54679e+06
-7.40917e+07
7.50012e+07
-9.09295e+07
9.09348e+07
4.10972e+07
-1.57776e+06
6.81231e+07
-6.81106e+07
-4.38885e+07
4.36215e+07
3.24881e+07
-1.29372e+07
-4.20946e+07
-2.07834e+07
3.47488e+07
-3.4691e+07
5.31321e+07
-5.31262e+07
-6.12647e+07
9.03844e+07
-9.03787e+07
7.75487e+07
-7.75364e+07
8.33361e+07
3.60607e+07
-3.60278e+07
-2.27768e+07
2.27814e+07
1.29486e+07
-2.41079e+07
-4.90168e+07
-3.81939e+07
3.82022e+07
-4.43116e+06
4.43112e+06
2.1863e+06
4.84134e+07
-6.24287e+07
6.2433e+07
4.93199e+07
2.16857e+07
-1.08922e+08
1.0893e+08
2.08662e+07
5.80764e+07
-7.36271e+07
2.30351e+07
-6.50236e+07
-7.54195e+07
7.54248e+07
2.60783e+07
8.03869e+07
-8.03813e+07
1.51625e+07
2.60819e+07
6.50286e+07
-5.83059e+07
5.83103e+07
-2.99519e+07
3.18301e+07
-375158
9.37139e+07
-9.37084e+07
8.30232e+06
-1.4073e+07
5.39762e+07
-5.39699e+07
3.38951e+07
-3.50907e+07
3.48449e+07
3.79263e+06
2.55081e+06
-2.38787e+06
5.16756e+07
-5.16707e+07
1.0822e+07
-1.58887e+07
-3.51587e+07
6.56984e+07
-4.96967e+06
-1.79321e+07
-5.98954e+06
2.48668e+06
3.38161e+07
7.94331e+07
-2.73574e+07
7.56953e+07
-7.56825e+07
-3.58348e+07
1.17436e+06
-1.17471e+06
8.13198e+07
-8.13111e+07
2.77932e+07
-8.64626e+07
8.64731e+07
3.49545e+07
7.83752e+07
-1.11113e+07
-86206.3
86098.1
5.5307e+06
-7.00671e+07
7.00729e+07
-4.50959e+07
4.87266e+06
4.65316e+07
-566134
-7.62012e+07
3.59134e+07
-2.39962e+07
2.40026e+07
4.21706e+07
-4.21641e+07
-4.00195e+07
1.81741e+07
3.45945e+07
-7.84882e+07
7.84941e+07
-9.02922e+06
5.18392e+06
-5.18308e+06
-942382
-9.55298e+07
9.55348e+07
-1.35242e+07
2.33845e+07
-3.17872e+07
2.76014e+07
-2.76873e+07
4.40807e+07
-4.4074e+07
-3.18275e+07
3.47781e+07
-4.60606e+07
4.61737e+07
5.63614e+07
-3.86958e+07
-5.80626e+07
4.38363e+06
-7.18019e+07
-1.5183e+07
3.69548e+07
-3.6941e+07
-1.10358e+06
1.43084e+07
-1.43049e+07
7.77601e+07
-7.77613e+07
6.42328e+07
8.7782e+07
5.81322e+06
1.37237e+07
3.75222e+07
3.04901e+06
-7.29206e+07
-7.02353e+07
4.83251e+07
3.00476e+07
-4.01071e+07
-1.33594e+07
3.97454e+07
-5.04352e+07
5.04399e+07
5.11916e+07
-5.11872e+07
6.38784e+07
-6.45263e+07
2.85379e+07
-4.79487e+07
4.79553e+07
5.06437e+06
-5.31829e+07
5.34248e+07
-7.92401e+07
7.92456e+07
1.99856e+07
5.43809e+07
-1.16806e+07
-3.99218e+07
-7.16214e+07
9068.08
-9130.93
3.48427e+07
-1.88536e+07
2.28787e+07
-1.99059e+07
1.06509e+07
3.72624e+07
-3.72549e+07
-6.57971e+07
6.58009e+07
3.57297e+07
-7.59883e+07
9.80828e+07
-9.80777e+07
-5.8623e+07
5.86258e+07
3.12823e+07
2.20861e+07
2.51055e+07
3.24621e+07
5.61497e+07
-5.62724e+07
2.25314e+07
-5.02305e+07
5.02256e+07
-3.44528e+07
3.44585e+07
5.31944e+07
2.21656e+07
-2.21616e+07
3.69988e+07
-3.69836e+07
4.80811e+07
-2.86618e+07
2.85498e+07
-1.75781e+07
1.54366e+07
1.7777e+06
-2.00244e+07
-3.56518e+07
3.66425e+06
-3.66067e+06
-2.98623e+07
3.56668e+07
-6.14391e+07
6.14452e+07
2.40921e+07
3.19608e+07
3.38164e+07
3.92232e+07
3.36788e+07
-3.36732e+07
4.17412e+07
-9.4177e+07
9.41878e+07
4.0913e+07
3.99526e+07
-1.99105e+07
-6.26979e+07
5.58904e+07
-5.58866e+07
1.96667e+07
4.67989e+07
3.82646e+07
-8.74218e+07
8.74269e+07
5.72739e+07
-5.72559e+07
2.95213e+07
-3.13004e+07
-2.59346e+07
-6.92731e+06
2.66193e+07
2.31815e+07
3.10628e+07
-2.88702e+07
3.37266e+06
-4.01475e+06
-6.63068e+07
6.6311e+07
8.17115e+06
1.00104e+08
-7.18257e+07
7.18307e+07
6.43332e+07
-4.58161e+07
3.83483e+07
-3.17502e+07
4.58408e+07
-9.25753e+07
9.25801e+07
1.32668e+07
4.77042e+07
-6.9147e+07
6.91517e+07
3.95913e+07
-3.4136e+07
5.5117e+07
7774.13
-7650.16
3.39924e+07
8.27982e+07
-8.27886e+07
3.30557e+07
-2.30116e+06
2.82292e+07
6.59567e+07
-5.34247e+07
-2.41493e+06
-1.00093e+08
56840.7
-56988.9
-2.16414e+07
4.67993e+07
1.53928e+07
86755.9
-85045.8
4.33943e+07
-6.26343e+07
6.26393e+07
1.03095e+08
-1.03085e+08
-3.29175e+07
3.2923e+07
3.84631e+07
1.90037e+06
-1.88536e+06
-3.89852e+07
-1.92003e+07
2.73099e+07
2.93268e+06
-3.48003e+07
-3.26952e+07
7.36407e+07
-7.36509e+07
-7.02535e+07
7.02594e+07
-9.13584e+06
-3.61452e+07
-8.95838e+07
2.35029e+07
-4.47492e+07
-1.34996e+06
4.20893e+07
4.37362e+07
1.03064e+08
-1.03049e+08
-7.03318e+07
-2.55361e+07
-5.40272e+07
5.40364e+07
-1.16734e+07
-3.2507e+06
1.02129e+06
3.12915e+07
12818.2
-12741.3
-1.72266e+07
8.7441e+06
-8.74437e+06
-686363
-9.09385e+07
9.09467e+07
-1.54954e+07
-3.95697e+07
5.23231e+07
3.95867e+07
-7.31603e+07
7.31218e+07
1.70416e+07
-2.0452e+07
-3.68195e+07
4.94428e+06
-9.01087e+07
9.01169e+07
4.7507e+07
-4.75919e+07
-9.12991e+07
1.46723e+07
-1.09021e+08
1.09031e+08
1.9911e+07
-1.9907e+07
-3.49631e+07
7.26749e+07
-9.93235e+06
-5.84364e+07
5.84386e+07
9.92166e+07
-9.92116e+07
-992515
-5.65317e+06
4.23094e+07
8.5972e+07
3.49715e+07
2.18534e+07
-6.70484e+07
6.70533e+07
-1.63861e+07
2.75035e+07
-4.16753e+07
-6.39513e+07
-1.62801e+07
-4.01374e+07
6.0864e+07
-6.08581e+07
8.07477e+07
-9.78585e+07
9.78637e+07
117877
-117540
4.71165e+07
3.81065e+07
1.00363e+08
-4.65075e+07
-5.35648e+07
5.35672e+07
-5.43109e+07
3.58651e+07
-7.48224e+07
3.41782e+07
-1.73792e+07
-1.04554e+08
1.04559e+08
-6.85163e+07
-5.08535e+07
5.08606e+07
-1.10241e+08
1.10251e+08
-1.00349e+08
-12803.1
12767.2
3.24738e+07
-1.07794e+08
1.07799e+08
-5.70692e+07
5.70754e+07
-3.80205e+06
3.8017e+06
5.27649e+07
1.71203e+07
7.85544e+07
-7.85487e+07
-1.47491e+07
-2.18951e+07
6.58462e+07
-6.58411e+07
-4.06718e+07
-2.98026e+07
8.30995e+07
-8.30935e+07
-3.45039e+07
9.77232e+06
-9.76917e+06
5.63471e+07
110872
-2.97838e+07
1.05969e+08
-1.05955e+08
7.61038e+07
5.23871e+07
-5.23819e+07
-3.93301e+07
3.93381e+07
3.61182e+06
-3.61178e+06
1.76357e+07
6.70087e+07
-6.38854e+06
6.38889e+06
-6.09038e+07
6.09098e+07
-2.05639e+07
7.0895e+06
2.71964e+07
5.43126e+07
1.57429e+07
1.18745e+07
7.4958e+07
-7.4946e+07
7.60053e+07
-7.59997e+07
-1.15614e+08
1.15622e+08
-3.15944e+07
-3.57414e+07
3.54103e+07
7.3578e+07
-7.35722e+07
-2.90713e+07
-274404
275262
-1.52749e+07
-5.74841e+07
3.8055e+07
-3.80582e+07
-8.8384e+07
2.25922e+07
-4.62709e+07
-9.7479e+07
9.74839e+07
-3.04781e+07
-3.76662e+07
3.76902e+07
2.04297e+06
2.76868e+07
-2.45251e+06
-5.52012e+07
-6.83978e+07
6.84104e+07
-8.34254e+06
-3.13126e+07
9.64967e+07
-4.46206e+07
4.46271e+07
1.83019e+07
7.61245e+07
-7.6119e+07
1.07735e+06
-2.30063e+07
-2.32978e+07
6.31884e+06
-1.64063e+07
7.08411e+06
-7.58938e+07
7.58993e+07
7.32367e+07
-7.32281e+07
-1.28703e+07
-9.37026e+07
9.37085e+07
-6.58476e+06
1.39025e+07
6.5753e+06
-2.94421e+07
2.94421e+07
3.37174e+07
-2.92522e+07
1.70156e+07
5.81613e+06
-3.24522e+07
2.5182e+07
7.29739e+07
-7.29664e+07
-1.86631e+07
-3.36614e+07
6.06249e+07
-2.47445e+07
-8.39377e+07
-6.77296e+07
-2.38925e+07
1.56261e+07
7.24741e+06
1.34017e+07
-1.02219e+08
1.02225e+08
-9.96058e+07
9.96111e+07
2.76043e+06
2.54923e+06
-2.56495e+06
-4.16858e+07
-1.86715e+07
3.24759e+07
-4.14091e+06
8.2283e+06
-7.51731e+07
-7.16414e+06
3.24855e+06
-1.0179e+08
1.01796e+08
-2.17634e+07
6.84745e+06
8.04188e+07
2.10958e+07
-2.10916e+07
-6.88295e+07
8.36016e+07
1.93964e+07
5.87683e+07
2.45653e+07
-5.2683e+07
5.88366e+06
-6.32106e+06
-1.96507e+07
515869
-1.05515e+08
1.0552e+08
2.96966e+06
-2.95442e+06
2.76471e+07
4.84321e+06
5.35091e+07
-5.34799e+07
2.40808e+07
-1.89849e+07
2.4014e+07
-6.09109e+07
6.09164e+07
8.05375e+07
-6.09071e+06
4.91041e+07
-3.37194e+07
1.16864e+06
-6.45057e+07
2.0993e+06
-3.8553e+07
-640147
3.31571e+06
2.63765e+07
2.66038e+06
2.46036e+07
-4.75203e+07
1.0104e+08
-1.01035e+08
-4.54586e+07
4.54593e+07
2.79861e+07
-2.80138e+07
1.0666e+07
-5.58192e+07
4.1569e+07
-3.19805e+07
3.19855e+07
-7.92619e+07
3.13105e+07
-2.55858e+06
4.19134e+07
-3.91186e+07
-2.54441e+07
-1.41459e+07
-2.35376e+06
2.37455e+06
-4.01572e+07
4.01654e+07
-3.76237e+06
3.76224e+06
5.98058e+07
-5.45931e+07
2.57532e+07
-1.55953e+07
-3.16041e+07
2.52392e+07
770221
-3.07828e+06
-5.46207e+06
-2.80849e+07
5.43113e+07
-2.29761e+06
1.21601e+07
4.96501e+07
7.27704e+07
-7.27817e+07
4.56985e+07
-3.55473e+06
-1.14168e+07
7.76199e+07
-7.76142e+07
7.06483e+07
-7.06428e+07
-3.58623e+07
-1.50596e+07
-2.66784e+07
-3.30707e+07
3.32974e+07
3.11751e+07
-2.9916e+07
-8.88041e+06
-2.94912e+07
-1.8653e+07
1.82279e+07
-9.75416e+06
-8.4701e+06
1.30498e+06
-1.3095e+06
1.25383e+07
-4.79075e+07
6.13897e+07
-1.42819e+07
-4.81423e+07
4.81389e+07
-8.93158e+07
5.3461e+07
-5.34552e+07
411097
-410144
3.40736e+07
7.54137e+07
-7.54082e+07
148086
-3.86297e+07
883957
2.25507e+06
-2.11745e+07
2.11459e+07
-6.51144e+07
6.51194e+07
-2.04805e+07
5.58228e+06
4.79197e+07
8.84836e+07
-8.84724e+07
7.66193e+07
-7.6614e+07
3.56861e+06
-4.86652e+07
4.86679e+07
3.58752e+07
2.91246e+07
-8.5998e+07
8.60037e+07
1.3261e+07
-3.06864e+07
-3.51566e+07
1.18879e+07
-36816
36690.3
-5.8637e+07
5.86423e+07
-4.94032e+07
4.94097e+07
3.06916e+06
-3.06942e+06
-2.50829e+07
1.07123e+06
-1.07158e+06
-5.30849e+07
-7.37065e+07
3.40044e+07
5.46081e+07
-5.4602e+07
6.40291e+06
-6.19019e+07
5.85263e+06
-5.7418e+06
-6.76897e+07
-4.26144e+07
4.26211e+07
-3.02566e+07
-1.80646e+07
-6.71288e+07
-9.60272e+07
9.60397e+07
6.11892e+07
7.13197e+07
-7.13105e+07
4.8113e+07
-4.81091e+07
-27534.7
27443.7
3.1818e+07
3.71229e+07
2.10133e+07
9.58272e+07
3.55865e+07
3.81788e+07
-3.18013e+07
-3.1288e+07
9.48704e+07
-9.48648e+07
4.29055e+06
8.50742e+07
-8.50689e+07
-3.81831e+07
-4.7215e+07
4.72173e+07
-8.2715e+07
3.68385e+07
-8.25608e+07
8.25666e+07
-7.47749e+07
3.70207e+07
5.37684e+07
2.67259e+07
2.99392e+07
-6.58153e+07
6.58205e+07
2.95493e+07
-2.95406e+07
-1.5787e+07
-2.72941e+06
8.09695e+07
3.03509e+07
-7.79919e+06
-4.36613e+07
4.37908e+07
-1.42383e+07
-1.08797e+08
1.08802e+08
-7.96283e+07