/*--------------------------------*- C++ -*----------------------------------*\
| =========                 |                                                 |
| \\      /  F ield         | OpenFOAM: The Open Source CFD Toolbox           |
|  \\    /   O peration     | Version:  v3.0+                                 |
|   \\  /    A nd           | Web:      www.OpenFOAM.com                      |
|    \\/     M anipulation  |                                                 |
\*---------------------------------------------------------------------------*/
FoamFile
{
    version     2.0;
    format      ascii;
    class       volScalarField;
    location    "8000";
    object      sigmazz;
}
// * * * * * * * * * * * * * * * * * * * * * * * * * * * * * * * * * * * * * //

dimensions      [1 -1 -2 0 0 0 0];

internalField   nonuniform List<scalar> 
27023
(
-8.73225e+06
8.73398e+06
6.20949e+06
-6.20864e+06
-8.54728e+06
8.54893e+06
2.77981e+07
-2.77957e+07
3.33622e+06
-3.3362e+06
2.12669e+07
-2.12641e+07
782435
-787223
-7.84665e+06
655796
539524
-1.67346e+07
1.67362e+07
1.25614e+07
-1.25591e+07
2.74424e+07
-2.744e+07
1.52151e+07
-1.52132e+07
2.31412e+06
-1.06658e+07
987713
-1.0662e+07
9.07913e+06
4.64006e+06
1.25693e+07
-1.25678e+07
-1.22425e+07
-7.7874e+06
9.52861e+06
1.18848e+07
-1.18831e+07
3.14459e+06
-3.14502e+06
-6.38713e+06
6.38811e+06
-6.2271e+06
-8.24954e+06
8.25124e+06
1.6496e+07
-1.64944e+07
1.40903e+07
-1.40881e+07
8.36986e+06
1.35626e+07
-1.35606e+07
-1.19359e+07
143251
-142522
1.34756e+07
5.68449e+06
9.97284e+06
-4.54326e+06
6.36962e+06
-6.36874e+06
8.29504e+06
1.34313e+06
1.43803e+06
-6.02176e+06
4.17088e+06
1.1046e+07
2.83532e+06
-1.05915e+07
-5.81585e+06
1.14677e+07
-1.14659e+07
1.99872e+07
-1.99853e+07
2.43887e+07
-2.43875e+07
290766
-290091
-2.9111e+07
2.91126e+07
-8.07743e+06
2.05099e+07
-2.05069e+07
1.96114e+07
-1.96095e+07
-2.58541e+07
2.58552e+07
-1.10016e+07
1.07425e+06
-4.79644e+06
4.65988e+06
9.28898e+06
-9.28719e+06
5.91382e+06
-2.28837e+06
-1.51403e+07
1.51405e+07
-8.09452e+06
-4.84847e+06
220023
-7.84627e+06
-4.93869e+06
5.09719e+06
2.31893e+07
-2.3187e+07
825757
2.5295e+07
-2.52929e+07
1.33629e+07
9.43626e+06
5.66304e+06
2.56177e+07
-2.56156e+07
1.49379e+07
-1.49366e+07
2.46068e+07
-2.46056e+07
5.5712e+06
-1.03302e+07
-7.83621e+06
5.96085e+06
623620
-2.3131e+07
2.31346e+07
2.90408e+07
-2.90386e+07
8.98546e+06
-8.98361e+06
2.36862e+07
-2.36839e+07
-4.45142e+06
-830358
813265
-4.42253e+06
5.12584e+06
-2.59702e+07
2.59714e+07
2.84278e+06
1.73241e+07
-1.73225e+07
-2.64885e+07
2.64913e+07
-1.94591e+06
2.70197e+07
-2.70172e+07
-4.36195e+06
-4.53314e+06
1.3735e+07
1.12464e+07
1.45009e+07
-1.44986e+07
1.5979e+07
-1.59769e+07
-7.39366e+06
-8.35958e+06
-8.17975e+06
8.24161e+06
7.91288e+06
1.71287e+07
-1.71271e+07
-1.50102e+07
-6.25079e+06
-1.30341e+07
1.003e+06
-1.82481e+07
1.82507e+07
-2.41932e+07
2.41963e+07
-5.80337e+06
590312
1.49959e+06
-2.93513e+07
2.93529e+07
-5.26367e+06
5.3658e+06
-8.38816e+06
709296
-1.93694e+06
-5.38385e+06
3.08665e+06
-1.12896e+07
-2.51471e+07
2.51499e+07
-8.14789e+06
-1.5021e+07
-1.6018e+07
-1.44706e+07
1.44716e+07
-1.3686e+07
-4.87572e+06
-2.44351e+07
2.4438e+07
-7.7706e+06
1.15801e+06
2.95629e+07
-2.95608e+07
-1.69036e+07
-2.36392e+07
2.36424e+07
-9.77133e+06
8.3453e+06
-1.07965e+07
2.38819e+07
-2.38807e+07
-7.81968e+06
7.82125e+06
-6.65296e+06
-1.66918e+07
2.38629e+07
-2.38617e+07
34154.8
-33985.4
5.60933e+06
-7.11287e+06
-3.21689e+06
3.21733e+06
-9.06969e+06
749427
1.7181e+06
-2.56425e+07
2.56438e+07
-4.45714e+06
-2.28907e+07
2.28942e+07
-7.69209e+06
2.30395e+07
-2.3038e+07
2.02458e+07
-2.02438e+07
1.6494e+06
-1.65036e+06
1.09522e+06
2.36038e+07
-2.36023e+07
-1.53904e+07
2.25748e+07
-2.25734e+07
2.47485e+07
9.33762e+06
-2.88884e+07
2.88908e+07
1.11841e+07
1.59061e+07
1.57664e+07
-1.26693e+07
6.14938e+06
204131
-9.70347e+06
1.3086e+07
-1.23709e+07
-2.75205e+07
2.75223e+07
-5.66651e+06
-4.86073e+06
-1.67584e+07
-1.69907e+07
2.03899e+07
-1.55685e+07
1.4018e+07
-1.40161e+07
4.87122e+06
1.11751e+06
1.44517e+07
2.31951e+07
-2.31937e+07
2.66334e+07
-2.6631e+07
1.97366e+06
-4.05118e+06
2.27225e+07
-2.2719e+07
1.01296e+07
-6.01643e+06
-1.07713e+07
2.58226e+06
1.4572e+06
-1.82565e+07
1.82591e+07
-1.38307e+07
1.3832e+07
1.12998e+07
-1.39881e+07
2.76299e+06
-2.73379e+06
-215558
216350
-5.81313e+06
-7.26561e+06
3.43566e+06
1.26822e+07
553173
-5.61693e+06
-2.29759e+07
2.29775e+07
-2.54781e+07
2.54793e+07
-1.23572e+07
1.6507e+07
-2.38396e+07
2.38408e+07
953835
2.28384e+06
-2.37599e+07
2.37624e+07
-2.67982e+06
4.44617e+06
-4.4462e+06
9.29363e+06
8.374e+06
-1.50101e+06
93229.1
122763
-122328
1.888e+06
-1.88943e+06
1.12206e+07
-1.34212e+07
1.34229e+07
387977
8.13959e+06
1.1975e+06
-1.19969e+06
-1.16515e+07
-6.7742e+06
-4.79331e+06
8.40585e+06
-1.94389e+07
2.59168e+06
1.26643e+07
-1.51262e+07
-5.44371e+06
1.51004e+07
-2.19884e+07
2.41187e+06
9.50769e+06
-1.26803e+07
1.26825e+07
-4.75386e+06
3.06063e+06
2.25641e+07
-2.25621e+07
-1.61292e+07
1.61995e+07
49293.8
-49058.2
-9.81463e+06
9.1701e+06
-9.16818e+06
-6.84048e+06
3.33613e+06
-1.26525e+07
1.26464e+07
2.42432e+07
-2.42417e+07
22783
-22504.5
1.52984e+06
-2.84893e+07
2.8491e+07
-1.46687e+06
-1.17546e+07
-2.31647e+07
2.31659e+07
-2.63803e+07
2.63837e+07
4.62604e+06
-1.00211e+07
-1.81335e+06
-1.04724e+07
1.04745e+07
-2.78934e+07
2.78949e+07
-4.84182e+06
-1.55775e+07
-5.32496e+06
-1.56591e+07
-1.57218e+07
-1.06626e+07
-1.0271e+07
1.13547e+07
7.85555e+06
-1.13528e+07
2.82289e+07
-2.82266e+07
-9.42559e+06
3.73991e+06
4.49776e+06
-1.60128e+07
-1.44892e+07
-605588
-9.0565e+06
3.04263e+06
1.18255e+07
1.17154e+06
519440
-2.36283e+06
1.00927e+07
5.53339e+06
-2.27939e+07
-1.08177e+07
2.0198e+07
-2.0196e+07
7.35055e+06
-7.73153e+06
3.09455e+06
-1.05276e+07
1.05296e+07
229995
5.54567e+06
-1.3909e+07
752221
1.38914e+07
244038
-243065
-4.77991e+06
1.3272e+07
1.09095e+07
1.639e+07
8.71163e+06
-1.16527e+07
5.71284e+06
-1.44106e+07
3.35306e+06
1.96168e+06
1.23111e+06
-2.16697e+07
-2.32597e+07
2.3261e+07
-2.02773e+07
1.90164e+06
1.53187e+07
-9.06515e+06
2.24885e+07
-2.24872e+07
-1.75785e+07
1.75803e+07
1.61516e+07
995067
4.28514e+06
-4.28555e+06
-2.03876e+07
2.0382e+07
1.51418e+07
-1.51401e+07
-71865.8
72183
-5.69038e+06
-3.56944e+06
-1.29941e+07
-1.25625e+06
-3.2028e+06
-2.44387e+07
2.44422e+07
-2.36817e+07
2.36852e+07
1.44133e+07
-1.44114e+07
1.57509e+07
-1.57485e+07
-3.58782e+06
207150
-3.26933e+06
-1.24773e+07
6.56664e+06
1.52402e+07
-5.23084e+06
-2.85214e+07
2.85239e+07
-1.36868e+07
6.97214e+06
3.5421e+06
1.827e+07
1.57646e+07
-1.2098e+07
-4.19304e+06
2.33868e+07
-2.33851e+07
-6.19999e+06
6.27324e+06
5.7229e+06
-5.72224e+06
2.33515e+07
-2.335e+07
612649
3.83261e+06
-4.25977e+06
4.42243e+06
2.21018e+07
2.21694e+06
-2.13733e+07
2.13762e+07
-8.952e+06
1.21151e+07
740162
-1.34813e+07
1.3483e+07
1.05732e+07
-1.05712e+07
9.07249e+06
-1.91036e+07
-1.11046e+07
-9.03911e+06
9.04112e+06
-1.2232e+07
-2.2164e+06
1.22792e+07
-1.22772e+07
-1.06392e+07
2.73098e+07
-2.73057e+07
2.12982e+07
-2.12951e+07
-1.42712e+07
-2.08875e+07
2.08904e+07
-6.45918e+06
-9.15386e+06
2.12746e+07
-2.12732e+07
-1.63818e+07
-2.33652e+07
2.33664e+07
1.34587e+07
-2.26161e+07
2.26179e+07
-1.38516e+07
1.38538e+07
-3.46034e+06
1.81634e+07
-1.8161e+07
-1.10302e+07
-2.19815e+06
-2.76164e+06
-3.99494e+06
1.75254e+07
-1.75233e+07
-2.71919e+07
2.71935e+07
-9.94207e+06
-1.66614e+07
1.06625e+07
1.00842e+06
-1.2786e+07
-1.17788e+07
5.65206e+06
-4.32286e+06
4.32253e+06
-1.93458e+07
-2.56881e+07
2.56893e+07
9.87272e+06
1.00349e+06
-2.29818e+07
2.29839e+07
-1.17188e+07
-1.31831e+07
1.31831e+07
193949
1.32004e+06
-3.81063e+06
-1.01354e+07
-8.48881e+06
1.22151e+07
-1.22129e+07
-1.17755e+07
-248285
1.92972e+07
-1.92956e+07
4.35091e+06
-1.22985e+07
1.23006e+07
-3.53321e+06
1.19627e+07
-1.19606e+07
-2.30251e+07
2.30281e+07
-1.35261e+07
1.35283e+07
1.3023e+07
-1.00093e+07
9.98351e+06
1.29594e+07
-1.47151e+07
1.47175e+07
-9.11182e+06
4.83819e+06
-5.57498e+06
-1.36743e+07
987130
-2.49189e+06
-4.97364e+06
-2.16974e+07
1.43465e+07
-1.4344e+07
1.00106e+07
1.45629e+07
-1.45609e+07
-9.43047e+06
-1.92683e+07
1.92702e+07
-3.54601e+06
-902574
-1.25152e+07
1.25167e+07
2.21059e+07
-2.21045e+07
1.68156e+07
7.05953e+06
1.14073e+07
1.95885e+07
-1.95868e+07
2.51869e+07
-2.51855e+07
7.87355e+06
-6.27716e+06
3.24277e+06
-3.30198e+06
9.89375e+06
-9.89096e+06
-1.02654e+07
-57966.1
-129634
130271
58254.9
-6.32193e+06
705176
-705850
-1.39835e+07
1.39857e+07
-8.52436e+06
8.52618e+06
1.18942e+07
-1.18921e+07
1.92805e+06
1.76374e+07
-1.76355e+07
-1.29867e+07
-6.15753e+06
-1.68297e+07
1.68316e+07
-7.79579e+06
1.87659e+07
-1.87641e+07
-1.01098e+07
-8.02061e+06
1.58361e+07
-1.29466e+07
1.29487e+07
1.5561e+07
1.14578e+06
-47885
-7.37751e+06
-2.31655e+07
2.31673e+07
-1.95514e+06
1.38237e+07
-2.84592e+07
2.84608e+07
-66747.5
67029.4
1.41664e+07
-1.41654e+07
1.22618e+07
-1.8899e+06
2.77629e+07
-2.77616e+07
-9.2782e+06
-1.38936e+07
1.98894e+06
5.29028e+06
1.16403e+07
9.34466e+06
5.01611e+06
-965874
-4.05933e+06
-1.51217e+07
1.04335e+07
1.43431e+07
-1.37366e+07
-7.11191e+06
-5.62055e+06
171595
-171276
1.92152e+07
-1.92133e+07
1.12058e+07
-968008
-6.1262e+06
-2.18476e+06
1.25549e+07
1.33723e+07
-1.40092e+07
-1.40983e+06
8.84645e+06
-9.56242e+06
-3.65736e+06
7.91298e+06
-7.91141e+06
1.2584e+07
1.76296e+07
-1.67698e+06
-8.79121e+06
2.33583e+07
-2.33566e+07
-2.41255e+07
2.41267e+07
131790
-131253
-1.1474e+06
-1.8249e+06
-7.1621e+06
-1.02881e+06
-1.30266e+07
1.30295e+07
7.69264e+06
3.38283e+06
-3.38373e+06
-2.57504e+07
2.57518e+07
-2.01584e+07
2.11581e+07
-2.11564e+07
-3.18231e+06
1.59069e+07
-1.00015e+07
-5.74748e+06
1.57908e+07
1.78112e+06
2.11391e+07
-2.11377e+07
8.44298e+06
-2.79381e+06
2.59922e+07
-2.59887e+07
-8.46991e+06
-2.26338e+07
-7.62926e+06
2.26359e+07
5.72307e+06
-5.69674e+06
1.14604e+07
8.59635e+06
-1.19686e+07
-473701
-1.19974e+07
-6.32192e+06
2.1007e+07
-4.17542e+06
8.3398e+06
-8.33712e+06
-2.40289e+07
2.40301e+07
6.06909e+06
1.78827e+06
-2.25229e+07
2.25247e+07
-1.32054e+07
1.07778e+07
8.75425e+06
4.4427e+06
9.80756e+06
9.50588e+06
-9.50392e+06
-3.50924e+06
1.34608e+07
-1.34585e+07
-2.38135e+07
2.38148e+07
318999
-9.09071e+06
-1.91688e+06
-2.09949e+07
1.98556e+07
-1.98528e+07
8.896e+06
1.11159e+06
-6.31979e+06
-1.42297e+07
-5.79505e+06
-9.67028e+06
-3.74668e+06
-8.97081e+06
1.01634e+07
2.4199e+07
-2.41977e+07
2.1748e+07
-2.17449e+07
1.588e+07
-1.56369e+07
-3.64692e+06
1.418e+06
2.36193e+07
-2.3618e+07
-1.64953e+07
-1.49421e+07
433994
-6.0953e+06
1.95481e+06
1.54075e+06
-1.54032e+06
-6.6409e+06
-2.60909e+06
2.69574e+07
-2.69547e+07
-808634
6.85681e+06
-1.09636e+06
2.88591e+07
-2.88577e+07
-9.48434e+06
9.4878e+06
-1.1364e+07
-7.34883e+06
7.35038e+06
-3.49703e+06
-1.63165e+06
799964
1.47539e+06
2.21027e+07
-2.21013e+07
-3.06258e+06
-1.32132e+07
1.32147e+07
2.46078e+07
-2.46065e+07
-9.4117e+06
9.39427e+06
1.59352e+07
-1.59329e+07
-2.61168e+07
2.61201e+07
3.04986e+06
-1.55629e+07
2.64773e+07
-2.64743e+07
-1.62701e+07
-1.37623e+06
1.50998e+07
-1.50977e+07
1.97695e+07
-1.97681e+07
-1.54667e+07
-2.32345e+07
2.32363e+07
-2.70285e+07
2.70297e+07
1.54659e+07
6.72437e+06
9.62498e+06
4.22361e+06
1.75639e+07
-1.75623e+07
-2.16314e+07
1.44269e+06
1.92287e+06
2.16327e+07
7.86677e+06
1.25934e+07
-9.65132e+06
1.33406e+07
-1.3339e+07
259871
3.71233e+06
-1.16516e+07
1.74724e+07
-1.74787e+07
6.72995e+06
-837012
211560
-211053
-9.80947e+06
-1.13135e+07
-8.10119e+06
2.65759e+07
-2.65734e+07
-1.62278e+07
-1.20687e+07
-1.58269e+07
7.3883e+06
1.56051e+07
-1.56027e+07
-1.53866e+07
6.65885e+06
1.62356e+07
-8.57645e+06
8.64124e+06
1.5829e+07
-1.4223e+07
1.51471e+07
-1.51449e+07
-2.15621e+07
2.15633e+07
1.39893e+07
-5.56449e+06
9.07559e+06
2.1924e+07
-2.19208e+07
-2.04684e+07
2.047e+07
-10822
-7.31561e+06
1.76704e+07
-1.76689e+07
-1.00357e+07
2.95498e+06
-2.9554e+06
-8.0163e+06
-8.46613e+06
2.1759e+07
-1.30797e+07
-1.36232e+07
-1.64347e+07
9.08915e+06
-9.75347e+06
-3.15077e+06
2.48815e+07
-2.48802e+07
-1.46512e+06
462022
4.5828e+06
-9.69031e+06
-4.08188e+06
-2.41986e+06
-1.56253e+06
9.04967e+06
-7.11451e+06
772150
4.30391e+06
-9.67657e+06
7.911e+06
-1.99175e+07
4.87265e+06
-5.14602e+06
-4.46831e+06
4.46808e+06
9.49734e+06
-3.19574e+06
3.19456e+06
-7.06411e+06
-4.2367e+06
1.78258e+07
-1.78235e+07
9.00974e+06
2.42911e+06
-2.42958e+06
-8.13864e+06
-4.2914e+06
8.46405e+06
-1.162e+07
1.3601e+07
8.59083e+06
-2.3113e+07
1.06322e+07
7.84783e+06
1.30561e+07
9.26838e+06
-9.26649e+06
3.26418e+06
-3.62301e+06
824093
-824881
1.43733e+07
-338419
9.64622e+06
7.16215e+06
-1.0056e+07
1.00578e+07
-1.6018e+07
-3.21624e+06
8.04074e+06
-436408
436379
-9.1363e+06
-6.23224e+06
-85359.2
1.0828e+06
-5.10734e+06
1.56563e+07
9.11217e+06
-1.17148e+07
-1.0364e+07
1.03644e+07
-1.8362e+07
-1.43802e+07
449415
1.89734e+06
-1.06763e+07
-1.88304e+07
1.88333e+07
823117
-7.66674e+06
-1.7635e+07
-4.64233e+06
4.64219e+06
-9.38237e+06
4.57938e+06
9.47153e+06
-2.29269e+07
2.29286e+07
-4.39381e+06
-1.31925e+07
1.32082e+07
1.76693e+07
-1.76661e+07
7.17631e+06
-9.84173e+06
318419
-317788
-8.8609e+06
884155
2.74176e+06
2.42186e+07
-2.42173e+07
-2.96432e+06
2.7684e+07
-2.76803e+07
1.38175e+06
1.14501e+07
-4.22616e+06
-1.89735e+07
-8.23924e+06
-2.45932e+06
1.89761e+07
1.74343e+07
2.16981e+06
-7.67168e+06
-1.09593e+07
1.09607e+07
1.08977e+07
-1.12579e+07
1.55742e+07
8.78805e+06
1.05464e+07
-2.32388e+06
1.75583e+06
-3.67644e+06
-6.65155e+06
621323
2.26308e+06
-3.30094e+06
-2.69871e+06
81108.2
1.00415e+07
6.08248e+06
-1.31243e+07
-9.56258e+06
-4.78677e+06
-1.59906e+07
1.50791e+07
-1.85566e+07
1.8559e+07
3.13328e+06
-1.35451e+06
-9.81078e+06
9.81096e+06
1.95442e+07
-1.95426e+07
-6.44988e+06
-2.58226e+06
1.29708e+07
-1.91739e+06
1.91753e+06
2.34946e+07
-2.34933e+07
1.64208e+06
465146
-8.33223e+06
-2.63667e+06
-2.04573e+06
-541695
-2.34245e+06
-427789
1.59853e+07
1.7271e+07
-1.72691e+07
1.02144e+07
-1.01706e+07
4.59053e+06
3.98888e+06
2.35877e+07
-2.35863e+07
2.34869e+06
4.55868e+06
1.02317e+07
-3.39684e+06
-1.46914e+07
-6.18147e+06
5.72774e+06
-4.84192e+06
1.74478e+07
-2.75692e+06
-5.48754e+06
2.07338e+07
1.79243e+07
-1.79222e+07
-1.857e+07
3.52518e+06
1.10822e+07
-7.70812e+06
7.94756e+06
2.07521e+07
-2.07361e+07
-9.04196e+06
-2.12617e+07
-2.62386e+06
2.62328e+06
3.53581e+06
-3.53647e+06
6.13018e+06
8.39645e+06
-7.76068e+06
2.43666e+07
-2.41358e+07
2.41395e+07
4.2236e+06
-4.22372e+06
-3.48792e+06
2.49137e+07
-2.49123e+07
-1.00996e+07
9.88274e+06
-2.93568e+06
57613.6
-57333.2
-9.18687e+06
-4.49355e+06
1.97927e+07
-5.3857e+06
-2.45107e+07
2.45136e+07
9.86818e+06
1.88044e+07
-1.86699e+07
7.06614e+06
4.74221e+06
-673256
1.05765e+07
-1.05713e+07
-2.34159e+07
2.34172e+07
-4.63686e+06
-1.22989e+07
1.23029e+07
-2.26629e+07
2.26644e+07
5.35685e+06
-1.17998e+07
1.0044e+07
-3.85127e+06
9.89337e+06
-9.89091e+06
-7.81058e+06
3.0191e+06
1.70033e+07
-165507
-1.07454e+07
1.07475e+07
-1.0087e+07
5.12296e+06
2.02121e+07
2.10734e+07
-2.10719e+07
1.50674e+07
-2.33402e+06
-7.73056e+06
7.57459e+06
2.64995e+07
-2.64959e+07
-1.07396e+07
1.85014e+07
-1.84995e+07
1.05198e+07
-1.68519e+07
-1.34076e+07
1.34046e+07
1.0264e+07
6.34392e+06
497110
-867069
-1.2537e+07
4.4778e+06
-3.6915e+06
123186
-122514
1.68731e+07
3.54729e+06
-3.54763e+06
2.23334e+07
-2.23304e+07
-2510.86
2.65894e+07
-2.65861e+07
-1.97012e+07
1.97039e+07
-2.6543e+07
2.65442e+07
6.8635e+06
2.45343e+07
-2.4533e+07
1.8582e+06
-8.07607e+06
-913487
-7.95391e+06
5.25898e+06
-7.21702e+06
1.90091e+07
-1.90076e+07
-6.03304e+06
6.03433e+06
5.27307e+06
-724835
424864
1.5545e+07
2.60933e+06
1.1324e+07
-1.67988e+07
2.42635e+06
-3.33735e+06
2.21238e+06
-2.2134e+06
1.56375e+07
-1.20742e+07
1.53842e+07
-1.0033e+07
-5.58718e+06
1.33881e+06
1.17459e+07
-1.17426e+07
1.14283e+07
5.59758e+06
-9.28177e+06
9.30937e+06
-3.9149e+06
-1.19131e+07
-2.37377e+07
-1.43233e+07
1.43253e+07
1.67322e+07
-8.42699e+06
1.08446e+07
-1.17659e+07
1.41704e+07
2.37401e+07
1.17644e+07
1.31551e+07
1.09119e+07
7.13095e+06
1.0682e+07
-3.72524e+06
8.9732e+06
6.56806e+06
4.97213e+06
-1.56419e+06
-5.33716e+06
9.23125e+06
-1.08421e+07
-5.99911e+06
1.93375e+07
-1.93361e+07
-1.38255e+07
4.17466e+06
-4.02835e+06
-4.72463e+06
1.65605e+07
-1.79032e+07
2.15934e+06
-1.98374e+07
-6.82372e+06
3.05455e+06
1.79056e+07
8.86708e+06
-1.30894e+07
5.7027e+06
-2.43467e+06
1.5075e+07
-1.48479e+07
1.01489e+07
219859
-219814
-1.67402e+07
-2.02239e+07
2.02268e+07
929735
2.29381e+07
-2.29354e+07
2.70091e+06
8.9894e+06
-8.98751e+06
-1.0847e+07
123630
2.3886e+06
2.56131e+07
-2.56119e+07
-1.12039e+06
-1.96359e+07
2.12651e+07
-7.92777e+06
2.23964e+07
-2.23936e+07
-1.24051e+07
3.55977e+06
2.30114e+06
-1.8259e+07
1.03441e+07
-1.03457e+07
150587
-149935
1.48756e+06
5.98071e+06
1.5691e+07
-1.56887e+07
2.3181e+07
-2.3179e+07
-1.79659e+07
4.06559e+06
8.47026e+06
2.17585e+07
-2.17563e+07
929422
-277136
277753
-1.88008e+07
1.87973e+07
-2.30665e+07
2.30682e+07
-1.99409e+07
2.35484e+07
-2.3547e+07
1.70656e+07
-1.7063e+07
1.0964e+07
-5.19478e+06
-2.20527e+07
2.13188e+07
1.00586e+07
776591
-2.13174e+07
4.42379e+06
1.25284e+07
1.17917e+07
1.30939e+07
7.56827e+06
2.24059e+07
-2.24046e+07
-6.45029e+06
-2.02491e+07
2.02518e+07
2.54584e+07
-2.54565e+07
-8.7551e+06
-1.77456e+07
1.77476e+07
1.02376e+07
-1.02367e+07
-9.77888e+06
9.89086e+06
-9.88592e+06
9.559e+06
-2.41742e+07
2.41754e+07
6.10651e+06
-4.24619e+06
-9.79756e+06
-1.7582e+06
9.53293e+06
-9.53213e+06
3.73278e+06
-9.19241e+06
3.78132e+06
-7.40427e+06
-74821.4
75277
-2.73401e+07
2.73419e+07
-3.71959e+06
6.82889e+06
2.74062e+07
-2.74027e+07
-1.01993e+07
9.9136e+06
4.88475e+06
-1.6123e+07
1.61611e+07
1.09184e+07
-704374
-1.6535e+07
2.1702e+06
-2.69259e+07
2.69289e+07
-1.10256e+07
1.10272e+07
-1.57269e+07
1.57285e+07
798105
-798530
4.28723e+06
-1.49901e+07
-3.02398e+06
-8.38479e+06
-9.91073e+06
-2.03508e+06
1.34653e+06
-1.34759e+06
-4.34971e+06
-549278
8.77822e+06
-1.09521e+07
1.09537e+07
8.31022e+06
-442945
-1.15593e+07
1.81348e+07
-1.8133e+07
-1.16817e+07
1.56248e+06
-1.72797e+07
1.72812e+07
-7.89064e+06
-1.8622e+07
1.8624e+07
-1.3997e+07
-8.2982e+06
-1.10031e+07
-5.08723e+06
5.42799e+06
-5.47509e+06
2.15946e+07
5.24339e+06
1.50557e+07
-1.50535e+07
558823
1.32172e+07
-1.32151e+07
2.00134e+06
1.99978e+07
-1.9996e+07
-9.95206e+06
9.95401e+06
-1.06152e+06
-5.99545e+06
5.99717e+06
-1.88088e+07
1.88103e+07
1.15038e+07
-7.76646e+06
-1.13883e+07
1.34618e+07
-1.34596e+07
1.135e+07
-3.89422e+06
-1.13951e+07
1.13934e+07
2.55145e+06
2.45268e+07
-2.45227e+07
3.54148e+06
1.46022e+07
2.3541e+07
-2.35398e+07
-319770
320936
-3.11726e+06
2.25302e+07
-2.25283e+07
2.64184e+06
1.04306e+07
-1.04303e+07
1.95145e+06
-1.95221e+06
-218158
1.0516e+07
2.40566e+07
-2.40526e+07
-2.83143e+07
2.83162e+07
9.27504e+06
1.07261e+06
-4.16226e+06
4.16178e+06
6.51012e+06
44078.1
-43849.6
-2.51321e+07
2.51332e+07
-7.6517e+06
5.33652e+06
-5.33624e+06
3.17207e+06
-2.3049e+07
2.30509e+07
-6.39908e+06
-3.17954e+06
-2.41151e+07
2.41166e+07
-2.37942e+07
2.37977e+07
-7.08614e+06
685397
-1.58016e+07
8.15409e+06
-4.92068e+06
-2.83391e+06
8.97543e+06
1.01647e+07
-1.028e+07
1.02348e+07
-1.98846e+07
1.98861e+07
2.38082e+07
-2.38069e+07
1.89728e+07
-9.96609e+06
-2.2246e+06
879444
-2.22458e+07
-9.75115e+06
1.53719e+07
1.43313e+07
-1.55123e+07
1.3662e+07
-1.36603e+07
-1.17263e+07
1.17284e+07
2.19653e+06
-2.71283e+06
-1.0514e+07
409259
-1.02956e+06
8.27751e+06
-9.25117e+06
-3.9291e+06
1.12037e+07
-1.12023e+07
307724
-1.27522e+07
1.27542e+07
-5.34445e+06
-2.64312e+07
2.64354e+07
-2.45779e+07
2.45805e+07
-4.03774e+06
-1.8886e+07
1.8888e+07
2.94622e+07
-2.94605e+07
2.09456e+07
-2.09435e+07
1.39944e+07
-1.39921e+07
2.09949e+07
5.61414e+06
6.92879e+06
-3.20581e+06
-1.14873e+07
1.14895e+07
-1.91821e+07
1.9184e+07
-6.02829e+06
5.79556e+06
-5.64102e+06
2.7288e+07
-2.72867e+07
1.04896e+07
-1.38313e+07
1.37909e+07
-8.41384e+06
-1.00371e+07
1.45589e+07
-4.52063e+06
1.03243e+07
-1.0314e+07
1.23624e+06
-1.05102e+07
9.80696e+06
974982
-975635
1.783e+07
3.8345e+06
4.11654e+06
-5.49329e+06
-1.26608e+07
-2.05168e+07
4.9174e+06
6.64807e+06
-6.64698e+06
2.12042e+07
-2.12026e+07
1.35905e+07
-1.35884e+07
-5.76423e+06
4.97379e+06
4.71804e+06
3.33368e+06
-5.85639e+06
-1.73711e+07
6.37953e+06
7.05282e+06
3.33063e+06
-2.01927e+07
2.01856e+07
2.03652e+06
-2.03804e+06
5.60127e+06
4.99924e+06
-1.3792e+07
1.37938e+07
1.45259e+07
-1.45235e+07
2.52486e+07
-2.52474e+07
-7.06165e+06
-3.3211e+06
3.3076e+06
1.80175e+06
-1.84373e+07
1.86611e+07
-2.27221e+07
2.27235e+07
1.0255e+07
-391832
1.89167e+07
-1.8914e+07
-1.09893e+07
1.08928e+07
8.22361e+06
-3.28708e+06
-1.05231e+07
-5.11225e+06
9.84159e+06
-9.84307e+06
1.64152e+07
-1.64129e+07
-1.52712e+07
2.29856e+07
-2.29841e+07
2.14328e+07
-2.14299e+07
2.0638e+07
1.02843e+07
-1.02846e+07
-8.22518e+06
8.22673e+06
2.72554e+06
-6.04488e+06
-1.38147e+07
-1.03647e+07
1.03665e+07
-3.91703e+06
3.91647e+06
575666
1.36971e+07
-1.716e+07
1.71618e+07
1.2281e+07
5.3026e+06
-2.80885e+07
2.80906e+07
5.167e+06
1.44502e+07
-1.83115e+07
5.86773e+06
-1.79289e+07
-2.03763e+07
2.03782e+07
7.37368e+06
2.15447e+07
-2.15428e+07
4.07363e+06
7.06459e+06
1.7929e+07
-1.60371e+07
1.6039e+07
-7.88241e+06
8.74045e+06
-81262.2
2.36493e+07
-2.36479e+07
2.29268e+06
-3.09501e+06
1.45682e+07
-1.45663e+07
8.43349e+06
-9.24742e+06
9.18824e+06
3.11554e+06
1.19219e+06
-1.1387e+06
1.34654e+07
-1.34637e+07
3.06029e+06
-4.24831e+06
-8.77997e+06
1.62362e+07
-1.18652e+06
-5.00314e+06
-1.63529e+06
576890
9.28662e+06
1.97508e+07
-7.22982e+06
2.16415e+07
-2.16381e+07
-9.8814e+06
1.34147e+06
-1.34254e+06
2.20589e+07
-2.20561e+07
7.10727e+06
-2.34983e+07
2.35013e+07
8.95463e+06
1.96108e+07
-2.71499e+06
-600047
599529
1.57897e+06
-1.83687e+07
1.83704e+07
-1.22829e+07
1.21234e+06
1.29223e+07
-222586
-1.89434e+07
8.81977e+06
-6.21972e+06
6.22105e+06
1.43065e+07
-1.43042e+07
-9.91342e+06
4.55069e+06
9.24426e+06
-2.13287e+07
2.1331e+07
-2.24868e+06
2.13463e+06
-2.13502e+06
-157389
-2.37722e+07
2.37735e+07
-3.45501e+06
6.5951e+06
-8.07642e+06
6.51465e+06
-6.55628e+06
1.17349e+07
-1.17334e+07
-8.74037e+06
8.6832e+06
-1.13401e+07
1.14529e+07
1.39299e+07
-9.79635e+06
-1.44148e+07
874425
-1.77184e+07
-4.11078e+06
9.96765e+06
-9.9652e+06
-202320
6.69613e+06
-6.69516e+06
1.93806e+07
-1.93796e+07
1.60428e+07
2.16961e+07
1.52986e+06
2.62809e+06
1.06755e+07
778834
-1.80579e+07
-1.74202e+07
1.19854e+07
7.689e+06
-9.95133e+06
-3.40978e+06
9.87428e+06
-1.3069e+07
1.30706e+07
1.43134e+07
-1.4313e+07
1.62624e+07
-1.62743e+07
7.66993e+06
-1.27917e+07
1.27932e+07
1.18193e+06
-1.31999e+07
1.3275e+07
-2.13145e+07
2.13163e+07
5.55267e+06
1.35562e+07
-2.97824e+06
-9.8684e+06
-1.77917e+07
-68470.3
68917.7
8.71274e+06
-4.68305e+06
5.57062e+06
-5.55506e+06
2.77147e+06
1.05967e+07
-1.05944e+07
-1.82208e+07
1.82228e+07
9.68364e+06
-1.88338e+07
2.44709e+07
-2.44696e+07
-1.64268e+07
1.64287e+07
7.76573e+06
6.20489e+06
6.26894e+06
8.39503e+06
1.39865e+07
-1.39302e+07
5.76368e+06
-1.2375e+07
1.23511e+07
-1.37736e+07
1.37758e+07
1.31765e+07
9.39328e+06
-9.39139e+06
9.92798e+06
-9.92698e+06
1.32273e+07
-7.27807e+06
7.2161e+06
-4.91407e+06
4.2555e+06
432626
-5.53832e+06
-9.81656e+06
2.82995e+06
-2.83074e+06
-8.40436e+06
9.81935e+06
-1.60616e+07
1.60633e+07
6.39607e+06
7.85088e+06
8.38631e+06
9.84416e+06
1.19516e+07
-1.19495e+07
1.04704e+07
-2.50448e+07
2.5048e+07
1.11625e+07
9.95582e+06
-5.62236e+06
-1.55069e+07
1.55548e+07
-1.55528e+07
5.24116e+06
1.16645e+07
9.50441e+06
-2.17455e+07
2.17468e+07
1.41029e+07
-1.40993e+07
8.48317e+06
-9.00043e+06
-6.46739e+06
-1.98264e+06
6.89176e+06
5.83539e+06
7.71025e+06
-7.20069e+06
900898
-998365
-1.83074e+07
1.83094e+07
1.97263e+06
2.49243e+07
-1.94548e+07
1.94566e+07
1.59984e+07
-1.30242e+07
9.50494e+06
-8.3967e+06
1.30327e+07
-2.29813e+07
2.29825e+07
3.32025e+06
1.3169e+07
-1.91522e+07
1.91544e+07
1.10468e+07
-8.54257e+06
1.36756e+07
2478.02
-2256.14
8.90617e+06
2.25774e+07
-2.25746e+07
8.16267e+06
-550304
7.01301e+06
1.64366e+07
-1.32776e+07
-683808
-2.49213e+07
379800
-379505
-5.29928e+06
1.15828e+07
4.0556e+06
289709
-289352
1.21826e+07
-1.69914e+07
1.69933e+07
2.72587e+07
-2.72558e+07
-1.33035e+07
1.33057e+07
9.62346e+06
988120
-1.00157e+06
-9.71718e+06
-4.73737e+06
7.54709e+06
571585
-9.41792e+06
-9.22868e+06
1.83439e+07
-1.83413e+07
-1.84896e+07
1.84913e+07
-2.37207e+06
-1.01114e+07
-2.21076e+07
6.35685e+06
-1.11522e+07
-355076
1.04102e+07
1.09077e+07
2.76936e+07
-2.76896e+07
-1.75182e+07
-6.3272e+06
-1.38232e+07
1.38252e+07
-2.98286e+06
-874495
248613
7.76605e+06
-23012.7
22766.9
-4.15055e+06
2.71873e+06
-2.71884e+06
-233649
-2.4501e+07
2.45037e+07
-3.93996e+06
-1.11365e+07
1.30116e+07
1.11362e+07
-1.81056e+07
1.81011e+07
4.38816e+06
-5.6268e+06
-9.32252e+06
1.22242e+06
-2.42549e+07
2.42576e+07
1.19056e+07
-1.1904e+07
-2.26744e+07
3.76153e+06
-2.82958e+07
2.82982e+07
9.85431e+06
-9.85229e+06
-9.65467e+06
1.7873e+07
-2.60744e+06
-1.6248e+07
1.62496e+07
2.46526e+07
-2.46514e+07
-281247
-1.47834e+06
1.15283e+07
2.13696e+07
9.65527e+06
5.82717e+06
-1.8212e+07
1.82139e+07
-4.29939e+06
6.85152e+06
-1.1481e+07
-1.59152e+07
-4.13842e+06
-1.0831e+07
1.58732e+07
-1.58716e+07
1.98855e+07
-2.43494e+07
2.43507e+07
132188
-131687
1.17425e+07
1.06572e+07
2.48821e+07
-1.27806e+07
-1.35235e+07
1.3525e+07
-1.36771e+07
9.8934e+06
-1.86187e+07
9.62822e+06
-4.36935e+06
-2.62703e+07
2.62717e+07
-1.69079e+07
-1.73844e+07
1.73869e+07
-2.85463e+07
2.85489e+07
-2.48783e+07
70749.8
-70388.8
8.0547e+06
-2.67914e+07
2.67927e+07
-1.51255e+07
1.51272e+07
-3.71923e+06
3.71854e+06
1.31005e+07
4.76e+06
1.99252e+07
-1.99237e+07
-3.70252e+06
-5.47512e+06
1.78728e+07
-1.78709e+07
-1.04247e+07
-7.39952e+06
2.23336e+07
-2.23315e+07
-9.21575e+06
4.05309e+06
-4.05318e+06
1.40221e+07
52243.9
-7.73446e+06
2.81086e+07
-2.81047e+07
1.89129e+07
1.36288e+07
-1.36268e+07
-1.14077e+07
1.14102e+07
1.98329e+06
-1.9841e+06
5.0225e+06
1.66251e+07
-2.45726e+06
2.4567e+06
-1.59136e+07
1.59153e+07
-5.62348e+06
1.54822e+06
7.03463e+06
1.36778e+07
3.91151e+06
3.262e+06
2.14794e+07
-2.14763e+07
2.03193e+07
-2.03175e+07
-2.96333e+07
2.96355e+07
-7.87355e+06
-9.33779e+06
9.19922e+06
1.93797e+07
-1.9378e+07
-8.3696e+06
-236406
237341
-3.82475e+06
-1.43136e+07
1.01054e+07
-1.01028e+07
-2.20279e+07
5.52764e+06
-1.14235e+07
-2.41964e+07
2.41976e+07
-7.60088e+06
-1.07114e+07
1.07148e+07
541345
7.23358e+06
-701807
-1.36509e+07
-1.93074e+07
1.93101e+07
-2.0184e+06
-9.0333e+06
2.40687e+07
-1.44446e+07
1.44469e+07
4.70546e+06
2.02755e+07
-2.02738e+07
205078
-6.60425e+06
-6.00022e+06
1.57518e+06
-4.74998e+06
1.74836e+06
-1.9108e+07
1.91094e+07
1.829e+07
-1.82884e+07
-3.0477e+06
-2.43059e+07
2.43076e+07
-2.17297e+06
3.02417e+06
2.17059e+06
-8.22232e+06
8.22348e+06
9.06946e+06
-7.5643e+06
4.21289e+06
1.62513e+06
-8.7304e+06
6.76528e+06
1.81957e+07
-1.81951e+07
-4.44721e+06
-9.49182e+06
1.49761e+07
-6.58803e+06
-2.08525e+07
-1.67278e+07
-6.05332e+06
4.16456e+06
1.84092e+06
3.29744e+06
-2.61972e+07
2.61988e+07
-2.48979e+07
2.48993e+07
610721
1.11288e+06
-1.11255e+06
-1.05939e+07
-5.08604e+06
8.73916e+06
-1.09688e+06
2.38493e+06
-1.86369e+07
-1.95593e+06
1.01307e+06
-2.55424e+07
2.55437e+07
-5.90861e+06
1.66678e+06
2.0012e+07
1.03418e+07
-1.03398e+07
-1.7075e+07
2.07913e+07
5.06706e+06
1.46002e+07
6.128e+06
-1.3354e+07
1.58875e+06
-1.52153e+06
-5.58724e+06
139281
-2.61722e+07
2.61735e+07
1.24865e+06
-1.25606e+06
6.9245e+06
1.33564e+06
1.48412e+07
-1.48355e+07
6.57512e+06
-4.64085e+06
6.4617e+06
-1.64613e+07
1.64633e+07
1.9995e+07
-1.45014e+06
1.36021e+07
-9.06378e+06
394558
-1.60461e+07
633290
-9.59748e+06
-140041
846215
6.58042e+06
692768
6.66418e+06
-1.17979e+07
2.51318e+07
-2.51306e+07
-1.18097e+07
1.1811e+07
7.06745e+06
-7.07503e+06
2.71858e+06
-1.39235e+07
1.11828e+07
-1.04218e+07
1.0424e+07
-1.96917e+07
7.8346e+06
-651531
1.12116e+07
-1.10641e+07
-7.34177e+06
-3.44843e+06
-882914
887258
-1.08193e+07
1.0821e+07
-2.82085e+06
2.81951e+06
1.48577e+07
-1.52493e+07
6.43804e+06
-3.91008e+06
-7.89776e+06
7.28012e+06
170038
-817368
-1.25221e+06
-6.97011e+06
1.51798e+07
-646132
3.24959e+06
1.39998e+07
1.80416e+07
-1.80427e+07
1.12708e+07
-773012
-3.1893e+06
1.96503e+07
-1.96488e+07
1.89591e+07
-1.89572e+07
-9.85316e+06
-3.56834e+06
-6.72082e+06
-8.86729e+06
8.9233e+06
8.4021e+06
-7.34453e+06
-2.24086e+06
-7.28e+06
-4.60136e+06
4.49031e+06
-2.45086e+06
-2.31736e+06
639223
-637464
3.17193e+06
-1.31886e+07
1.51996e+07
-3.59827e+06
-1.36084e+07
1.36103e+07
-2.23492e+07
1.44723e+07
-1.44705e+07
184464
-184128
8.36306e+06
2.01372e+07
-2.01354e+07
10236.5
-9.67485e+06
182130
251992
-5.51383e+06
5.50729e+06
-1.76463e+07
1.76481e+07
-5.05296e+06
1.52911e+06
1.32111e+07
2.37691e+07
-2.37658e+07
2.08109e+07
-2.08088e+07
1.11214e+06
-1.36838e+07
1.36849e+07
9.85529e+06
7.17817e+06
-2.18219e+07
2.18234e+07
2.65739e+06
-7.551e+06
-8.66032e+06
3.29496e+06
-11286.4
10909.3
-1.5857e+07
1.58588e+07
-1.3113e+07
1.31147e+07
2.32207e+06
-2.32309e+06
-6.19208e+06
1.10791e+06
-1.10861e+06
-1.32441e+07
-1.82876e+07
8.43425e+06
1.47279e+07
-1.47261e+07
1.75042e+06
-1.53592e+07
1.70568e+06
-1.53517e+06
-1.67951e+07
-1.45532e+07
1.45555e+07
-7.65726e+06
-4.3787e+06
-1.67203e+07
-2.56406e+07
2.56442e+07
1.5202e+07
1.78018e+07
-1.78018e+07
1.32949e+07
-1.32928e+07
-17812.8
17596.8
8.71163e+06
9.93365e+06
6.00649e+06
2.38042e+07
1.00549e+07
1.02449e+07
-8.70782e+06
-8.42807e+06
2.39729e+07
-2.39715e+07
1.18567e+06
2.12049e+07
-2.12035e+07
-9.38079e+06
-1.2198e+07
1.21991e+07
-2.05111e+07
9.12208e+06
-2.21491e+07
2.2151e+07
-1.86522e+07
9.77619e+06
1.49652e+07
7.20456e+06
7.41382e+06
-1.77915e+07
1.77934e+07
7.68404e+06
-7.67879e+06
-4.38433e+06
-686399
2.009e+07
7.58055e+06
-2.02258e+06
-1.07322e+07
1.0757e+07
-4.01236e+06
-2.71129e+07
2.71142e+07
-2.14553e+07
2.14572e+07
1.78711e+06
-4.38985e+06
4.3931e+06
2.36118e+07
-1.64656e+07
1.14391e+07
-2.03573e+06
-2.13498e+07
8.21001e+06
2.25636e+07
375768
2.08333e+06
-590571
-8.22727e+06
-1.23264e+07
1.46495e+07
-1.46475e+07
1.94944e+06
-2.8501e+07
2.85037e+07
1.47277e+07
-1.47258e+07
-1.06769e+07
-6.43481e+06
-3.82655e+06
-2.43361e+06
1.38514e+07
2.26346e+07
-2.26332e+07
1.45704e+07
-5.08541e+06
3.69356e+06
-3.33247e+06
270294
-269808
-2.30156e+07
-300720
1.80746e+07
-1.80726e+07
-8.21141e+06
8.21309e+06
-5.48745e+06
5.48893e+06
-1.46879e+07
1.25635e+07