/*--------------------------------*- C++ -*----------------------------------*\
| =========                 |                                                 |
| \\      /  F ield         | OpenFOAM: The Open Source CFD Toolbox           |
|  \\    /   O peration     | Version:  v3.0+                                 |
|   \\  /    A nd           | Web:      www.OpenFOAM.com                      |
|    \\/     M anipulation  |                                                 |
\*---------------------------------------------------------------------------*/
FoamFile
{
    version     2.0;
    format      ascii;
    class       volScalarField;
    location    "8000";
    object      sigmaEq;
}
// * * * * * * * * * * * * * * * * * * * * * * * * * * * * * * * * * * * * * //

dimensions      [1 -1 -2 0 0 0 0];

internalField   nonuniform List<scalar> 
27023
(
2.94674e+07
2.94739e+07
2.15575e+07
2.15532e+07
2.8299e+07
2.83055e+07
9.53588e+07
9.53508e+07
1.14556e+07
1.14575e+07
6.79114e+07
6.78982e+07
2.84121e+06
2.84653e+06
2.75121e+07
2.03469e+07
1.93755e+07
5.86106e+07
5.86156e+07
4.2102e+07
4.21018e+07
9.47344e+07
9.47264e+07
4.35413e+07
4.3541e+07
7.07832e+06
3.11076e+07
4.38874e+06
3.02111e+07
3.36787e+07
1.51946e+07
4.2228e+07
4.22274e+07
4.44884e+07
2.69734e+07
3.45599e+07
3.69725e+07
3.69649e+07
1.12826e+07
1.12846e+07
2.16444e+07
2.16487e+07
2.25531e+07
2.84533e+07
2.84597e+07
5.78897e+07
5.78847e+07
4.21098e+07
4.21085e+07
3.10471e+07
4.06582e+07
4.06573e+07
4.34548e+07
541677
539018
4.8792e+07
2.04349e+07
3.64266e+07
1.73679e+07
2.23243e+07
2.23203e+07
3.01663e+07
5.67825e+06
5.71257e+06
2.2444e+07
1.3305e+07
3.78639e+07
8.84409e+06
3.22137e+07
2.13709e+07
3.51881e+07
3.51802e+07
6.1873e+07
6.18698e+07
8.84664e+07
8.8462e+07
987699
985961
1.0366e+08
1.03666e+08
2.32621e+07
6.55571e+07
6.55439e+07
5.99947e+07
5.99917e+07
9.40161e+07
9.40203e+07
3.77693e+07
6.39659e+06
1.82825e+07
1.73319e+07
3.05437e+07
3.05369e+07
2.31894e+07
8.41539e+06
4.39418e+07
4.39372e+07
2.32429e+07
1.81845e+07
6.16761e+06
2.86904e+07
1.77624e+07
1.78227e+07
7.44069e+07
7.44012e+07
4.87866e+06
8.47128e+07
8.47065e+07
4.79929e+07
3.37957e+07
2.18174e+07
8.44309e+07
8.44249e+07
4.33673e+07
4.33667e+07
8.91743e+07
8.91698e+07
2.30908e+07
3.33307e+07
2.45595e+07
2.1375e+07
3.37029e+06
8.18732e+07
8.18861e+07
1.04573e+08
1.04566e+08
2.9707e+07
2.97002e+07
7.55398e+07
7.5534e+07
1.61728e+07
2.94218e+06
2.95943e+06
1.41598e+07
1.87876e+07
9.41026e+07
9.41069e+07
1.04189e+07
5.96861e+07
5.9681e+07
8.90903e+07
8.90996e+07
8.59644e+06
9.19095e+07
9.19015e+07
1.43785e+07
1.69038e+07
3.98477e+07
3.87027e+07
4.87715e+07
4.87634e+07
5.16714e+07
5.16655e+07
2.74139e+07
2.66201e+07
2.91481e+07
2.88989e+07
2.74451e+07
5.89608e+07
5.89557e+07
5.50096e+07
2.32356e+07
4.7369e+07
6.44314e+06
6.01971e+07
6.02042e+07
8.03954e+07
8.0405e+07
1.70846e+07
5.2203e+06
8.6711e+06
1.04385e+08
1.04391e+08
2.0125e+07
1.9601e+07
2.99728e+07
4.26545e+06
7.79155e+06
2.06114e+07
1.16216e+07
3.88386e+07
8.52363e+07
8.52452e+07
3.02192e+07
5.42911e+07
5.76634e+07
4.12583e+07
4.12533e+07
4.97739e+07
1.85818e+07
8.04948e+07
8.05045e+07
2.2927e+07
6.34169e+06
1.04316e+08
1.04308e+08
6.1414e+07
7.8541e+07
7.85527e+07
3.11256e+07
2.92469e+07
3.23936e+07
8.68496e+07
8.68452e+07
2.7001e+07
2.70074e+07
2.06552e+07
6.05174e+07
8.65496e+07
8.65451e+07
340110
338451
2.43649e+07
2.20079e+07
1.32012e+07
1.31992e+07
2.65701e+07
6.49829e+06
8.92485e+06
9.21889e+07
9.21938e+07
1.62844e+07
8.20565e+07
8.20695e+07
2.80012e+07
8.00892e+07
8.00843e+07
6.2299e+07
6.22959e+07
5.79627e+06
5.79999e+06
6.83619e+06
8.26795e+07
8.26745e+07
5.58754e+07
8.10765e+07
8.10718e+07
8.97683e+07
3.36238e+07
1.02039e+08
1.02048e+08
3.23462e+07
5.77837e+07
5.71514e+07
4.5215e+07
2.48111e+07
6.82286e+06
2.92809e+07
4.77366e+07
4.42731e+07
9.44063e+07
9.44123e+07
2.1462e+07
1.94012e+07
6.0924e+07
6.1521e+07
7.41443e+07
5.63296e+07
4.76035e+07
4.75992e+07
2.18177e+07
1.13744e+07
5.17974e+07
8.33029e+07
8.32982e+07
9.1537e+07
9.1529e+07
7.41469e+06
1.92336e+07
7.77363e+07
7.77239e+07
3.57343e+07
2.04308e+07
3.93634e+07
9.64294e+06
7.10344e+06
6.04313e+07
6.04386e+07
4.79275e+07
4.79375e+07
4.18094e+07
5.0964e+07
1.17376e+07
1.13404e+07
756176
759719
2.1409e+07
2.63487e+07
2.31356e+07
3.88217e+07
3.68344e+06
2.07557e+07
7.71907e+07
7.71956e+07
9.26649e+07
9.26693e+07
4.52226e+07
5.99446e+07
8.6818e+07
8.68223e+07
3.18371e+06
2.02736e+07
7.79593e+07
7.79667e+07
1.42477e+07
1.72324e+07
1.722e+07
2.6249e+07
3.02733e+07
9.10712e+06
3.44427e+06
449562
447858
6.87915e+06
6.88429e+06
4.07457e+07
4.27663e+07
4.27724e+07
1.25191e+06
2.97856e+07
4.46778e+06
4.48571e+06
3.25058e+07
2.68648e+07
2.1874e+07
3.10934e+07
7.04734e+07
1.03096e+07
3.73567e+07
4.53026e+07
1.84996e+07
4.53492e+07
8.0737e+07
8.44578e+06
3.42893e+07
4.31232e+07
4.31304e+07
1.49553e+07
2.03242e+07
7.20107e+07
7.20059e+07
5.94949e+07
5.97866e+07
318843
317287
3.03796e+07
3.29423e+07
3.29354e+07
2.56186e+07
1.18478e+07
4.55461e+07
4.56066e+07
8.5298e+07
8.5293e+07
144325
143349
2.26097e+07
9.90697e+07
9.90754e+07
6.45827e+06
3.68321e+07
8.38708e+07
8.38752e+07
9.12929e+07
9.1305e+07
1.81728e+07
3.70874e+07
1.94074e+07
3.56985e+07
3.57049e+07
9.87918e+07
9.87972e+07
2.28744e+07
5.59877e+07
2.19659e+07
5.731e+07
5.65451e+07
3.00418e+07
3.721e+07
3.41136e+07
2.86356e+07
3.4104e+07
9.69138e+07
9.69061e+07
2.79099e+07
1.12385e+07
1.65026e+07
5.84344e+07
4.20581e+07
8.34733e+06
2.87511e+07
1.1859e+07
3.68129e+07
7.72513e+06
2.02021e+07
1.0496e+07
3.61226e+07
1.96068e+07
8.28145e+07
3.88093e+07
6.1599e+07
6.1596e+07
2.71585e+07
2.18424e+07
1.22756e+07
3.59965e+07
3.60026e+07
2.84347e+06
1.96616e+07
3.98353e+07
2.63296e+06
3.9761e+07
1.01629e+06
1.01152e+06
1.75987e+07
4.82657e+07
3.42262e+07
5.90487e+07
3.218e+07
4.16811e+07
1.74432e+07
5.2385e+07
1.91919e+07
8.52754e+06
5.1176e+06
7.91667e+07
8.42311e+07
8.42355e+07
7.31859e+07
9.2181e+06
5.74484e+07
2.52934e+07
8.10313e+07
8.10267e+07
5.36757e+07
5.36783e+07
5.89029e+07
1.01427e+07
1.51502e+07
1.51513e+07
7.44245e+07
7.43967e+07
5.0055e+07
5.005e+07
472036
474271
1.75046e+07
1.38897e+07
4.67302e+07
1.88971e+07
2.02777e+07
8.1689e+07
8.17019e+07
8.14335e+07
8.1446e+07
5.11967e+07
5.11979e+07
5.34371e+07
5.34289e+07
1.30665e+07
7.20895e+06
1.11464e+07
4.52241e+07
2.01478e+07
5.49497e+07
1.92494e+07
1.01841e+08
1.0185e+08
4.96093e+07
2.52502e+07
1.36819e+07
6.67052e+07
5.72007e+07
3.49473e+07
1.31434e+07
7.77483e+07
7.77433e+07
2.29212e+07
2.28118e+07
1.90966e+07
1.90906e+07
8.1798e+07
8.17931e+07
2.93557e+06
1.47789e+07
1.2737e+07
2.16519e+07
8.03985e+07
1.07502e+07
6.86681e+07
6.86814e+07
3.22646e+07
3.74114e+07
2.7451e+06
4.32742e+07
4.32802e+07
3.61941e+07
3.61871e+07
2.88649e+07
6.88987e+07
4.01306e+07
2.93218e+07
2.93251e+07
4.47095e+07
2.00611e+07
3.69222e+07
3.69205e+07
3.05607e+07
9.79296e+07
9.79152e+07
6.97532e+07
6.97405e+07
4.11119e+07
7.2266e+07
7.22757e+07
2.32522e+07
3.29813e+07
7.6404e+07
7.63993e+07
5.90409e+07
8.5288e+07
8.52923e+07
5.005e+07
7.31943e+07
7.3199e+07
4.80439e+07
4.80537e+07
1.1138e+07
6.57281e+07
6.57196e+07
3.96208e+07
8.92299e+06
9.1513e+06
1.2472e+07
5.11908e+07
5.11914e+07
9.43529e+07
9.43585e+07
3.62461e+07
6.10543e+07
3.00319e+07
4.50343e+06
3.66257e+07
3.38239e+07
2.15662e+07
1.5105e+07
1.5104e+07
7.06416e+07
9.30525e+07
9.30569e+07
3.61757e+07
3.8046e+06
7.30873e+07
7.3092e+07
3.55144e+07
4.76343e+07
4.76604e+07
2.39502e+06
1.07672e+07
1.47363e+07
2.93531e+07
3.08862e+07
3.5817e+07
3.58172e+07
4.28216e+07
2.11392e+07
6.6528e+07
6.6523e+07
1.61635e+07
4.16466e+07
4.16457e+07
1.27227e+07
4.19505e+07
4.19432e+07
7.57499e+07
7.5761e+07
4.89526e+07
4.89607e+07
4.78879e+07
2.80487e+07
2.8005e+07
4.69834e+07
5.06219e+07
5.06302e+07
3.34834e+07
2.07213e+07
1.64759e+07
4.98711e+07
2.07614e+07
9.92038e+06
2.45654e+07
7.87258e+07
4.06805e+07
4.06775e+07
3.71334e+07
4.16249e+07
4.16241e+07
3.52858e+07
5.8976e+07
5.89787e+07
1.24471e+07
6.53984e+06
4.2357e+07
4.23579e+07
7.95046e+07
7.94999e+07
6.09811e+07
2.10583e+07
3.25379e+07
6.34328e+07
6.34285e+07
8.97871e+07
8.97822e+07
2.98688e+07
2.306e+07
1.15367e+07
1.1925e+07
2.93373e+07
2.93215e+07
3.66969e+07
218395
396807
398757
219481
2.27653e+07
2.55227e+06
2.55662e+06
4.69556e+07
4.69636e+07
2.92323e+07
2.9239e+07
4.27278e+07
4.27203e+07
1.41721e+07
5.26002e+07
5.2599e+07
4.70079e+07
2.35492e+07
4.91129e+07
4.91134e+07
2.8318e+07
5.91228e+07
5.91191e+07
3.71404e+07
2.67046e+07
5.75637e+07
4.68568e+07
4.68645e+07
5.66648e+07
7.01848e+06
5.88949e+06
2.79434e+07
7.55055e+07
7.55103e+07
2.20599e+07
4.05952e+07
9.85224e+07
9.85279e+07
499429
501748
5.04723e+07
5.04744e+07
4.39916e+07
7.70034e+06
1.00677e+08
1.00673e+08
2.62682e+07
4.08977e+07
1.50125e+07
2.05403e+07
3.53841e+07
3.24573e+07
1.87719e+07
3.19917e+06
1.29881e+07
5.52281e+07
3.31207e+07
5.18736e+07
4.94509e+07
2.65154e+07
2.20292e+07
572194
571112
5.87158e+07
5.8713e+07
3.53584e+07
3.2152e+06
2.26959e+07
8.52142e+06
4.54737e+07
4.87821e+07
4.07176e+07
5.71922e+06
3.12852e+07
3.47961e+07
1.286e+07
2.65431e+07
2.65357e+07
3.66315e+07
6.39846e+07
8.00081e+06
3.23251e+07
7.76875e+07
7.76825e+07
8.75031e+07
8.75076e+07
510472
507889
5.36946e+06
1.81036e+07
2.4822e+07
9.7578e+06
3.74229e+07
3.74162e+07
2.76224e+07
1.20974e+07
1.21002e+07
9.23385e+07
9.23434e+07
7.27707e+07
6.76097e+07
6.76055e+07
2.15093e+07
5.79719e+07
3.64729e+07
2.20516e+07
5.75549e+07
7.41606e+06
7.57337e+07
7.57291e+07
3.11308e+07
8.17295e+06
9.09177e+07
9.09055e+07
3.07581e+07
8.24513e+07
2.31759e+07
8.24564e+07
2.27352e+07
2.27433e+07
4.15356e+07
2.97515e+07
4.3809e+07
1.9541e+07
4.36408e+07
1.86338e+07
7.65875e+07
1.32257e+07
2.80606e+07
2.80583e+07
8.72558e+07
8.72602e+07
2.2509e+07
6.68498e+06
7.37999e+07
7.38047e+07
4.79017e+07
3.99348e+07
3.3095e+07
1.46283e+07
3.62552e+07
3.29745e+07
3.29675e+07
1.28406e+07
3.87291e+07
3.87303e+07
8.61539e+07
8.61584e+07
2.27396e+06
3.32318e+07
7.09486e+06
7.65304e+07
6.26241e+07
6.26111e+07
3.29793e+07
1.09985e+07
2.41008e+07
5.19621e+07
2.1624e+07
2.85245e+07
1.34731e+07
3.0503e+07
3.66023e+07
8.78609e+07
8.78563e+07
7.07287e+07
7.07157e+07
5.76446e+07
5.66699e+07
1.22846e+07
1.62214e+07
8.51427e+07
8.51381e+07
6.01148e+07
5.46473e+07
3.15255e+06
2.25045e+07
7.05147e+06
6.11987e+06
6.11917e+06
2.25926e+07
9.39499e+06
9.29052e+07
9.28962e+07
5.56081e+06
2.5593e+07
1.09945e+07
1.02704e+08
1.02699e+08
3.05263e+07
3.05282e+07
3.30121e+07
2.52589e+07
2.52662e+07
1.33778e+07
6.93765e+06
6.98131e+06
8.85032e+06
7.92881e+07
7.92834e+07
1.32138e+07
4.26506e+07
4.26563e+07
8.94193e+07
8.94148e+07
2.71755e+07
2.68207e+07
5.48485e+07
5.48404e+07
8.99865e+07
8.99973e+07
9.65428e+06
5.62116e+07
9.25507e+07
9.25408e+07
5.89448e+07
6.53015e+06
4.95431e+07
4.95358e+07
7.02038e+07
7.0199e+07
4.59835e+07
7.61245e+07
7.61293e+07
9.7684e+07
9.76884e+07
4.59811e+07
2.44279e+07
3.46841e+07
1.65426e+07
6.13742e+07
6.13691e+07
7.872e+07
8.08751e+06
7.14361e+06
7.87223e+07
2.22201e+07
3.57247e+07
3.5155e+07
3.87147e+07
3.87151e+07
7.04254e+06
1.18866e+07
4.24238e+07
6.27274e+07
6.27498e+07
2.52511e+07
2.67369e+06
699845
700604
2.91157e+07
3.25615e+07
2.9528e+07
9.09213e+07
9.09128e+07
4.82776e+07
4.33725e+07
4.76049e+07
2.73194e+07
5.48684e+07
5.48597e+07
5.63288e+07
2.08547e+07
4.83084e+07
3.1327e+07
3.14605e+07
4.76001e+07
5.22032e+07
5.00587e+07
5.00518e+07
7.78927e+07
7.78974e+07
5.0833e+07
1.6653e+07
3.30576e+07
7.23092e+07
7.2297e+07
6.92049e+07
6.92098e+07
1.72144e+07
2.73204e+07
6.18136e+07
6.18085e+07
3.66329e+07
1.13471e+07
1.13468e+07
2.87399e+07
2.8813e+07
7.88756e+07
4.76711e+07
5.00916e+07
5.9609e+07
3.15263e+07
3.34769e+07
1.20369e+07
8.9697e+07
8.96922e+07
7.70875e+06
1.459e+07
1.5114e+07
3.48887e+07
1.63073e+07
2.21981e+07
5.89737e+06
3.37562e+07
2.73226e+07
1.84013e+07
1.43191e+07
2.93753e+07
2.31838e+07
7.20875e+07
1.90139e+07
1.87703e+07
1.57944e+07
1.57937e+07
2.87844e+07
1.26976e+07
1.26938e+07
2.43289e+07
1.27622e+07
5.2769e+07
5.27688e+07
3.05376e+07
9.6401e+06
9.63869e+06
2.58943e+07
1.6106e+07
2.8798e+07
3.64143e+07
3.91957e+07
2.72325e+07
8.37248e+07
3.05428e+07
2.86808e+07
4.73194e+07
3.18664e+07
3.18596e+07
1.16063e+07
1.33494e+07
3.07062e+06
3.07391e+06
4.19972e+07
4.69744e+06
3.44434e+07
2.5798e+07
3.23414e+07
3.2336e+07
5.82462e+07
1.00474e+07
3.04026e+07
1.53964e+06
1.53952e+06
3.2808e+07
2.28765e+07
1.74035e+07
5.26112e+06
1.96055e+07
5.72098e+07
2.78384e+07
4.31521e+07
3.36909e+07
3.36903e+07
6.68554e+07
5.1946e+07
1.4e+07
1.51507e+07
3.91827e+07
6.04599e+07
6.04723e+07
7.89118e+06
2.50016e+07
6.42711e+07
1.63806e+07
1.63801e+07
3.45701e+07
2.33563e+07
3.52837e+07
7.78563e+07
7.78613e+07
1.40746e+07
3.76327e+07
3.76117e+07
5.52228e+07
5.52154e+07
2.65796e+07
3.40744e+07
999484
1.00013e+06
2.54718e+07
2.83693e+06
1.17766e+07
8.69855e+07
8.69808e+07
1.12239e+07
9.99688e+07
9.99555e+07
8.91487e+06
4.25554e+07
1.30969e+07
5.93534e+07
2.3309e+07
1.04258e+07
5.93678e+07
6.26356e+07
6.92319e+06
2.5028e+07
3.5306e+07
3.53072e+07
3.32329e+07
3.40417e+07
5.606e+07
2.52269e+07
3.81582e+07
9.04305e+06
8.80995e+06
1.36457e+07
1.92193e+07
5.64885e+06
9.71194e+06
2.23242e+07
8.16374e+06
1.29252e+07
3.69557e+07
2.0927e+07
4.74062e+07
3.51144e+07
2.07949e+07
5.84879e+07
5.45201e+07
6.66928e+07
6.67012e+07
2.10409e+07
7.94353e+06
3.1777e+07
3.17694e+07
6.66654e+07
6.66604e+07
2.32886e+07
9.9447e+06
4.70568e+07
8.01618e+06
8.01796e+06
8.47159e+07
8.47113e+07
7.75503e+06
1.66382e+07
3.07297e+07
1.84126e+07
7.38732e+06
2.17652e+07
9.86189e+06
9.38573e+06
5.81326e+07
5.10724e+07
5.10718e+07
2.95018e+07
2.95676e+07
1.64773e+07
1.38983e+07
8.47858e+07
8.47813e+07
1.90042e+07
1.38784e+07
3.09421e+07
1.30978e+07
5.3197e+07
2.33997e+07
2.0825e+07
1.73983e+07
6.37581e+07
1.03406e+07
2.05881e+07
7.5722e+07
5.326e+07
5.32588e+07
6.71688e+07
1.30062e+07
3.47743e+07
2.79879e+07
2.91368e+07
7.39086e+07
7.38533e+07
2.78752e+07
7.73242e+07
9.50503e+06
9.50383e+06
1.18997e+07
1.19009e+07
2.60782e+07
3.19039e+07
2.91775e+07
8.75365e+07
8.28469e+07
8.28602e+07
1.62139e+07
1.62053e+07
2.22107e+07
8.96978e+07
8.9693e+07
3.58656e+07
3.56224e+07
9.06367e+06
367977
366164
2.85407e+07
1.78177e+07
7.15125e+07
1.90885e+07
8.05329e+07
8.05414e+07
2.96245e+07
6.86581e+07
6.82039e+07
2.61509e+07
1.73241e+07
2.61014e+06
3.03732e+07
3.03828e+07
8.42493e+07
8.4254e+07
1.49787e+07
3.52121e+07
3.51966e+07
7.74386e+07
7.74436e+07
1.59163e+07
4.31397e+07
3.58314e+07
1.49833e+07
3.19327e+07
3.19285e+07
2.7811e+07
2.04612e+07
6.19502e+07
5.1593e+06
3.56864e+07
3.56929e+07
3.71339e+07
1.69896e+07
7.33711e+07
7.19937e+07
7.19887e+07
5.52452e+07
7.00329e+06
2.8372e+07
2.8543e+07
9.47685e+07
9.47561e+07
3.95323e+07
5.789e+07
5.78866e+07
3.81783e+07
6.11587e+07
4.91399e+07
4.91397e+07
2.98701e+07
2.23943e+07
5.54305e+06
3.99429e+06
4.54869e+07
1.62888e+07
1.20472e+07
446396
443582
6.11948e+07
1.2426e+07
1.24253e+07
7.24834e+07
7.24707e+07
4.77464e+06
9.04406e+07
9.04291e+07
6.80706e+07
6.80791e+07
9.61838e+07
9.6188e+07
2.51556e+07
8.84532e+07
8.84487e+07
8.31234e+06
3.08093e+07
3.20065e+06
2.66943e+07
2.01151e+07
2.70813e+07
6.90597e+07
6.90571e+07
2.13766e+07
2.13874e+07
1.75584e+07
3.27069e+06
1.03025e+07
5.61983e+07
1.0698e+07
4.10257e+07
6.09129e+07
2.19464e+07
1.27058e+07
7.59958e+06
7.60232e+06
5.6712e+07
3.54679e+07
5.60643e+07
3.6398e+07
1.70962e+07
1.48143e+07
3.35749e+07
3.35582e+07
3.37832e+07
2.08815e+07
3.23181e+07
3.2219e+07
1.42021e+07
4.38997e+07
8.61323e+07
4.11262e+07
4.11249e+07
6.07594e+07
2.9488e+07
3.25741e+07
3.69956e+07
4.08451e+07
8.6139e+07
3.70096e+07
4.82665e+07
3.91459e+07
2.0879e+07
3.38526e+07
1.25129e+07
3.09176e+07
2.39036e+07
1.86616e+07
8.05347e+06
1.98997e+07
3.29515e+07
3.25627e+07
2.22911e+07
6.98498e+07
6.98449e+07
5.05014e+07
2.25014e+07
1.27697e+07
1.66582e+07
5.95207e+07
5.38321e+07
6.21107e+06
7.1676e+07
2.52696e+07
1.14283e+07
5.38531e+07
3.21239e+07
4.63171e+07
1.96569e+07
1.03775e+07
5.47457e+07
5.39447e+07
3.73605e+07
844756
841320
6.12153e+07
6.57345e+07
6.57476e+07
7.84466e+06
7.34934e+07
7.34847e+07
2.10216e+07
3.14416e+07
3.14348e+07
3.99172e+07
999331
9.9839e+06
9.26703e+07
9.26659e+07
8.13559e+06
7.14359e+07
7.77321e+07
2.83143e+07
7.21612e+07
7.2149e+07
3.80585e+07
1.17994e+07
1.03557e+07
6.61496e+07
3.28164e+07
3.28158e+07
534999
532475
8.65768e+06
2.19684e+07
5.40143e+07
5.40059e+07
7.43587e+07
7.43539e+07
6.53167e+07
1.43353e+07
2.7617e+07
6.77071e+07
6.7703e+07
6.68969e+06
861669
864802
6.86165e+07
6.85941e+07
7.47259e+07
7.47307e+07
7.27862e+07
8.4302e+07
8.42973e+07
5.46862e+07
5.46781e+07
4.11185e+07
1.93202e+07
7.85665e+07
7.74314e+07
3.10462e+07
6.93716e+06
7.74312e+07
1.31403e+07
3.6553e+07
4.33051e+07
4.6326e+07
2.80331e+07
8.06583e+07
8.06537e+07
1.90443e+07
7.01349e+07
7.01441e+07
8.46506e+07
8.46448e+07
3.02858e+07
5.36438e+07
5.36459e+07
3.29898e+07
3.29957e+07
3.41078e+07
3.13254e+07
3.13271e+07
3.50114e+07
8.74993e+07
8.75037e+07
2.25034e+07
1.53894e+07
3.49603e+07
2.01512e+07
2.68804e+07
2.67947e+07
1.36008e+07
3.38379e+07
2.0205e+07
2.70565e+07
266341
267997
9.41665e+07
9.41724e+07
1.41338e+07
2.43754e+07
9.55428e+07
9.55303e+07
3.70786e+07
2.88873e+07
1.8441e+07
5.65625e+07
5.70139e+07
3.15115e+07
6.73614e+06
5.95287e+07
9.84384e+06
9.31381e+07
9.31488e+07
3.62017e+07
3.62039e+07
5.41933e+07
5.41985e+07
2.49207e+06
2.48254e+06
1.63157e+07
5.49408e+07
1.15926e+07
3.1232e+07
2.88662e+07
1.82294e+07
4.89375e+06
4.89775e+06
1.63001e+07
4.00348e+06
2.89182e+07
3.51969e+07
3.52041e+07
2.70642e+07
5.62444e+06
4.20509e+07
5.68205e+07
5.68169e+07
3.27975e+07
2.16374e+07
6.07507e+07
6.07556e+07
2.64048e+07
5.62515e+07
5.62534e+07
5.04489e+07
2.58922e+07
3.08716e+07
1.84126e+07
2.1645e+07
2.16453e+07
7.84087e+07
1.62796e+07
4.94919e+07
4.94863e+07
4.996e+06
4.34021e+07
4.33947e+07
8.6325e+06
6.3233e+07
6.32291e+07
3.37169e+07
3.37237e+07
5.31149e+06
2.20792e+07
2.20917e+07
6.68964e+07
6.69013e+07
4.17429e+07
2.23261e+07
4.17789e+07
4.6431e+07
4.64232e+07
4.15549e+07
1.38705e+07
3.31334e+07
3.31564e+07
1.0648e+07
8.64732e+07
8.64587e+07
1.20413e+07
5.34411e+07
8.56446e+07
8.56402e+07
962013
961749
1.06615e+07
7.17922e+07
7.17876e+07
9.5262e+06
3.30976e+07
3.30844e+07
7.36617e+06
7.36766e+06
1.45702e+07
3.14859e+07
8.59203e+07
8.5906e+07
9.84107e+07
9.84174e+07
3.09187e+07
1.36955e+07
1.42189e+07
1.42173e+07
2.26375e+07
276026
274600
9.16661e+07
9.16705e+07
2.43305e+07
1.90465e+07
1.90449e+07
1.08885e+07
7.44893e+07
7.44941e+07
1.83508e+07
2.08427e+07
8.5308e+07
8.5313e+07
8.06581e+07
8.06709e+07
2.27187e+07
1.78239e+07
5.71747e+07
2.76461e+07
1.78796e+07
9.02974e+06
2.8975e+07
3.01566e+07
3.78738e+07
3.81265e+07
6.8524e+07
6.8529e+07
8.55606e+07
8.55559e+07
6.86934e+07
3.64058e+07
1.01778e+07
2.11378e+07
8.12098e+07
3.56822e+07
5.59856e+07
5.19859e+07
5.6663e+07
4.52769e+07
4.52733e+07
4.08712e+07
4.08781e+07
9.33023e+06
1.13414e+07
3.14722e+07
1.44279e+07
1.71892e+07
2.78925e+07
3.01895e+07
1.28178e+07
3.54385e+07
3.54311e+07
1.11015e+07
3.89115e+07
3.89169e+07
1.58827e+07
9.56379e+07
9.56531e+07
8.15482e+07
8.15565e+07
1.8677e+07
5.73323e+07
5.73349e+07
1.04539e+08
1.04533e+08
6.47815e+07
6.47778e+07
4.94916e+07
4.94835e+07
7.64302e+07
1.69937e+07
2.34034e+07
1.16825e+07
3.70736e+07
3.70796e+07
5.8343e+07
5.83456e+07
2.19187e+07
2.18956e+07
1.71272e+07
9.87873e+07
9.87826e+07
3.61729e+07
5.07851e+07
5.0889e+07
2.8385e+07
3.60233e+07
5.32875e+07
1.60204e+07
3.03458e+07
3.03018e+07
7.26187e+06
3.76825e+07
3.44006e+07
3.76916e+06
3.77401e+06
6.46351e+07
1.3262e+07
1.43335e+07
1.84592e+07
4.58079e+07
7.48395e+07
1.83491e+07
2.26601e+07
2.26557e+07
7.28274e+07
7.28224e+07
4.43848e+07
4.43772e+07
2.11512e+07
1.88358e+07
1.7581e+07
1.43491e+07
1.69715e+07
6.33914e+07
2.34609e+07
2.58676e+07
1.02742e+07
7.1193e+07
7.11685e+07
7.12436e+06
7.12948e+06
1.93427e+07
1.73085e+07
4.85661e+07
4.85653e+07
5.26403e+07
5.26316e+07
9.16851e+07
9.16806e+07
2.1737e+07
1.20363e+07
1.18933e+07
5.90783e+06
6.67066e+07
6.75186e+07
8.15795e+07
8.15842e+07
3.71684e+07
3.80791e+06
6.01285e+07
6.01155e+07
3.93038e+07
3.91619e+07
2.90125e+07
1.29071e+07
3.80285e+07
1.91375e+07
2.83543e+07
2.82715e+07
5.58577e+07
5.58511e+07
5.51681e+07
8.00495e+07
8.00445e+07
6.93228e+07
6.93097e+07
7.52833e+07
2.8783e+07
2.87405e+07
2.66814e+07
2.66892e+07
1.39884e+07
2.17399e+07
3.92946e+07
3.17941e+07
3.18024e+07
1.413e+07
1.41284e+07
2.15666e+07
3.86486e+07
5.14764e+07
5.14783e+07
4.44128e+07
2.0195e+07
9.67503e+07
9.67572e+07
1.94662e+07
5.22979e+07
6.63142e+07
2.10372e+07
5.45428e+07
6.35976e+07
6.36011e+07
2.26717e+07
6.83263e+07
6.83221e+07
2.26232e+07
2.17393e+07
5.45519e+07
4.80293e+07
4.80312e+07
2.57761e+07
2.61742e+07
5.09345e+06
8.35506e+07
8.35457e+07
1.03626e+07
1.47677e+07
4.52966e+07
4.52917e+07
3.05132e+07
3.01883e+07
2.99557e+07
1.0657e+07
4.26263e+06
4.19542e+06
4.48156e+07
4.48122e+07
1.95515e+07
1.3461e+07
3.16989e+07
5.95111e+07
6.03493e+06
1.49351e+07
5.02057e+06
6.31985e+06
2.93711e+07
7.1565e+07
2.33986e+07
7.40118e+07
7.39999e+07
3.14589e+07
4.5837e+06
4.58793e+06
7.07874e+07
7.07789e+07
2.44383e+07
7.66295e+07
7.66403e+07
3.07898e+07
7.01842e+07
1.16606e+07
2.19046e+06
2.18838e+06
1.03346e+07
6.05169e+07
6.05217e+07
3.73999e+07
5.8959e+06
3.79103e+07
1.99111e+07
6.86874e+07
3.31069e+07
2.32125e+07
2.32247e+07
4.80721e+07
4.80641e+07
3.63847e+07
1.74239e+07
2.9959e+07
6.65063e+07
6.65107e+07
1.01214e+07
8.55582e+06
8.55515e+06
2.61384e+06
8.60149e+07
8.60195e+07
1.28855e+07
1.90815e+07
2.84849e+07
2.62782e+07
2.62956e+07
3.74143e+07
3.74072e+07
2.61702e+07
3.16569e+07
4.19954e+07
4.18167e+07
5.11741e+07
3.45966e+07
5.25082e+07
6.65914e+06
6.51134e+07
2.15188e+07
3.10118e+07
3.09955e+07
8.57495e+06
2.22988e+07
2.22939e+07
6.99055e+07
6.99097e+07
5.76611e+07
7.94305e+07
5.61683e+06
1.49003e+07
3.04429e+07
7.31327e+06
6.58821e+07
6.34679e+07
4.37589e+07
2.71759e+07
3.64328e+07
1.33132e+07
3.60926e+07
4.40477e+07
4.40503e+07
4.1345e+07
4.13392e+07
5.63521e+07
5.73895e+07
2.72859e+07
4.06901e+07
4.06968e+07
7.24418e+06
4.81193e+07
4.8173e+07
6.71868e+07
6.71909e+07
1.63479e+07
4.90554e+07
1.08108e+07
3.64792e+07
6.45532e+07
264261
265986
3.13056e+07
1.84479e+07
2.12183e+07
1.6331e+07
1.00059e+07
3.36877e+07
3.36818e+07
5.41564e+07
5.41578e+07
3.122e+07
6.86362e+07
8.80873e+07
8.80827e+07
4.743e+07
4.74296e+07
2.84098e+07
2.28216e+07
2.30952e+07
2.84674e+07
5.08198e+07
5.11188e+07
1.99991e+07
4.56463e+07
4.57234e+07
4.89606e+07
4.89686e+07
4.82199e+07
3.23773e+07
3.23705e+07
3.11321e+07
3.11097e+07
3.9468e+07
2.53813e+07
2.53885e+07
1.4821e+07
2.10116e+07
5.41076e+06
2.22876e+07
2.92428e+07
1.00792e+07
1.00818e+07
2.45906e+07
2.9259e+07
5.31656e+07
5.31707e+07
2.04932e+07
2.97148e+07
3.06333e+07
3.52898e+07
4.07064e+07
4.06998e+07
3.73761e+07
8.54818e+07
8.54924e+07
3.387e+07
3.62048e+07
1.62445e+07
5.6779e+07
4.54813e+07
4.54805e+07
1.67182e+07
4.20998e+07
3.48014e+07
7.872e+07
7.87246e+07
5.22469e+07
5.22274e+07
2.38865e+07
2.52578e+07
2.36289e+07
1.70619e+07
2.34738e+07
2.12228e+07
2.83732e+07
2.62957e+07
4.40778e+06
6.73038e+06
5.46608e+07
5.46626e+07
9.31819e+06
9.00206e+07
6.02931e+07
6.02964e+07
5.80336e+07
3.64306e+07
3.47544e+07
2.83636e+07
3.6449e+07
8.34923e+07
8.34967e+07
1.23512e+07
3.90297e+07
5.72249e+07
5.72276e+07
3.28479e+07
3.07211e+07
4.98885e+07
83889.4
82818.4
2.94742e+07
7.31436e+07
7.31334e+07
3.05101e+07
1.13172e+07
2.56466e+07
5.93058e+07
4.8168e+07
2.88485e+06
9.00099e+07
1.40717e+06
1.40661e+06
2.07313e+07
4.25606e+07
1.34562e+07
1.03156e+06
1.0322e+06
3.50446e+07
5.2328e+07
5.23308e+07
9.30153e+07
9.30057e+07
4.75856e+07
4.75934e+07
3.48004e+07
3.31743e+06
3.31987e+06
3.53946e+07
1.8573e+07
2.61125e+07
4.93096e+06
2.9724e+07
2.78772e+07
6.62232e+07
6.62467e+07
6.05292e+07
6.0534e+07
9.51217e+06
3.0297e+07
8.11664e+07
1.96352e+07
4.03504e+07
1.3926e+06
3.81196e+07
3.95329e+07
9.82865e+07
9.82723e+07
6.32773e+07
2.36939e+07
4.76976e+07
4.7707e+07
1.11006e+07
2.83311e+06
2.72394e+06
2.86665e+07
111274
110141
1.67783e+07
1.09379e+07
1.09389e+07
9.07082e+06
7.9109e+07
7.91163e+07
1.37857e+07
3.17562e+07
4.73164e+07
3.17847e+07
6.61313e+07
6.60811e+07
1.5059e+07
2.20928e+07
3.27144e+07
6.78506e+06
7.87977e+07
7.88053e+07
4.25127e+07
4.26458e+07
8.22882e+07
1.30226e+07
9.91811e+07
9.91899e+07
3.45607e+07
3.45535e+07
2.86002e+07
6.6086e+07
1.01664e+07
4.75253e+07
4.75243e+07
8.93865e+07
8.93821e+07
3.58303e+06
8.27169e+06
3.56105e+07
7.74225e+07
2.86122e+07
1.85485e+07
5.60611e+07
5.60638e+07
1.40932e+07
2.49313e+07
3.44466e+07
5.75605e+07
1.44779e+07
3.39344e+07
5.28152e+07
5.28102e+07
7.33446e+07
8.81283e+07
8.81329e+07
818392
814771
4.24347e+07
3.16049e+07
9.05933e+07
3.85502e+07
4.77177e+07
4.77176e+07
4.85011e+07
3.14906e+07
6.73354e+07
2.86367e+07
1.62818e+07
9.3433e+07
9.3438e+07
6.21253e+07
6.29663e+07
6.29752e+07
9.95793e+07
9.95881e+07
9.05805e+07
321340
319687
2.94083e+07
9.71391e+07
9.71437e+07
4.87054e+07
4.87106e+07
1.35565e+07
1.35543e+07
4.77823e+07
1.58694e+07
6.97064e+07
6.97014e+07
1.39911e+07
2.05591e+07
5.51085e+07
5.51056e+07
3.587e+07
2.69378e+07
7.10149e+07
7.10102e+07
2.98758e+07
1.42695e+07
1.42674e+07
5.07389e+07
1.19804e+07
2.60798e+07
1.00179e+08
1.00165e+08
6.85487e+07
4.55362e+07
4.55332e+07
3.55787e+07
3.55856e+07
7.71732e+06
7.71877e+06
1.684e+07
6.05507e+07
9.30286e+06
9.3035e+06
5.27725e+07
5.27776e+07
1.70395e+07
1.05518e+07
2.60993e+07
4.85023e+07
1.42206e+07
1.00881e+07
7.41352e+07
7.41238e+07
6.47027e+07
6.46986e+07
1.04956e+08
1.04964e+08
2.88778e+07
3.09128e+07
3.07631e+07
6.34046e+07
6.34e+07
2.34387e+07
1.1196e+06
1.12468e+06
1.47375e+07
5.17847e+07
3.24683e+07
3.24806e+07
7.94303e+07
2.0872e+07
4.20756e+07
8.79128e+07
8.79172e+07
2.76585e+07
3.01655e+07
3.01992e+07
4.98352e+06
2.40657e+07
4.41041e+06
5.00237e+07
6.09523e+07
6.0965e+07
8.34492e+06
2.53353e+07
8.66454e+07
4.9532e+07
4.95401e+07
1.64145e+07
6.49182e+07
6.49141e+07
6.99772e+06
2.07257e+07
2.07125e+07
6.34922e+06
1.681e+07
8.20265e+06
6.77287e+07
6.77335e+07
6.58051e+07
6.57958e+07
1.21723e+07
8.1947e+07
8.1952e+07
8.08862e+06
1.47082e+07
8.09181e+06
2.69934e+07
2.69957e+07
2.83356e+07
2.78099e+07
1.62218e+07
4.82401e+06
2.86689e+07
2.58865e+07
6.5583e+07
6.55723e+07
2.30255e+07
2.70684e+07
5.50166e+07
2.10308e+07
7.56522e+07
6.13867e+07
2.12742e+07
2.22474e+07
7.31555e+06
1.32163e+07
9.02451e+07
9.02506e+07
8.93902e+07
8.93949e+07
4.39996e+06
3.54614e+06
3.55481e+06
3.70148e+07
2.2396e+07
2.86856e+07
4.01943e+06
1.08994e+07
6.79075e+07
7.34569e+06
3.29378e+06
9.11468e+07
9.11517e+07
2.4061e+07
2.09652e+07
7.23523e+07
3.74787e+07
3.74713e+07
6.21512e+07
7.52538e+07
1.69269e+07
5.31314e+07
2.24836e+07
4.66578e+07
9.28666e+06
6.80179e+06
1.966e+07
2.07418e+07
9.52281e+07
9.52327e+07
3.91566e+06
3.92697e+06
2.49998e+07
4.37476e+06
4.53365e+07
4.5306e+07
1.99162e+07
2.45602e+07
2.51157e+07
5.11651e+07
5.11686e+07
7.26595e+07
6.97617e+06
4.00317e+07
2.83596e+07
8.33948e+06
5.81051e+07
1.16668e+07
3.48673e+07
3.26218e+06
3.96998e+06
2.39184e+07
4.4529e+06
2.05057e+07
4.30275e+07
9.09402e+07
9.09357e+07
3.95054e+07
3.95026e+07
2.48824e+07
2.48929e+07
1.21207e+07
5.02131e+07
3.52654e+07
3.45297e+07
3.45348e+07
7.14305e+07
2.82684e+07
3.90759e+06
3.53585e+07
3.17084e+07
2.0658e+07
1.43051e+07
3.48353e+06
3.47375e+06
3.36557e+07
3.36642e+07
9.66655e+06
9.66499e+06
5.39366e+07
4.45858e+07
2.64286e+07
2.29444e+07
2.84675e+07
2.18252e+07
782031
2.61886e+06
5.5613e+06
2.56961e+07
4.43007e+07
1.21033e+07
1.02801e+07
3.97628e+07
6.5765e+07
6.57808e+07
4.17189e+07
1.4835e+07
9.70172e+06
6.89836e+07
6.89787e+07
5.98854e+07
5.98815e+07
2.9477e+07
1.47281e+07
2.41573e+07
2.79042e+07
2.81113e+07
2.612e+07
2.76804e+07
9.00375e+06
2.71926e+07
1.75644e+07
1.71332e+07
9.22259e+06
2.06168e+07
2.23523e+06
2.21626e+06
1.17319e+07
3.92995e+07
5.55149e+07
1.33825e+07
3.84735e+07
3.84638e+07
7.99787e+07
4.46717e+07
4.46674e+07
1.43175e+06
1.42461e+06
3.16323e+07
6.41624e+07
6.41585e+07
6.06323e+06
3.47962e+07
2.12166e+07
1.04749e+07
1.83087e+07
1.82803e+07
5.45084e+07
5.45115e+07
1.94087e+07
8.62385e+06
3.92516e+07
8.03277e+07
8.03164e+07
6.43901e+07
6.43867e+07
9.08986e+06
3.90815e+07
3.90826e+07
2.94918e+07
2.65249e+07
7.63363e+07
7.63413e+07
1.39768e+07
2.81696e+07
3.23295e+07
1.06151e+07
27226.1
28052.3
4.91011e+07
4.91045e+07
4.20978e+07
4.21036e+07
8.3343e+06
8.33659e+06
2.29601e+07
3.96485e+06
3.97013e+06
4.76965e+07
6.648e+07
3.12203e+07
4.58557e+07
4.5851e+07
5.47707e+06
5.59994e+07
6.58822e+06
1.91683e+07
6.11708e+07
4.96423e+07
4.96506e+07
2.70292e+07
1.7775e+07
6.04178e+07
8.85557e+07
8.8568e+07
5.52529e+07
6.40452e+07
6.40299e+07
3.93319e+07
3.93317e+07
23167.8
22626.1
2.62517e+07
3.21127e+07
1.77545e+07
8.63579e+07
2.92165e+07
3.23763e+07
2.62363e+07
2.62345e+07
8.45238e+07
8.45188e+07
2.09732e+07
7.64825e+07
7.64778e+07
3.48225e+07
4.12397e+07
4.12398e+07
7.46433e+07
3.33597e+07
7.02195e+07
7.02238e+07
6.71419e+07
3.19539e+07
4.36334e+07
2.59691e+07
2.71622e+07
5.5271e+07
5.52742e+07
2.64497e+07
2.64511e+07
2.16247e+07
4.71794e+06
7.30699e+07
2.7827e+07
7.44999e+06
4.0033e+07
4.0184e+07
1.54047e+07
9.77898e+07
9.77945e+07
6.73364e+07
6.73404e+07
8.3666e+06
1.45554e+07
1.46235e+07
8.55753e+07
6.00951e+07
4.10982e+07
7.79102e+06
7.77183e+07
3.00127e+07
8.19094e+07
6.12054e+06
8.41709e+06
1.84142e+07
2.44417e+07
4.44952e+07
4.52432e+07
4.52389e+07
6.03622e+06
1.01329e+08
1.01338e+08
5.13338e+07
5.13281e+07
3.12476e+07
2.34575e+07
1.21145e+07
1.21369e+07
5.0194e+07
8.00527e+07
8.00478e+07
5.35705e+07
1.86113e+07
1.64128e+07
1.20851e+07
981127
977908
8.35548e+07
4.50837e+06
5.3727e+07
5.37262e+07
2.86489e+07
2.86552e+07
2.019e+07
2.0203e+07
4.3848e+07
4.44868e+07
5.09292e+06
4.3893e+07
9.07008e+06
3.14761e+07
3.15386e+07
4.49471e+07
3.01515e+07
3.01555e+07
3.43815e+07
6.313e+07
6.31406e+07
1.23666e+07
2.10793e+07
2.03363e+07
2.50711e+07
1.88426e+07
1.04776e+07
2.7954e+07
8.47142e+07
8.47189e+07
3.76681e+07
3.7336e+07
3.73437e+07
1.0252e+08
1.02526e+08
3.50817e+07
2.17568e+07
5.42157e+07
5.42179e+07
1.9963e+07
3.49165e+07
1.47305e+07
3.18359e+07
1.82261e+07
5.90484e+07
3.48775e+07
3.48727e+07
1.1774e+07
1.27766e+07
1.27798e+07
9.75214e+07
9.75256e+07
3.7641e+07
3.97707e+07
2.58186e+07