/*--------------------------------*- C++ -*----------------------------------*\
| =========                 |                                                 |
| \\      /  F ield         | OpenFOAM: The Open Source CFD Toolbox           |
|  \\    /   O peration     | Version:  v3.0+                                 |
|   \\  /    A nd           | Web:      www.OpenFOAM.com                      |
|    \\/     M anipulation  |                                                 |
\*---------------------------------------------------------------------------*/
FoamFile
{
    version     2.0;
    format      ascii;
    class       volScalarField;
    location    "8000";
    object      sigmayy;
}
// * * * * * * * * * * * * * * * * * * * * * * * * * * * * * * * * * * * * * //

dimensions      [1 -1 -2 0 0 0 0];

internalField   nonuniform List<scalar> 
27023
(
-1.56762e+07
1.56793e+07
1.24583e+07
-1.24579e+07
-1.47284e+07
1.4731e+07
5.62259e+06
-5.62149e+06
8.72634e+06
-8.73204e+06
8.71901e+06
-8.71944e+06
2.30416e+06
-2.30474e+06
-823318
130560
477407
-1.43793e+06
1.43837e+06
2.23614e+06
-2.23113e+06
4.80384e+06
-4.80278e+06
7.19588e+06
-7.1916e+06
819724
-5.13406e+06
-37965
-5.61839e+06
-143424
1.03782e+06
2.22202e+06
-2.21898e+06
-101432
-893411
135469
3.80067e+06
-3.80141e+06
8.15076e+06
-8.15488e+06
-1.32018e+07
1.32025e+07
-208208
-1.44536e+07
1.44566e+07
1.34438e+06
-1.34388e+06
5.58504e+06
-5.58094e+06
-161983
5.25687e+06
-5.25291e+06
-75014.3
576861
-573923
203361
277569
-42796.5
36218.9
1.36998e+07
-1.36989e+07
73761.5
260774
-173189
-92451
1.12832e+06
1.45689e+06
886821
-4.31324e+06
-220797
3.99237e+06
-3.99304e+06
6.81546e+06
-6.81278e+06
135909
-135903
994838
-994249
-1.62734e+06
1.62747e+06
-3.8061e+06
8.26475e+06
-8.26488e+06
7.20507e+06
-7.20228e+06
16458.5
-16451.6
-1.41673e+06
193456
80010.1
180679
1.29738e+07
-1.29707e+07
2.33524e+06
-493121
-6.74627e+06
6.74943e+06
-3.94448e+06
-198999
-35992.8
-11512.9
-115467
425096
7.07072e+06
-7.06838e+06
-152620
5.36174e+06
-5.36045e+06
449291
399708
-175481
6.34539e+06
-6.34398e+06
6.64791e+06
-6.64519e+06
171072
-171000
-1.34435e+06
-2.55827e+06
-2.43425e+06
359481
32621.8
-1.30887e+07
1.30904e+07
2.42504e+06
-2.42465e+06
1.21725e+07
-1.21693e+07
7.64659e+06
-7.64391e+06
-177494
-1.25399e+06
1.15068e+06
-1.2454e+06
228013
-179553
179557
1.3928e+06
2.1108e+06
-2.11021e+06
-7.25758e+06
7.25949e+06
-816380
5.97915e+06
-5.97775e+06
-912225
8394.46
6.12744e+06
1.46618e+06
1.70612e+07
-1.70584e+07
1.24927e+07
-1.24893e+07
-6339.18
-2.3038e+06
-365045
650359
931019
2.12977e+06
-2.12922e+06
214027
-31487.2
-44688
422039
-1.16149e+07
1.16163e+07
-7.169e+06
7.1714e+06
-2.81768e+06
246486
173045
-1.89556e+06
1.89565e+06
160209
314078
-518057
160433
-1.25276e+06
146519
1.85136e+06
-1.47909e+06
-6.36757e+06
6.36945e+06
223944
-262729
-383810
-6.9044e+06
6.90982e+06
-30247.2
20570.8
-8.16481e+06
8.16694e+06
-3.70035e+06
17947.1
3.78772e+06
-3.78735e+06
-23271.5
-7.98163e+06
7.98336e+06
-2.68152e+06
873048
-4.5655e+06
-13284.1
13286
-1.29102e+07
1.29127e+07
-2.13722e+06
-148003
116587
-116600
112254
-111740
1.71064e+06
-2.35187e+06
-1.83603e+06
1.83367e+06
-4.19531e+06
525136
44376.4
-715507
715559
-78304.8
-1.1641e+07
1.16423e+07
-46386.4
2.42729e+06
-2.42691e+06
7.20939e+06
-7.20629e+06
4.72987e+06
-4.73359e+06
-443167
2.01244e+06
-2.01217e+06
-85416.2
661304
-661203
115735
307798
-4.48935e+06
4.48982e+06
5.34888e+06
86364.9
166938
-642645
1.47621e+06
527738
-4.56764e+06
-88721.8
-508421
-3.95144e+06
3.95207e+06
139090
-2.51871e+06
2833.92
-162842
11998.4
-162772
2.17315e+06
-2.17149e+06
-1.78321e+06
842345
446684
643608
-643461
5.29597e+06
-5.29479e+06
238010
-1.63891e+06
1.2265e+07
-1.22642e+07
687611
-1.01621e+06
65767.7
183494
-112185
-1.08397e+07
1.08408e+07
-1.49257e+06
1.48947e+06
-287068
-12667.7
-163930
31520.7
-845676
849415
-69932.6
-177454
455418
4.89606e+06
-326841
-198367
-4.15036e+06
4.15105e+06
19272.8
-19280.7
87998.8
102440
87020.8
-86925
2.35415e+06
611303
-7.05001e+06
7.05235e+06
2.66597e+06
2.72911e+06
-2.73665e+06
4.81592e+06
312900
418689
579349
495682
-493943
6.67243e+06
-6.67758e+06
174035
-3.76472e+06
3.76503e+06
144217
142272
2.87813e+06
-2.88503e+06
-6.16746e+06
127532
2.56384e+06
-51438.1
-114394
19575.5
5.34465e+06
-6.12515e+06
-2.67218e+06
6.02666e+06
478073
723852
243913
-1.84873e+07
1.84908e+07
-1.44955e+06
900945
6.80639e+06
-6.80429e+06
513053
-535340
132383
-131784
-4.00251e+06
1.78746e+07
-1.78707e+07
405326
353327
-402770
354654
1.85565e+06
-1.85536e+06
127907
-126805
-168738
-3.10926e+06
3.10966e+06
-64411.5
-3.56942e+06
-203425
203517
-8.04329e+06
8.04496e+06
-232222
203734
-678025
-1.39599e+07
1.39636e+07
-1.90298e+06
1.90312e+06
-1.00006e+06
-469635
1.43889e+06
181093
-420784
-5.37625e+06
-83526.4
4.3625e+06
71486
-4.36421e+06
5.20054e+06
-5.19957e+06
-4.71499e+06
2.07016e+06
139569
45897.6
-6.46118e+06
1.1977e+06
-3.85814e+06
50654.2
3.73851e+06
153083
116390
86828.6
423790
441904
-29696.4
-374811
7.62138e+06
-7.61812e+06
2.02596e+06
-4.29842e+06
-436509
-1.28789e+07
1.28825e+07
-155500
590913
-6.52592e+06
75591.8
6.53661e+06
885280
-881254
-511360
40532.4
3.90191e+06
397619
-224981
-473998
3.02655e+06
-23194.6
-3.09339e+06
662540
64350.7
229517
-210270
210326
-314423
-23267.6
-1.0129e+06
-5.00131e+06
449370
-449250
-6.40231e+06
6.40513e+06
-80110.8
-2.03797e+06
1.18221e+07
-1.18241e+07
190013
-185411
3.15026e+06
-3.14939e+06
-304525
305866
-2.7734e+06
72051.7
-418882
327388
920671
-9.14018e+06
9.14153e+06
-7.90427e+06
7.90595e+06
782041
-777058
1.5316e+07
-1.53131e+07
-2.05318e+06
512097
-540183
-223769
3.64938e+06
270015
-170074
-3.25371e+06
3.25444e+06
-123705
152464
172272
-129484
129879
-5.67582e+06
-1.28005e+06
4.72625e+06
-4.72527e+06
225491
14361.4
8.69797e+06
-8.70002e+06
2.05662e+06
-2.05632e+06
76726.7
2.25226e+06
-1.66752e+06
-2.42892e+06
-35228.1
-692579
-9.4511e+06
9.45054e+06
-325582
4.55182e+06
147135
-3.52714e+06
3.52745e+06
1.77077e+07
-1.77038e+07
3.82689e+06
-328586
-310774
-5.84435e+06
5.8494e+06
34874
-951041
4.68742e+06
-4.68399e+06
-5.05587e+06
7.03954e+06
-7.03815e+06
7.74166e+06
-7.74127e+06
-6.54528e+06
-1.43718e+07
1.43732e+07
-284851
-238888
590210
-590018
-389021
186934
-186855
-659780
-5.93415e+06
5.93546e+06
-1.52892e+06
1.52803e+06
-940178
1.88462e+07
-1.88438e+07
-360391
41306.2
-694058
-1.7422e+06
7.84461e+06
-7.83884e+06
-3.19402e+06
3.19429e+06
-109010
224591
5.38527e+06
-33744.4
-6.03115e+06
-5.66444e+06
-136039
-1.22594e+07
1.22577e+07
177998
-196080
196110
45559.9
-3148.55
-6.9499e+06
6.95222e+06
-4.3247e+06
-217926
203213
278971
-952575
228834
-5.0734e+06
-217119
5.2244e+06
-5.21946e+06
-74925.7
104983
2.32389e+06
-2.32338e+06
220089
-1.99459e+06
1.99949e+06
-326010
1.9637e+07
-1.96333e+07
-8.21683e+06
8.21846e+06
-2.10261e+07
2.10296e+07
-294166
-5.24788e+06
5.21066e+06
203400
-1.69499e+07
1.69527e+07
126417
2.01549e+06
-2.49396e+06
-17536.2
-74316.2
201035
-959817
-86768.6
6.98533e+06
-6.98161e+06
-193974
6.88286e+06
-6.87885e+06
344715
-6.96173e+06
6.96481e+06
-518080
60440
-1.96397e+06
1.96667e+06
540747
-540595
100622
3.62954e+06
5.68981e+06
4.99091e+06
-4.98942e+06
1.14117e+06
-1.14102e+06
-392366
-221685
205220
-108326
4.02493e+06
-4.02839e+06
-371717
4024.7
-87649.2
88076.7
-4042.94
-317429
2.03557e+06
-2.03112e+06
-1.41366e+07
1.41388e+07
-1.24708e+07
1.2474e+07
2.00549e+07
-2.00513e+07
1.34461e+06
7.15495e+06
-7.15118e+06
-191666
40715.3
-7.47574e+06
7.48009e+06
-178626
5.7183e+06
-5.71629e+06
156425
-1.61205e+06
18431.2
-2.11378e+07
2.11412e+07
30168.2
-74325.3
-142801
186114
-5.66867e+06
5.67004e+06
844669
5.87594e+06
-3.27771e+06
3.27802e+06
-283287
284469
753620
-749866
431724
179264
152388
-152387
-4.64651e+06
-5.84227e+06
-1.22472e+06
-785256
4.23619e+06
1.1115e+06
-97466.9
-2.13345e+06
-1.89396e+06
75085.2
3.01413e+06
208498
-322341
-732867
543761
641238
-639643
7.01309e+06
-7.01032e+06
3.29713e+06
-480687
1458.36
150664
99477.3
-63047.5
-6.20365e+06
-208717
525654
20915.5
-1.68268e+06
9.272e+06
-9.27005e+06
5.70476e+06
94007.2
-17024.7
-59521.9
4.76097e+06
-4.76016e+06
-117245
117315
549743
-547197
180642
-857262
-823163
-704672
-6.04082e+06
6.05148e+06
320225
9.79818e+06
-9.80158e+06
-809097
809178
-321955
6.01443e+06
-6.01275e+06
1.36532e+06
-45255.5
-49635.7
211700
3712.31
98899.7
734850
-734675
-151084
-1.4267e+06
6.76669e+06
-6.76492e+06
-90094.7
101136
-4.02244e+06
-99846.7
-978418
1.04756e+06
173285
1.1335e+06
48371.3
38105.3
-112885
-3.02681e+06
-135685
-1.18266e+06
4.05691e+06
-4.04989e+06
-58805.1
58902.3
122323
507864
-5.25613e+06
5.25724e+06
-130557
-399503
-484767
1.03233e+06
-155471
1.9006e+07
-1.9002e+07
-389462
6.21124e+06
-6.20528e+06
-257927
258020
194302
-111421
-1.09808e+06
127656
9.30454e+06
-9.30592e+06
-218515
354622
272142
87316.2
195012
-4.76681e+06
-1.87677e+06
-2.13772e+06
394961
91334.5
-91314.9
9.2519e+06
-9.25165e+06
163065
-213148
-630972
-589396
480738
-480710
35814.8
117763
-18725.5
115818
370739
2.82908e+06
-2.83412e+06
-1.06787e+06
-330490
5.53317e+06
-5.53175e+06
-563142
59010.2
877446
1.49848e+06
-1.49842e+06
-4.23645e+06
4.24336e+06
-5.26902e+06
-9.60131e+06
9.60306e+06
182981
-86670.7
-141996
-235970
691479
-691331
295050
-3.36597e+06
3.36614e+06
18039.5
-17955
-4.67275e+06
4.8228e+06
1.60048e+07
-1.60019e+07
-6.54415e+06
6.54605e+06
891430
-243685
5.38993e+06
-5.38849e+06
-149835
-732184
1.27099e+07
-1.27071e+07
1.04608e+06
-1.04592e+06
-6.91327e+06
-5.49964e+06
5.50083e+06
-339126
339089
6.91376e+06
317030
268186
-462401
1.57997e+06
-1.57952e+06
50711.8
544703
1.11362e+06
-49499
3.96177e+06
6.18842e+06
-179910
5.94421e+06
-5.94025e+06
64811
2.22264e+06
-20371.3
471831
-472225
-59847.2
-284893
786483
-785952
-4.70153e+06
-5.59577e+06
-288625
5.9695e+06
-5.96819e+06
-6.9937e+06
-335828
-6.62368e+06
-226766
1.70676e+07
-1.70646e+07
193023
3.40563e+06
6.98438e+06
-144610
194621
6.63182e+06
226423
1.16496e+07
-1.16464e+07
-311201
311228
54940.2
-2.47497e+06
49758
7.82761e+06
-7.82647e+06
-3.32596e+06
3.32665e+06
-149022
363324
1.5835e+06
-1.58302e+06
-91491.5
4.46779e+06
-4.47103e+06
-450892
-1.697e+06
136332
-56124.9
226321
-136955
993768
-1.27879e+06
65295.9
528450
-528389
-409304
580287
950041
-308376
122482
-565056
-851246
-236945
468399
531398
2.61115e+06
-4.46428e+06
3.52363e+06
-188330
-234222
-230452
-1.27148e+07
1.27135e+07
4.38796e+06
-2.47196e+06
2.46801e+06
-1.04452e+06
-1.60965e+06
7.48136e+06
-7.47588e+06
1.55354e+06
2.2833e+06
-2.28359e+06
-3.76039e+06
-91545.1
1.70584e+06
-4.43775e+06
6.22887e+06
3.67656e+06
-176153
5.05434e+06
254040
161805
1.62948e+07
-1.62912e+07
524442
-1.74022e+06
3.03914e+06
-3.04194e+06
6.28614e+06
205155
403795
335521
-2.64792e+06
2.65465e+06
-25072.4
-1.19847e+06
-454174
-1.68255e+06
1.68261e+06
-248070
-29838.6
419626
3859.81
-2.36408e+06
-96048
4.24846e+06
161698
-2.45539e+06
2.45663e+06
7279.8
-231888
595536
578109
24197.8
-8.902e+06
8.90093e+06
548851
-1.80827e+06
50042.8
-1.31173e+07
1.31163e+07
1279.11
1.22142e+06
-222684
-3.57607e+06
3.57675e+06
-1.17426e+06
-6.32475e+06
6.37207e+06
1.00272e+07
-1.00261e+07
-30597.3
-1.18999e+06
1.05284e+06
-1.05255e+06
-4.40689e+06
2.0594e+06
-301717
661609
-661494
-628421
6.77304e+06
-6.77207e+06
-409957
-348018
-1.41366e+06
-7.93147e+06
-4.28383e+06
-90440.4
7.92916e+06
448756
602608
-1.79468e+06
-2.81789e+06
2.82061e+06
3.9286e+06
-4.22487e+06
361859
4.57339e+06
265558
-88617.9
-31329.9
-253997
-3.33828e+06
-219719
41921.8
1.15356e+06
-1.23811e+06
-152527
-273165
798753
-206445
159544
-1.78027e+06
166942
237947
-1.82949e+07
1.82975e+07
750605
-637951
-2.39286e+06
2.39754e+06
2.82309e+06
-2.82253e+06
-111952
-302610
80884.3
-1.75801e+06
1.75974e+06
457748
-457695
175753
475248
-22269.6
-1.19365e+06
-506913
-333550
-1.1075e+06
339932
7990.2
7.20277e+06
-7.19852e+06
4.90734e+06
-4.78313e+06
2.26222e+06
551260
588501
-588383
1.21557e+06
1.82934e+06
4.53244e+06
79567.5
-156269
181132
31667.6
-286196
-156117
-301887
-139551
-181203
7.44307e+06
-7.43878e+06
-257653
1.49601e+06
3.65138e+06
-102536
-109548
917697
-915828
-4.01759e+06
22919.9
-7.02903e+06
7.02516e+06
7.86104e+06
-7.86488e+06
955350
-444602
223884
622848
-8.51672e+06
8.51819e+06
3.35946e+06
-3.36635e+06
1.68938e+06
565730
-565652
-539747
197807
-989529
255076
-253882
-4.13755e+06
-2.49273e+06
268740
-481291
-7.32451e+06
7.32703e+06
4.55959e+06
-123985
126301
15269.8
417862
-130369
5.18646e+06
-5.17045e+06
-581889
581958
-1.13736e+06
-5.80769e+06
5.8259e+06
-3.24195e+06
3.2425e+06
2.15955e+06
33404.3
465564
223041
5.27802e+06
-5.27533e+06
-862819
-1.97973e+06
-81798.2
32873.3
-1.53281e+07
1.53319e+07
202524
1.03557e+06
62040.2
3.01397e+06
-3.01347e+06
-202493
-1.35251e+06
-65105
-72829.6
5.87338e+06
-5.87197e+06
111586
5.86974e+06
-5.8675e+06
206728
-69490.7
233238
-244616
5.08719e+06
619540
70430.6
-485032
-104485
2.11339e+06
-1.9776e+06
459926
-457001
93944.3
6.21782e+06
-6.22127e+06
9.04741e+06
-9.04678e+06
-29976.7
8.25647e+06
-8.2547e+06
-1.31079e+07
1.31092e+07
-180099
180080
28917.2
450239
-450169
-547261
762685
-2.30147e+06
-1.40904e+06
-175386
77077.2
50784.2
-48539.4
-4.19079e+06
4.18965e+06
1.0742e+06
-147780
168527
201846
-375904
148890
-157702
-534327
60508
5.97644e+06
-5.98036e+06
98151.8
-5.32333e+06
-62895.3
-100579
-2.92003e+06
-2.52709e+06
5.54947e+06
-5.55235e+06
5.06839e+06
-209041
-896197
1.012e+06
-335568
265519
-92788.8
-6.66642e+06
6.67172e+06
125040
-1.52581e+06
4.15344e+06
-5.71278e+06
6.48646e+06
94003.3
5.70266e+06
-171909
390185
3.19329e+06
3.118e+06
-2.03457e+06
1.19764e+06
220606
24172.6
-36242.8
-28044.4
418790
-4.155e+06
118624
325477
-325392
107074
1.28929e+06
-1.99292e+06
-2.34443e+06
436378
-7.82978e+06
1.00259e+06
-268288
137219
226762
7.82435e+06
413045
-905270
885954
-184759
31111.7
-17294
-159900
827338
-826077
193325
-8.2294e+06
8.22887e+06
271694
8.29053e+06
-8.28821e+06
830085
1.8546e+07
-1.85421e+07
231567
166674
-586566
260883
-260846
431619
-2025.09
-254656
-420085
8.93481e+06
-8.93414e+06
-5.10645e+06
1.75142e+06
1.46833e+06
-176341
2.98122e+06
-2.98411e+06
597336
-594616
858583
45830.4
1.72506e+07
-1.72476e+07
6.53711e+06
-6.53519e+06
-8248.57
456557
1.9533e+06
7.53416e+06
-7.53097e+06
-172051
-964961
968553
106709
-100869
-6.04373e+06
6.04502e+06
171883
812374
-812269
8.79456e+06
-8.79483e+06
-591670
-129322
-959473
44919.1
4.08469e+06
727503
-42107.9
2.22896e+06
5.51064e+06
-128743
909969
-131869
521013
-520894
-2.78006e+06
-1.31326e+07
1.31336e+07
5.63748e+06
-5.63644e+06
-1.4289e+06
-6.77697e+06
6.7804e+06
2.58707e+06
-2.58126e+06
-953908
2.82633e+06
-2.81334e+06
112530
-226188
226298
64271.9
-145252
-483232
255026
4.97141e+06
-5.03949e+06
267681
170502
-2.59169e+06
-209895
-297453
299296
-3.94861e+06
3.94913e+06
81129.9
378328
7.88173e+06
-7.88028e+06
-106016
4.34822e+06
112582
-1.24037e+06
1.04601e+06
5.37703e+06
-394436
-376983
34192.2
-6.96373e+06
6.96509e+06
-2.41736e+06
2.41979e+06
-1.92722e+06
1.92779e+06
1.66267e+06
-1.64954e+06
-22197.3
229477
28848
228284
-4.35477e+06
-864038
4.34903e+06
-4.3528e+06
-60149.3
107788
1.94922e+06
-5.84145e+06
5.8422e+06
3.41752e+06
500207
-2671.5
5.72714e+06
-5.72516e+06
-5.9804e+06
-206524
-1.34105e+06
1.34153e+06
-3.33126e+06
-7.1464e+06
7.15001e+06
-310589
-2.60773e+06
-5.78431e+06
-123247
-1.06066e+06
961673
56054
1.68826e+06
1.06502e+07
-1.06464e+07
-47393.7
1.31372e+07
-1.3135e+07
1.2643e+06
6.05444e+06
-6.05257e+06
-1.63009e+07
1.63046e+07
-100915
-1.64217e+06
1.64139e+06
-971058
971342
63341.9
-4.10856e+06
184187
1.49113e+07
-1.49089e+07
-126080
-398293
-5.07359e+06
5.0561e+06
165578
1.18037e+07
-1.18019e+07
2.09401e+06
-105440
-19121.1
19177
-1.0905e+06
1.09347e+06
-8.77743e+06
6.71948e+06
-6.71759e+06
191651
2.93179e+06
-2.93909e+06
3.92885e+06
-3.93234e+06
311630
4.09003e+06
1.04099e+07
-1.04083e+07
-3.96787e+06
3.96834e+06
1.96308e+06
187389
-1.17239e+07
1.17217e+07
724183
202282
-201281
174833
-174833
-3.58413e+06
1.34087e+07
-1.34089e+07
584139
-6.04442e+06
6.04595e+06
-3.10572e+06
-959776
-1.51167e+06
1.51188e+06
-8.96582e+06
8.96729e+06
-1.88275e+06
375114
-178590
3.12732e+06
-215281
-1.28523e+06
3.36669e+06
4.71233e+06
70885.9
-315763
-2.394e+06
2.39442e+06
614516
-614396
207326
-62538.8
-10651.6
255785
204901
-23113.8
-24649
91415.2
76527.9
2.78531e+06
-2.78351e+06
-1.60924e+07
1.60957e+07
1.10362e+06
36783.6
-4.09391e+06
-200351
-211384
1.41391e+06
-2.20994e+06
-991022
3.27202e+06
-3.27315e+06
314096
-4.53452e+06
4.53551e+06
-2.15255e+06
-8.5102e+06
8.51165e+06
-7.18711e+06
7.18922e+06
-2.33956e+06
-7.17272e+06
7.17585e+06
2.32913e+06
-2.32899e+06
7.51959e+06
-7.51656e+06
1.93154e+07
-1.93123e+07
-48150.6
2.10751e+06
1.16924e+06
-400608
-1.3739e+07
1.37427e+07
-7.2459e+06
7.24902e+06
-65762.3
-433370
-2.17622e+06
252127
-252103
1.35504e+06
207526
-372570
-1.85562e+06
-431403
-95629.1
-400600
4.38374e+06
-4.38757e+06
-435846
-538786
988209
3.1221e+06
-3.12448e+06
111551
664405
1.93553e+06
-1.11353e+06
-189987
132433
-53459.4
1.39861e+07
-1.39849e+07
2.73976e+06
-2.73923e+06
1.26142e+07
-1.26123e+07
-54909.6
110637
-214715
2.25194e+06
-3.20993e+06
124702
-74476.8
269621
1.12071e+06
-1.3287e+06
1.32804e+06
6.8555e+06
-6.86078e+06
728240
2.60437e+06
-1.08387e+06
1.08857e+06
2.08934e+07
-2.089e+07
62453.6
-62432.1
-2.3856e+06
-104327
155632
714794
-216047
208753
-647452
647617
233666
-1439.89
8.11694e+06
-8.11866e+06
-401851
279791
655566
-310692
-316617
179500
4.91577e+06
-4.97957e+06
1.30259e+07
-1.30229e+07
-283033
2.25446e+06
-2.25413e+06
8.83213e+06
-8.8324e+06
-158468
5.38802e+06
-5.42215e+06
-1.03732e+07
1.03748e+07
-1.96388e+06
-254752
-6.66063e+06
-3.57875e+06
3.57778e+06
-1.13557e+07
1.13535e+07
133809
6.78983e+06
-6.73122e+06
6.73448e+06
176299
-314652
-4.28294e+06
4.28369e+06
-41644.6
162141
-173566
613610
-7.23516e+06
-6.70298e+06
6.70553e+06
3.63984e+06
6.44491e+06
-6.44287e+06
1.25552e+06
2.39052e+06
7.23054e+06
-6.32856e+06
6.3318e+06
-1.81657e+06
3.39663e+06
47647.2
1.59994e+06
-1.59976e+06
937869
1.59914e+06
4.73819e+06
-4.73689e+06
94396.4
-2.1792e+06
2.18644e+06
8.76394e+06
2.2541e+06
-2.20144e+06
2.59404e+06
-2.59226e+06
1.51193e+06
-1.23329e+06
-227198
-261490
187638
-2.23202e+06
-601163
-161638
3.61174e+06
168600
-1.78097e+06
1.15266e+07
-1.15257e+07
-3.99023e+06
4.23217e+06
-4.23614e+06
7.58428e+06
-7.58159e+06
851279
-8.24248e+06
8.24437e+06
1.13537e+06
662228
169055
-2.33216e+06
2.33019e+06
833049
-3.96445e+06
3.96541e+06
-4.40784e+06
13425.6
5.549e+06
-330954
-146544
-367018
-1.07118e+06
1.07015e+06
1.54889e+07
-1.54863e+07
65422.6
166578
2.66267e+06
-7.47308e+06
7.47626e+06
-33628.5
3.4193e+06
-3.42171e+06
308056
-279451
279490
-400574
3.19579e+06
-763229
-1.34537e+06
1.26348e+06
3.21455e+06
-3.21529e+06
-3.39882e+06
217846
356583
-14948.3
-219682
-786418
-33638.1
-859433
391467
-1.38466e+06
3.21785e+06
-3.2218e+06
288166
1.2679e+07
-1.26786e+07
349727
-344589
424468
-339994
352597
-3.13167e+06
5.50308e+06
89929
141677
26665.1
-20139.2
941415
248.459
-383013
50907.3
-2.23667e+06
2.23865e+06
6.4959e+06
-6.49859e+06
1.66384e+06
-1.06394e+06
2.37428e+06
-3.60588e+06
3.60536e+06
-300831
-16852.5
77556.7
-6.66371e+06
6.66571e+06
2.3933e+06
254627
-322601
149190
-84676.7
-285024
286890
272243
-20510.4
-427404
-2.48266e+06
519000
5.44561e+06
-5.44376e+06
-7.63825e+06
7.64239e+06
3.29834e+06
82476.9
542171
-542084
-7.58194e+06
7.58681e+06
15919.7
2.92151e+06
160222
1.3724e+06
220043
129495
698024
355607
-446874
-2.10588e+07
2.10622e+07
-88918
1.56922e+07
-1.56886e+07
3.01399e+06
-3.02511e+06
5.22883e+06
-670988
533216
-2.22709e+06
1.71438e+06
-34087.9
-2.29669e+06
-3.91195e+06
7.74129e+06
-7.74807e+06
-4.00977e+06
3.90815e+06
-3.29397e+06
3.29478e+06
1.68597e+06
-319398
-17025.1
451735
1.44898e+07
-1.4487e+07
457691
-6.7612e+06
6.76321e+06
4.07513e+06
172358
-2.74926e+06
200399
6.80008e+06
-6.79605e+06
1.45674e+06
212352
41063.6
-219261
219240
-434967
431498
4.6684e+06
-4.97404e+06
-130947
-1.06333e+06
1.15655e+06
336913
11774.4
-150780
258230
-8965.08
-7.47774e+06
7.48144e+06
-220851
347897
-6.58285e+06
6.58525e+06
145001
-6.6755e+06
-40534.6
-2.09106e+06
6.6847e+06
-46154.9
46176
114831
5.37089e+06
-8.04209e+06
8.04651e+06
4.93054e+06
-293168
-368.609
2213.03
-1442.77
1.90213e+06
8.19558e+06
-8.19368e+06
-157661
83267.1
35385.5
287811
-87909.9
-341029
-347846
1.47387e+06
-1.47253e+06
283717
-117121
952480
1.08086e+06
-1.08113e+06
5.70509e+06
-5.84625e+06
5.84889e+06
6.76584e+06
-6.76428e+06
-2.06996e+07
2.07031e+07
322371
2.08205e+06
-2.15127e+06
-178012
107283
3.10714e+06
-629024
-3.15679e+06
-4.49918e+06
290553
-270000
-4.26513e+06
4.26614e+06
-424333
-4.607e+06
483483
2.11711e+06
-197620
-81105.1
-133192
225292
8.54968e+06
-8.54831e+06
-271901
35580.8
-1.68436e+06
1.68313e+06
-348369
-273780
-19300
7998.67
-105567
104499
498644
2.2132e+06
-2.21339e+06
-255314
-7.8078e+06
7.81055e+06
-383789
-5.31369e+06
117643
5.29555e+06
189352
-168747
644037
-2.22573e+06
-753028
-17570.7
-7.64573e+06
7.6484e+06
476196
-384758
-85499.1
487854
-5.01915e+06
5.01988e+06
1.98049e+07
-1.98007e+07
-3.9482e+06
-641374
-576434
-7.04782e+06
7.05241e+06
140943
-140854
-140995
-304985
4.15317e+06
154060
3.94222e+06
1.63187e+06
-6.3515e+06
6.3544e+06
-941702
110210
-4.59674e+06
-191975
-399016
-3.51476e+06
3.10996e+06
-3.10909e+06
-603255
-276864
276925
414881
-413199
209392
4.84523e+06
-81223.1
-5.00212e+06
-939071
942599
-811798
4.0083e+06
-216764
4.62648e+06
-230605
-1.3233e+06
1.32344e+06
372343
-1.9211e+07
1.92137e+07
-4.80906e+06
4.81006e+06
81799.4
297946
-296455
-10900.3
-183598
183597
-3.89108e+06
3.89185e+06
-1.11876e+07
1.11851e+07
34183.2
2.06395e+06
1.75008e+06
-1.74969e+06
-173169
-171328
6.18663e+06
-6.18389e+06
-1.343e+06
-19707.9
6.91163e+06
-6.90936e+06
-2.63833e+06
6.56284e+06
-6.56638e+06
166104
99686.3
-1.38843e+06
7.317e+06
-7.3157e+06
120900
2.54094e+06
-2.53833e+06
-6.6464e+06
6.6483e+06
4.38143e+06
-4.38473e+06
2.60652e+06
-4470.29
-3.51494e+06
3.51235e+06
-3.23289e+06
3.23369e+06
-2.10039e+06
-849687
1.15531e+06
812986
21678.1
1.27238e+06
1.16105e+07
-1.16101e+07
5.88772e+06
-5.88594e+06
-3.81726e+06
3.81765e+06
-138359
-1.89276e+06
1.66528e+06
4.52815e+06
-4.52701e+06
-4.66068e+06
-678384
681293
-139986
-203886
2.67289e+06
-2.65917e+06
-395000
-314194
230619
-39657.2
39727.6
-155737
-5.5041e+06
5.49366e+06
138811
1.46673e+06
-375986
184120
-9.41687e+06
9.41501e+06
207757
-5.09433e+06
507609
-1.35956e+07
1.35981e+07
662584
5.59206e+06
-5.59043e+06
-250821
-3.61082e+06
-884889
29619.5
-2.73755e+06
-37689
-1.11709e+06
1.11745e+06
477367
-479528
587158
-4.25769e+06
4.25834e+06
-2.17299e+06
-1.71423e+06
2.17285e+06
-3.69632e+06
3.70099e+06
2.83529e+06
-1.23423e+06
-36399.1
733630
-2.734e+06
2.08415e+06
360156
-365305
739481
-4.59345e+06
-266589
-1.80724e+06
-104068
311702
-504212
1.15837e+06
172060
-112031
-3.36396e+06
3.36437e+06
-740527
740640
-299040
1.93604e+06
-1.91897e+06
-1.01067e+06
-1.82684e+06
2.74554e+06
-279848
1.38371e+06
60658.2
-718855
834433
-1.15301e+06
1.1531e+06
-2.05015e+06
-129804
235694
2.0585e+07
-2.05809e+07
12203.1
193736
1.02536e+06
74786.6
132349
-1.13777e+06
519474
188819
-2.86762e+06
45475.4
32614
-32629.2
2.06279e+06
-2.10787e+06
260719
539814
6.30526e+06
-6.31161e+06
2.41893e+06
280848
2.02858e+06
-5.4333e+06
5.43557e+06
48477.3
246193
5.71663e+06
-2.81038e+06
421545
-165037
453049
-127730
75738.4
94793.9
144555
131686
2.25505e+06
-28660.5
248836
-248775
-2.13829e+06
2.14263e+06
497888
-500678
290708
-296639
3.50094e+06
-1.00224e+07
1.00263e+07
-101414
265353
-67284.2
3.27262e+06
-5.4729e+06
-4.14547e+06
247667
-1.20465e+06
1.20136e+06
-3.44781e+06
3.44661e+06
-7.60653e+06
7.60125e+06
75391.7
-6.86615e+06
193999
-163508
-226276
4.10186e+06
-84917.1
-215963
415288
-6756.26
6.86776e+06
-306497
936737
6.77325e+06
-57137
64021
-273697
439258
-1.43703e+06
1.57683e+06
-1.57652e+06
5.7625e+06
-5.76052e+06
-3.84892e+06
678105
-408540
-2.66711e+06
2.66625e+06
2.68789e+06
315288
-150922
150615
108126
-130613
-123552
-869568
1.27129e+06
-1.25967e+06
245510
-5.24644e+06
-130920
-220177
-6.70364e+06
6.7148e+06
-758257
4.86685e+06
-4.86533e+06
332347
-331949
-367917
5.74531e+06
-5.7434e+06
-106830
-362875
-149918
-1.23946e+06
-1.04789e+06
1.05013e+06
-6.00554e+06
6.00786e+06
115524
580492
5.32494e+06
7.3131e+06
-7.3111e+06
7.25496e+06
-7.25178e+06
913640
-6.48483e+06
6.48658e+06
3.84459e+06
-194404
-1.9509e+06
1.95119e+06
-2.55088e+06
253558
252926
1.39176e+06
-8671.56
7277.52
-5.27134e+06
5.27342e+06
-3.44616e+06
3.44671e+06
6.28949e+06
-6.29333e+06
126935
3.39399e+06
-3.39644e+06
-292997
1821.95
-11801.1
4.74995e+06
-4.74867e+06
651808
-115.883
1.02179e+06
-445421
164.569
-1.60395e+07
1.6042e+07
-604500
417133
-259097
-7.31231e+06
7.31421e+06
79490.8
426919
-436309
5.46961e+06
-5.46502e+06
-44256.1
43476.6
3.29253e+06
2.91272e+06
3.19473e+06
110707
4.93772e+06
3.11101e+06
-3.29384e+06
-2.67964e+06
1.74783e+06
-1.74762e+06
488049
387855
-387710
375633
-1.94668e+06
1.94885e+06
49061.8
-73722.1
-6.70664e+06
6.70877e+06
-399019
2.3803e+06
6.54603e+06
2.31072e+06
-59262
-5.88972e+06
5.8922e+06
1.41974e+06
-1.40726e+06
-1.88316e+06
-36986.5
-851.495
201047
-352409
407075
-436836
-1.93276e+06
-476681
476759
-6.84304e+06
6.84537e+06
-247452
-847096
812822
152252
87511.7
362613
-336050
48870.1
-70663.1
65362.5
-70933.9
-22705.3
1.39684e+06
-3.87824e+06
-220215
4.97375e+06
-4.97195e+06
725592
-4.13804e+06
4.13893e+06
1.39229e+06
-1.39122e+06
-5.05434e+06
-193600
-1.08714e+06
43065.7
155972
1.41976e+06
-1.41953e+06
-288756
-78066.9
2.19816e+06
-262941
983092
-981257
-74698.8
398195
7.42834e+06
-7.42395e+06
-1.54132e+07
1.54163e+07
-2.79007e+06
2.78838e+06
-6.54185e+06
857496
-226807
6.5143e+06
276672
4.71596e+06
-4.68968e+06
439438
-6.95578e+06
6.96055e+06
-4.43752e+06
-300760
292365
46409.4
3.1356e+06
295538
4.88211e+06
373223
-1.39812e+06
-37581
-917791
917913
5.48498e+06
-7.76458e+06
7.76582e+06
-2.53211e+06
2.53246e+06
1.32721e+06
3.85774e+06
-7.54267e+06
7.54758e+06
-159557
21089.8
2.64857e+06
5.23531e+06
-3.1046e+06
358230
9.38478e+06
-9.38108e+06
136396
1.14234e+07
-1.14264e+07
-96110.2
96113.5
-5.43832e+06
-6.31757e+06
-55025.9
-4.71481e+06
6.29045e+06
-279376
1.28447e+06
-1.28256e+06
6.16665e+06
-6.1643e+06
-393626
-2.68841e+06
-534106
334714
-3.72366e+06
262717
-261524
6.96103e+06
80680.8
-34124.7
47211.4
-1343.58
-3.6157e+06
3.61583e+06
80663.5
-284565
284586
1.61356e+06
2.41767e+06
-2.41874e+06
-211804
3.38293e+06
475969
1.72674e+07
-1.72638e+07
105474
-132061
-50652.1
-184199
-922849
126956
450949
-1.20364e+06
-7.84668e+06
7.84875e+06
310971
288330
69302.3
80210
-3.35119e+06
167813
277378
-374939
-1.34853e+07
1.3486e+07
-7.25565e+06
-137054
7.22972e+06
1.68742e+06
1.90163e+07
-1.90132e+07
231567
-7.62904e+06
-361074
7.556e+06
1.40211e+06
-1.40227e+06
-1.20387e+06
1.20436e+06
174488
-189469
334536
-132045
4.74661e+06
-4.74506e+06
-90790.5
-2.75932e+06
-602356
488812
948145
5.11925e+06
-5.12422e+06
-1.44169e+06
-335839
-827363
-7.36063e+06
7.36343e+06
5.41614e+06
-5.42119e+06
-23955.8
9172.88
-3983.9
-134204
-783856
-493954
876843
-876779
82692.4
36347.2
1.12795e+06
135904
188788
-1.81358e+06
1.81384e+06
80105.8
3.42548e+06
-85305.5
-6.22374e+06
6.2275e+06
2.6423e+06
-2.64009e+06
-4.04613e+06
-206900
4.99652e+06
-5.00692e+06
-858768
-3.47259e+06
271077
799598
-2.50441e+06
7.78562e+06
-7.78105e+06
-140155
-3.12497e+06
-1.5182e+06
1.51051e+06
1.33561e+06
-1.33421e+06
332522
7.6424e+06
-7.63683e+06
1.31238e+07
-1.31204e+07
396380
-383200
-3.83972e+06
-1.78952e+06
978943
-242070
6.22087e+06
-6.22441e+06
23720
-7.6634e+06
7.67188e+06
340121
502765
-26975.6
2.89755e+06
-2.90607e+06
54233.2
-579704
-78918.3
184017
-5434.53
-2.50531e+06
2.50578e+06
-357551
1.08809e+06
2.61074e+06
9.25243e+06
-9.2522e+06
-1.93761e+07
1.93793e+07
-4.06503e+06
-2.6167e+06
-6.83005e+06
6.8355e+06
-2.06573e+07
2.06607e+07
-5.29217e+06
5.28794e+06
-3.77207e+06
3.77275e+06
925412
1.38691e+06
1.70606e+07
-1.70579e+07
105612
1.54799e+06
-1.54772e+06
2.11956e+06
212181
295823
2.07431e+06
-2.0732e+06
5.70338e+06
-3.6851e+06
356356
-176863
5.63669e+06
2.44325e+06
-128791
296551
-1.85267e+06
8.19325e+06
-8.19147e+06
1.02981e+07
-1.03003e+07
4.05498e+06
-4.05411e+06
-5.70356e+06
1.52918e+06
-1.52858e+06
-1.42142e+06
1.42125e+06
42375.5
47491.1
-240611
222897
7.16835e+06
-7.16427e+06
-3.30925e+06
3.30971e+06
2.10533e+07
-2.10497e+07
108754
-651140
-98439.3
422663
-397637
-1.74282e+06
1.743e+06
-36300
-91076.1
-2.34629e+06
82733.5
-1.49167e+06
-5.63674e+06
-7.30824e+06
7.31108e+06
-2.4222e+06
165067
-73413.5
-5.73178e+06
5.73487e+06
347404
4.61322e+06
-4.6124e+06
-67242.7
-1.20487e+06
-877929
-457483
457510
-469399
1.43463e+07
-1.43439e+07
-3.53078e+06
860162
508873
3.12976e+06
-42606.7
-29425.1
204607
-203753
-1.8256e+06
82501.9
-884647
-1.67364e+06
5.65301e+06
5.91519e+06
278485
2.62754e+06
-2.12565e+06
2.01792e+06
114649
-118102
-7.12574e+06
1.9452e+06
1.31823e+06
61350.9
-270467
1.65346e+07
-1.65317e+07
2.32743e+06
7.09841e+06
718634
-717245
-1.10761e+06
1.03968e+06
-1.03939e+06
-5.59954e+06
5.60167e+06
634955
-1.98439e+07
1.98472e+07
253745
4.33276e+06
85552.4
43540.7
268511
2.9047e+06
-2.91028e+06
241318
6.33554e+06
-6.33842e+06
-183998
136538
47744.3
-47527.1
-2.42808e+06
-872574
-402571
1.60813e+07
-1.60775e+07
2.42932e+06
-214457
891905
413335
1.58358e+06
-1.58341e+06
8.63426e+06
-8.63262e+06
65963.4
-370487
-1.53262e+06
263893
1.20184e+06
2.33757e+06
473967
-476750
506877
-96163.1
193496
124596
-390993
129259
263877
-424638
755488
1.08316e+07
-1.08281e+07
-62424
-6.20886e+06
6.21215e+06
-2.09719e+06
2.09965e+06
109032
-5.84424e+06
5.84665e+06
-2.89772e+06
-3.56598e+06
6.1397e+06
776441
359011
-376911
334004
-7.52271e+06
7.52826e+06
1.92163e+06
71934.2
-71700.5
1.84522e+07
-1.84482e+07
843.551
-7.12177e+06
7.1847e+06
51464.5
373107
331731
5.3442e+06
-5.34304e+06
-2.54616e+06
-98035
3.53403e+06
-3.53335e+06
-202544
20184
-100842
1.89147e+06
-7.9339e+06
7.93706e+06
1.83788e+06
236744
14458.7
-1.41885e+06
8.88441e+06
-8.88234e+06
-1681.43
6.60922e+06
-6.5097e+06
-4.22942e+06
8.56888e+06
-8.56772e+06
6.51441e+06
309148
1.37516e+06
-259597
1.77891e+06
-1.77867e+06
1.1039e+06
-771016
6.46161e+06