/*--------------------------------*- C++ -*----------------------------------*\
| =========                 |                                                 |
| \\      /  F ield         | OpenFOAM: The Open Source CFD Toolbox           |
|  \\    /   O peration     | Version:  v3.0+                                 |
|   \\  /    A nd           | Web:      www.OpenFOAM.com                      |
|    \\/     M anipulation  |                                                 |
\*---------------------------------------------------------------------------*/
FoamFile
{
    version     2.0;
    format      ascii;
    class       volSymmTensorField;
    location    "8000";
    object      sigma;
}
// * * * * * * * * * * * * * * * * * * * * * * * * * * * * * * * * * * * * * //

dimensions      [1 -1 -2 0 0 0 0];

internalField   nonuniform List<symmTensor> 
27023
(
(-1.95174e+07 -1.61109e+07 1.63821e-13 -1.56762e+07 -2.13512e-14 -8.73225e+06)
(1.95213e+07 -1.61145e+07 1.07449e-13 1.56793e+07 -1.7902e-13 8.73398e+06)
(1.25678e+07 -1.19021e+07 7.11399e-13 1.24583e+07 -2.07237e-13 6.20949e+06)
(-1.25648e+07 -1.18997e+07 5.45991e-13 -1.24579e+07 1.60318e-13 -6.20864e+06)
(-1.97198e+07 -1.53499e+07 0 -1.47284e+07 0 -8.54728e+06)
(1.97237e+07 -1.53535e+07 -5.41975e-13 1.4731e+07 1.62999e-13 8.54893e+06)
(1.06412e+08 -1.50344e+07 4.50316e-12 5.62259e+06 -4.28606e-12 2.77981e+07)
(-1.06403e+08 -1.50315e+07 -1.1123e-12 -5.62149e+06 -1.03405e-12 -2.77957e+07)
(4.71964e+06 -5.99219e+06 -1.05256e-13 8.72634e+06 7.05484e-14 3.33622e+06)
(-4.71386e+06 -5.99152e+06 -4.95846e-13 -8.73204e+06 -1.36977e-13 -3.3362e+06)
(7.69931e+07 -1.47179e+07 -6.75941e-13 8.71901e+06 1.20446e-12 2.12669e+07)
(-7.69812e+07 -1.47134e+07 -9.58042e-13 -8.71944e+06 -5.51136e-13 -2.12641e+07)
(849287 -1.39691e+06 -6.83784e-14 2.30416e+06 -1.4014e-13 782435)
(-868009 -1.40427e+06 3.63848e-14 -2.30474e+06 -3.76742e-14 -787223)
(-3.08011e+07 -2.54732e+06 8.24221e-13 -823318 3.37801e-12 -7.84665e+06)
(2.5125e+06 1.16804e+07 1.00951e-12 130560 -7.58505e-13 655796)
(1.69704e+06 1.11653e+07 -9.14233e-13 477407 -3.85486e-13 539524)
(-6.60077e+07 -2.55968e+06 0 -1.43793e+06 0 -1.67346e+07)
(6.60135e+07 -2.56093e+06 3.34428e-12 1.43837e+06 -1.90722e-12 1.67362e+07)
(4.83901e+07 -2.02729e+06 0 2.23614e+06 0 1.25614e+07)
(-4.8386e+07 -2.02614e+06 -7.2493e-14 -2.23113e+06 1.02491e-12 -1.25591e+07)
(1.05798e+08 -1.35244e+07 3.51799e-15 4.80384e+06 -1.06271e-12 2.74424e+07)
(-1.05789e+08 -1.35218e+07 -2.61522e-12 -4.80278e+06 -3.17018e-12 -2.744e+07)
(5.41257e+07 -1.35086e+06 -9.25558e-13 7.19588e+06 -1.46872e-12 1.52151e+07)
(-5.41222e+07 -1.34806e+06 2.37091e-12 -7.1916e+06 -2.43003e-13 -1.52132e+07)
(8.50686e+06 -297145 3.81866e-12 819724 -5.47648e-13 2.31412e+06)
(-3.78523e+07 3.98279e+06 1.77305e-12 -5.13406e+06 2.83922e-13 -1.06658e+07)
(4.01875e+06 -1.40393e+06 8.35093e-12 -37965 2.16721e-11 987713)
(-3.73528e+07 3.66326e+06 -1.38479e-12 -5.61839e+06 7.24691e-13 -1.0662e+07)
(3.67351e+07 -3.12466e+06 -5.13721e-12 -143424 6.43547e-12 9.07913e+06)
(1.7663e+07 -680823 9.86517e-12 1.03782e+06 -5.29292e-12 4.64006e+06)
(4.84361e+07 -2.48929e+06 4.11452e-13 2.22202e+06 -2.0958e-12 1.25693e+07)
(-4.8433e+07 -2.48889e+06 5.07279e-12 -2.21898e+06 4.1576e-12 -1.25678e+07)
(-4.92396e+07 -2.14816e+06 -4.89238e-13 -101432 2.27685e-12 -1.22425e+07)
(-3.04922e+07 -1.63371e+06 1.00421e-12 -893411 4.1377e-12 -7.7874e+06)
(3.82677e+07 -1.85014e+06 -1.08478e-11 135469 2.06625e-12 9.52861e+06)
(4.40987e+07 -1.07347e+06 1.7341e-12 3.80067e+06 -1.47082e-12 1.18848e+07)
(-4.4091e+07 -1.07149e+06 3.46814e-12 -3.80141e+06 2.94156e-12 -1.18831e+07)
(4.52291e+06 -5.97873e+06 1.94447e-13 8.15076e+06 -1.80234e-13 3.14459e+06)
(-4.5205e+06 -5.97895e+06 -2.81587e-13 -8.15488e+06 -1.29267e-13 -3.14502e+06)
(-1.25403e+07 -1.1918e+07 -2.08439e-13 -1.32018e+07 -6.79921e-14 -6.38713e+06)
(1.25435e+07 -1.19204e+07 -9.24923e-14 1.32025e+07 2.61991e-14 6.38811e+06)
(-2.48889e+07 -1.98583e+06 -1.09762e-11 -208208 -5.48785e-12 -6.2271e+06)
(-1.87945e+07 -1.55491e+07 -1.13206e-13 -1.44536e+07 -1.40825e-13 -8.24954e+06)
(1.87984e+07 -1.55526e+07 1.13185e-13 1.44566e+07 -1.40682e-13 8.25124e+06)
(6.51394e+07 -2.47938e+06 5.1601e-12 1.34438e+06 -1.46187e-12 1.6496e+07)
(-6.51336e+07 -2.47818e+06 -3.72384e-12 -1.34388e+06 -2.22703e-12 -1.64944e+07)
(5.12031e+07 -1.6208e+06 -4.85125e-12 5.58504e+06 1.83469e-12 1.40903e+07)
(-5.11985e+07 -1.61974e+06 4.85124e-12 -5.58094e+06 1.83475e-12 -1.40881e+07)
(3.38951e+07 -2.69655e+06 -3.27891e-12 -161983 1.22007e-12 8.36986e+06)
(4.94046e+07 -765414 3.66385e-12 5.25687e+06 -1.09646e-12 1.35626e+07)
(-4.94006e+07 -764282 -1.43044e-12 -5.25291e+06 -1.86378e-13 -1.35606e+07)
(-4.80302e+07 -2.36186e+06 8.53888e-12 -75014.3 1.08939e-12 -1.19359e+07)
(485.538 -87769 4.65478e-15 576861 2.43992e-14 143251)
(-483.006 -87527.6 1.0285e-13 -573923 8.47868e-14 -142522)
(5.41075e+07 -2.18131e+06 1.78367e-12 203361 3.58344e-12 1.34756e+07)
(2.26326e+07 -1.77693e+06 2.8905e-12 277569 7.76511e-12 5.68449e+06)
(4.02364e+07 -1.59114e+06 1.35162e-11 -42796.5 3.34287e-12 9.97284e+06)
(-1.83469e+07 -2.99532e+06 -2.42398e-12 36218.9 2.00986e-12 -4.54326e+06)
(1.19717e+07 -1.23061e+07 -1.10679e-12 1.36998e+07 3.65517e-13 6.36962e+06)
(-1.1969e+07 -1.23038e+07 -7.43192e-13 -1.36989e+07 -2.35923e-13 -6.36874e+06)
(3.33578e+07 -1.65626e+06 -1.9697e-11 73761.5 7.11362e-12 8.29504e+06)
(5.15246e+06 -2.03608e+06 7.95521e-12 260774 -1.75453e-12 1.34313e+06)
(5.96887e+06 -858035 4.52405e-12 -173189 2.2702e-11 1.43803e+06)
(-2.41771e+07 -3.23066e+06 -1.17341e-11 -92451 -1.74353e-11 -6.02176e+06)
(1.56816e+07 -287584 -2.32368e-12 1.12832e+06 1.04518e-12 4.17088e+06)
(4.30618e+07 -1.79889e+06 1.21042e-12 1.45689e+06 -5.58752e-12 1.1046e+07)
(1.05404e+07 115425 -5.23767e-12 886821 1.96193e-13 2.83532e+06)
(-3.83735e+07 4.16493e+06 1.14422e-12 -4.31324e+06 -9.28525e-13 -1.05915e+07)
(-2.32188e+07 -2.89695e+06 -1.14811e-11 -220797 -2.45802e-12 -5.81585e+06)
(4.22261e+07 -1.45089e+06 0 3.99237e+06 0 1.14677e+07)
(-4.22182e+07 -1.44878e+06 -3.50478e-12 -3.99304e+06 -5.08936e-12 -1.14659e+07)
(7.37389e+07 -4.3785e+06 -3.36581e-13 6.81546e+06 2.77617e-12 1.99872e+07)
(-7.37338e+07 -4.37565e+06 -1.94991e-12 -6.81278e+06 3.69965e-12 -1.99853e+07)
(9.8158e+07 -1.5373e+06 -2.09761e-12 135909 7.32215e-12 2.43887e+07)
(-9.81531e+07 -1.53718e+06 -1.25309e-12 -135903 3.57879e-12 -2.43875e+07)
(177039 -359085 1.2615e-14 994838 6.89988e-14 290766)
(-174905 -356793 -6.69137e-14 -994249 6.17252e-14 -290091)
(-1.15699e+08 -6.13512e+06 7.78491e-12 -1.62734e+06 6.98182e-12 -2.9111e+07)
(1.15705e+08 -6.13577e+06 -3.5605e-12 1.62747e+06 4.62796e-12 2.91126e+07)
(-2.87484e+07 1.56001e+06 1.24629e-12 -3.8061e+06 1.87056e-12 -8.07743e+06)
(7.43964e+07 -1.39545e+07 4.19743e-12 8.26475e+06 -2.87189e-12 2.05099e+07)
(-7.43843e+07 -1.39498e+07 -3.30113e-12 -8.26488e+06 -2.25477e-12 -2.05069e+07)
(7.18349e+07 -4.83946e+06 -6.19211e-13 7.20507e+06 1.16207e-12 1.96114e+07)
(-7.18299e+07 -4.83669e+06 1.5582e-12 -7.20228e+06 3.89418e-12 -1.96095e+07)
(-1.04216e+08 -783993 -4.97127e-12 16458.5 -1.71233e-12 -2.58541e+07)
(1.04221e+08 -783954 -2.67144e-12 -16451.6 1.45111e-12 2.58552e+07)
(-4.29229e+07 -1.79921e+06 2.92797e-12 -1.41673e+06 -5.71848e-13 -1.10016e+07)
(4.13608e+06 -3.0588e+06 5.52769e-12 193456 -4.27206e-13 1.07425e+06)
(-1.94111e+07 -2.92196e+06 -4.7953e-12 80010.1 2.75409e-12 -4.79644e+06)
(1.86001e+07 -2.80256e+06 2.82574e-12 180679 4.58151e-11 4.65988e+06)
(2.44636e+07 -1.57585e+07 1.42105e-13 1.29738e+07 1.34098e-13 9.28898e+06)
(-2.44595e+07 -1.57546e+07 -2.83439e-13 -1.29707e+07 -1.59839e-13 -9.28719e+06)
(2.14992e+07 8.68455e+06 -3.99218e-13 2.33524e+06 6.99659e-13 5.91382e+06)
(-8.7297e+06 -2.20162e+06 -8.67335e-14 -493121 -1.12284e-13 -2.28837e+06)
(-5.42738e+07 -411201 -3.83136e-12 -6.74627e+06 -3.07587e-12 -1.51403e+07)
(5.42712e+07 -410264 -4.03407e-12 6.74943e+06 6.22648e-13 1.51405e+07)
(-2.86789e+07 2.15008e+06 3.65046e-12 -3.94448e+06 7.34321e-13 -8.09452e+06)
(-1.93418e+07 -3.24636e+06 -5.85655e-12 -198999 -3.86752e-12 -4.84847e+06)
(922753 -3.5261e+06 3.17622e-12 -35992.8 7.02936e-12 220023)
(-3.16113e+07 -1.89617e+06 -2.17144e-12 -11512.9 -7.4853e-12 -7.84627e+06)
(-1.97889e+07 -165866 -9.14357e-12 -115467 1.89461e-11 -4.93869e+06)
(2.01181e+07 -66096.1 -3.49982e-12 425096 3.50457e-11 5.09719e+06)
(8.6389e+07 -9.375e+06 -3.91522e-14 7.07072e+06 1.52019e-12 2.31893e+07)
(-8.63823e+07 -9.3711e+06 2.15185e-12 -7.06838e+06 1.15075e-12 -2.3187e+07)
(3.48067e+06 -2.09746e+06 1.3814e-11 -152620 -2.53449e-13 825757)
(9.65849e+07 -9.58531e+06 -1.32423e-12 5.36174e+06 2.10456e-14 2.5295e+07)
(-9.65778e+07 -9.5826e+06 9.47936e-13 -5.36045e+06 -1.2217e-12 -2.52929e+07)
(5.34072e+07 -2.30156e+06 -5.11212e-12 449291 -1.67416e-12 1.33629e+07)
(3.76313e+07 -1.89256e+06 2.84934e-11 399708 -8.82179e-12 9.43626e+06)
(2.29993e+07 -3.6583e+06 -1.29075e-11 -175481 -4.34882e-12 5.66304e+06)
(9.69015e+07 -1.00328e+07 -9.93885e-14 6.34539e+06 1.63385e-12 2.56177e+07)
(-9.68946e+07 -1.003e+07 1.03579e-12 -6.34398e+06 3.87853e-13 -2.56156e+07)
(5.35565e+07 -389644 -4.88619e-12 6.64791e+06 5.19945e-12 1.49379e+07)
(-5.35537e+07 -387475 7.47078e-13 -6.64519e+06 2.20525e-12 -1.49366e+07)
(9.9002e+07 -896638 2.19448e-12 171072 2.86571e-12 2.46068e+07)
(-9.8997e+07 -896477 5.30816e-12 -171000 4.53137e-12 -2.46056e+07)
(2.3798e+07 3.0054e+06 -3.57229e-13 -1.34435e+06 1.89051e-13 5.5712e+06)
(-3.90756e+07 525902 -1.57523e-12 -2.55827e+06 5.15357e-14 -1.03302e+07)
(-2.9148e+07 -1.24748e+06 2.48335e-12 -2.43425e+06 -7.43168e-13 -7.83621e+06)
(2.36646e+07 -2.076e+06 -1.39392e-11 359481 -5.66429e-13 5.96085e+06)
(2.48076e+06 -1.46777e+06 8.26663e-12 32621.8 -1.47081e-12 623620)
(-8.01361e+07 -3.0443e+07 -7.80446e-13 -1.30887e+07 -7.60532e-13 -2.3131e+07)
(8.01492e+07 -3.04474e+07 2.11662e-12 1.30904e+07 -2.3427e-12 2.31346e+07)
(1.14618e+08 -1.44452e+07 -3.85655e-12 2.42504e+06 3.20059e-12 2.90408e+07)
(-1.1461e+08 -1.44436e+07 1.79213e-12 -2.42465e+06 6.37967e-13 -2.90386e+07)
(2.40416e+07 -1.52058e+07 -5.60495e-14 1.21725e+07 2.42718e-13 8.98546e+06)
(-2.40374e+07 -1.52019e+07 3.30508e-13 -1.21693e+07 2.70871e-13 -8.98361e+06)
(8.78161e+07 -1.01279e+07 3.39879e-13 7.64659e+06 5.05271e-13 2.36862e+07)
(-8.78092e+07 -1.01238e+07 2.396e-12 -7.64391e+06 2.87342e-12 -2.36839e+07)
(-1.77631e+07 -1.751e+06 -1.10251e-12 -177494 9.10461e-12 -4.45142e+06)
(-2.09261e+06 -1.57251e+06 2.51128e-14 -1.25399e+06 6.20944e-14 -830358)
(2.12702e+06 -1.5665e+06 -1.23412e-14 1.15068e+06 3.37571e-14 813265)
(-1.65787e+07 -1.15612e+06 1.45746e-13 -1.2454e+06 -1.48377e-13 -4.42253e+06)
(2.04307e+07 -2.56822e+06 -1.00033e-11 228013 -4.33458e-12 5.12584e+06)
(-1.04488e+08 68981 -7.76379e-12 -179553 -1.09148e-11 -2.59702e+07)
(1.04493e+08 68978.9 -2.01994e-13 179557 2.48424e-12 2.59714e+07)
(1.00645e+07 3.82218e+06 2.42784e-12 1.3928e+06 1.71774e-12 2.84278e+06)
(6.77105e+07 -2.92377e+06 2.52218e-12 2.1108e+06 -5.72739e-12 1.73241e+07)
(-6.77046e+07 -2.92257e+06 2.82692e-13 -2.11021e+06 -3.65253e-12 -1.73225e+07)
(-9.94989e+07 -1.666e+07 -7.21074e-13 -7.25758e+06 -1.41483e-12 -2.64885e+07)
(9.95087e+07 -1.66642e+07 -5.55587e-12 7.25949e+06 3.566e-12 2.64913e+07)
(-7.02624e+06 3.70022e+06 -2.46923e-12 -816380 -2.30768e-12 -1.94591e+06)
(1.02918e+08 -1.4687e+07 -2.36726e-12 5.97915e+06 2.47551e-12 2.70197e+07)
(-1.0291e+08 -1.46837e+07 -1.60304e-12 -5.97775e+06 -5.78434e-13 -2.70172e+07)
(-1.66678e+07 -564911 1.85685e-12 -912225 4.37932e-12 -4.36195e+06)
(-1.82783e+07 -2.14156e+06 -9.34229e-12 8394.46 -1.32971e-12 -4.53314e+06)
(4.92286e+07 223126 -3.31815e-12 6.12744e+06 3.63592e-12 1.3735e+07)
(4.38601e+07 -2.55761e+06 1.19681e-12 1.46618e+06 3.18416e-12 1.12464e+07)
(4.1382e+07 -2.39328e+07 2.2085e-13 1.70612e+07 4.22638e-13 1.45009e+07)
(-4.13753e+07 -2.39288e+07 -3.09309e-13 -1.70584e+07 -1.51361e-13 -1.44986e+07)
(5.19074e+07 -2.03443e+07 1.17973e-12 1.24927e+07 -1.20978e-12 1.5979e+07)
(-5.19023e+07 -2.03407e+07 -6.79761e-13 -1.24893e+07 -4.02033e-13 -1.59769e+07)
(-2.97924e+07 -3.1507e+06 2.96521e-12 -6339.18 -5.36512e-12 -7.39366e+06)
(-3.13879e+07 -856348 2.89955e-12 -2.3038e+06 -6.19825e-13 -8.35958e+06)
(-3.26018e+07 -645876 2.10367e-11 -365045 9.6557e-13 -8.17975e+06)
(3.25658e+07 -633192 -8.96189e-12 650359 8.55565e-12 8.24161e+06)
(3.09603e+07 -2.03236e+06 6.04902e-12 931019 -5.28915e-12 7.91288e+06)
(6.69039e+07 -3.01428e+06 6.26687e-12 2.12977e+06 -9.1544e-12 1.71287e+07)
(-6.6898e+07 -3.0131e+06 -2.74821e-12 -2.12922e+06 -2.50797e-12 -1.71271e+07)
(-6.07098e+07 -1.83353e+06 4.4649e-12 214027 4.08576e-12 -1.50102e+07)
(-2.51611e+07 -2.94417e+06 -9.96545e-12 -31487.2 -1.46692e-12 -6.25079e+06)
(-5.24867e+07 -1.42794e+06 9.54473e-12 -44688 3.53333e-12 -1.30341e+07)
(3.62035e+06 -3.30683e+06 1.02221e-11 422039 -1.13386e-11 1.003e+06)
(-6.19304e+07 -2.14615e+07 -5.54832e-13 -1.16149e+07 -4.74637e-13 -1.82481e+07)
(6.19397e+07 -2.14628e+07 -5.84515e-13 1.16163e+07 4.34193e-13 1.82507e+07)
(-9.03369e+07 -1.49729e+07 -4.03225e-13 -7.169e+06 -8.10138e-13 -2.41932e+07)
(9.03469e+07 -1.49778e+07 2.15629e-12 7.1714e+06 -2.27239e-12 2.41963e+07)
(-2.05716e+07 2.63141e+06 -3.4372e-13 -2.81768e+06 -1.68584e-12 -5.80337e+06)
(2.13265e+06 2.84161e+06 -1.66892e-12 246486 3.11632e-12 590312)
(5.87075e+06 -4.02172e+06 1.45475e-12 173045 4.825e-11 1.49959e+06)
(-1.16399e+08 -7.64025e+06 7.04308e-12 -1.89556e+06 6.07804e-12 -2.93513e+07)
(1.16405e+08 -7.64096e+06 2.39403e-13 1.89565e+06 4.54767e-13 2.93529e+07)
(-2.13744e+07 -3.09082e+06 -2.32116e-12 160209 4.16388e-11 -5.26367e+06)
(2.13117e+07 -2.81966e+06 0 314078 0 5.3658e+06)
(-3.32888e+07 -2.60872e+06 1.26852e-11 -518057 3.41628e-12 -8.38816e+06)
(2.69824e+06 -2.06924e+06 1.32807e-11 160433 -9.68113e-12 709296)
(-6.55371e+06 3.45287e+06 -3.29443e-12 -1.25276e+06 -1.72722e-12 -1.93694e+06)
(-2.18451e+07 -3.27811e+06 -2.43382e-12 146519 6.96832e-12 -5.38385e+06)
(1.05888e+07 4.76052e+06 3.86942e-13 1.85136e+06 1.54297e-13 3.08665e+06)
(-4.40216e+07 -2.56196e+06 1.02906e-12 -1.47909e+06 3.28941e-12 -1.12896e+07)
(-9.49828e+07 -1.55354e+07 -3.9886e-12 -6.36757e+06 -3.51434e-12 -2.51471e+07)
(9.49921e+07 -1.55396e+07 -2.56888e-12 6.36945e+06 2.74694e-12 2.51499e+07)
(-3.30624e+07 -2.14484e+06 -2.98396e-12 223944 -6.76922e-12 -8.14789e+06)
(-6.02766e+07 -2.14094e+06 -6.85436e-12 -262729 2.29842e-12 -1.5021e+07)
(-6.41737e+07 -1.71176e+06 1.94237e-12 -383810 -4.08892e-14 -1.6018e+07)
(-5.14165e+07 -393672 1.83204e-12 -6.9044e+06 2.26503e-12 -1.44706e+07)
(5.14153e+07 -391789 -1.24935e-12 6.90982e+06 3.0241e-12 1.44716e+07)
(-5.51284e+07 -1.58824e+06 -6.63006e-12 -30247.2 1.35258e-11 -1.3686e+07)
(-1.96712e+07 -3.16022e+06 4.61252e-12 20570.8 -7.16309e-12 -4.87572e+06)
(-9.03159e+07 -1.63555e+07 -3.13278e-12 -8.16481e+06 -3.47334e-12 -2.44351e+07)
(9.03255e+07 -1.63606e+07 2.11992e-13 8.16694e+06 -9.95699e-13 2.4438e+07)
(-2.76175e+07 3.38616e+06 -8.48076e-13 -3.70035e+06 2.55099e-12 -7.7706e+06)
(4.64918e+06 -2.75371e+06 -2.35848e-12 17947.1 -1.17263e-11 1.15801e+06)
(1.1536e+08 -1.46613e+07 1.79865e-12 3.78772e+06 -1.24024e-12 2.95629e+07)
(-1.15352e+08 -1.46596e+07 3.00079e-12 -3.78735e+06 2.91904e-12 -2.95608e+07)
(-6.81032e+07 -596108 -1.1842e-11 -23271.5 7.99169e-14 -1.69036e+07)
(-8.72914e+07 -1.7081e+07 1.11651e-12 -7.98163e+06 9.31048e-13 -2.36392e+07)
(8.73027e+07 -1.70862e+07 6.77621e-13 7.98336e+06 -7.41293e-13 2.36424e+07)
(-3.66999e+07 907520 6.30006e-13 -2.68152e+06 2.87846e-13 -9.77133e+06)
(3.2761e+07 -2.64432e+06 5.23596e-12 873048 3.96258e-12 8.3453e+06)
(-3.89477e+07 3.76936e+06 1.19588e-12 -4.5655e+06 1.75664e-13 -1.07965e+07)
(9.62646e+07 -1.00463e+06 3.81634e-12 -13284.1 -7.48748e-13 2.38819e+07)
(-9.62597e+07 -1.00427e+06 7.38508e-12 13286 7.01339e-12 -2.38807e+07)
(-1.86054e+07 -1.46255e+07 0 -1.29102e+07 0 -7.81968e+06)
(1.86093e+07 -1.4629e+07 -7.56667e-13 1.29127e+07 2.32055e-13 7.82125e+06)
(-2.46762e+07 77965.8 2.83512e-12 -2.13722e+06 1.2433e-12 -6.65296e+06)
(-6.71251e+07 -1.896e+06 -1.71279e-12 -148003 -3.4666e-12 -1.66918e+07)
(9.60581e+07 -384367 3.36694e-12 116587 -6.33848e-12 2.38629e+07)
(-9.60531e+07 -384021 4.13634e-12 -116600 5.24636e-12 -2.38617e+07)
(25400.1 -190451 0 112254 0 34154.8)
(-25231.4 -189513 1.32287e-15 -111740 1.42341e-15 -33985.4)
(2.08967e+07 9.7493e+06 -7.18177e-13 1.71064e+06 5.542e-14 5.60933e+06)
(-2.63152e+07 -714425 2.79812e-12 -2.35187e+06 -7.16692e-13 -7.11287e+06)
(-1.1129e+07 -5.73988e+06 -3.25341e-13 -1.83603e+06 2.15629e-14 -3.21689e+06)
(1.11331e+07 -5.73564e+06 1.91215e-13 1.83367e+06 8.49731e-14 3.21733e+06)
(-3.23583e+07 2.9629e+06 -1.71954e-12 -4.19531e+06 -2.11575e-12 -9.06969e+06)
(2.49528e+06 3.59342e+06 1.79764e-12 525136 -3.98629e-13 749427)
(6.88009e+06 -3.72226e+06 3.42729e-12 44376.4 3.17967e-12 1.7181e+06)
(-1.02631e+08 -3.21744e+06 2.6644e-12 -715507 1.86873e-12 -2.56425e+07)
(1.02637e+08 -3.21785e+06 3.66583e-12 715559 -5.56338e-12 2.56438e+07)
(-1.78853e+07 -1.51567e+06 1.16122e-11 -78304.8 -5.55126e-12 -4.45714e+06)
(-8.06156e+07 -2.95814e+07 1.02423e-12 -1.1641e+07 1.20952e-12 -2.28907e+07)
(8.06285e+07 -2.95856e+07 1.00173e-13 1.16423e+07 -8.22172e-14 2.28942e+07)
(-3.09551e+07 -1.48112e+06 -3.09785e-12 -46386.4 -1.41996e-11 -7.69209e+06)
(9.0429e+07 -4.43594e+06 -2.15854e-12 2.42729e+06 -1.79778e-12 2.30395e+07)
(-9.04233e+07 -4.43501e+06 4.79365e-12 -2.42691e+06 3.99206e-12 -2.3038e+07)
(7.43873e+07 -4.9699e+06 -7.19182e-13 7.20939e+06 -2.67167e-12 2.02458e+07)
(-7.43822e+07 -4.96639e+06 -2.77451e-12 -7.20629e+06 -3.13382e-12 -2.02438e+07)
(1.9177e+06 -2.87877e+06 2.63885e-14 4.72987e+06 -1.42269e-13 1.6494e+06)
(-1.91785e+06 -2.88021e+06 1.81208e-13 -4.73359e+06 1.33384e-13 -1.65036e+06)
(4.85723e+06 -2.85346e+06 -8.72506e-12 -443167 -1.60556e-11 1.09522e+06)
(9.3118e+07 -3.492e+06 -1.45892e-12 2.01244e+06 -5.45783e-12 2.36038e+07)
(-9.31123e+07 -3.49117e+06 -2.44822e-12 -2.01217e+06 -9.74642e-13 -2.36023e+07)
(-6.19428e+07 -1.65476e+06 -3.27037e-12 -85416.2 -2.60484e-12 -1.53904e+07)
(9.03219e+07 -2.51374e+06 4.07122e-12 661304 4.09587e-12 2.25748e+07)
(-9.03166e+07 -2.51332e+06 -1.73452e-12 -661203 3.5145e-12 -2.25734e+07)
(9.96281e+07 -211791 6.41393e-12 115735 -1.19511e-11 2.47485e+07)
(3.73256e+07 -2.07901e+06 2.95393e-13 307798 -4.69758e-12 9.33762e+06)
(-1.1194e+08 -1.72512e+07 5.02098e-12 -4.48935e+06 5.02198e-12 -2.88884e+07)
(1.11949e+08 -1.72534e+07 -5.02133e-12 4.48982e+06 5.02231e-12 2.88908e+07)
(3.97264e+07 3.21529e+06 3.24963e-12 5.34888e+06 -1.35762e-12 1.11841e+07)
(6.40201e+07 -2.04797e+06 -3.60258e-13 86364.9 2.17658e-12 1.59061e+07)
(6.33765e+07 -2.12347e+06 -1.18171e-11 166938 1.00481e-11 1.57664e+07)
(-5.04186e+07 -2.63004e+06 -1.09556e-12 -642645 1.73201e-12 -1.26693e+07)
(2.33076e+07 8.54717e+06 1.27606e-12 1.47621e+06 -4.75913e-13 6.14938e+06)
(294973 -3.93564e+06 1.10395e-11 527738 -1.20702e-11 204131)
(-3.45403e+07 5.3719e+06 1.02169e-12 -4.56764e+06 -6.49302e-13 -9.70347e+06)
(5.28294e+07 -828725 -7.8575e-13 -88721.8 9.39377e-12 1.3086e+07)
(-4.93501e+07 -2.10223e+06 7.58715e-13 -508421 -3.30321e-12 -1.23709e+07)
(-1.06964e+08 -7.60035e+06 -3.08174e-12 -3.95144e+06 -2.38535e-12 -2.75205e+07)
(1.06971e+08 -7.60183e+06 4.687e-12 3.95207e+06 -5.0076e-12 2.75223e+07)
(-2.29768e+07 -2.98699e+06 -7.8032e-12 139090 3.74934e-13 -5.66651e+06)
(-1.70715e+07 8.02541e+06 -1.22934e-12 -2.51871e+06 3.01166e-13 -4.86073e+06)
(-6.75443e+07 -342282 3.13516e-12 2833.92 1.12513e-12 -1.67584e+07)
(-6.83146e+07 -1.13026e+06 -7.92994e-12 -162842 -2.9603e-12 -1.69907e+07)
(8.21654e+07 -1.53298e+06 0 11998.4 0 2.03899e+07)
(-6.25831e+07 -584619 -6.67627e-12 -162772 -4.48553e-12 -1.55685e+07)
(5.43237e+07 -2.81854e+06 -6.58235e-12 2.17315e+06 -3.4348e-13 1.4018e+07)
(-5.43175e+07 -2.81841e+06 2.48889e-12 -2.17149e+06 -2.23045e-12 -1.40161e+07)
(2.14157e+07 3.99658e+06 8.18604e-13 -1.78321e+06 -3.65088e-13 4.87122e+06)
(3.66157e+06 6.38043e+06 -2.12656e-12 842345 1.00675e-12 1.11751e+06)
(5.77979e+07 539857 -9.89926e-12 446684 6.46042e-12 1.44517e+07)
(9.28396e+07 -1.81299e+06 3.06846e-12 643608 -4.05742e-13 2.31951e+07)
(-9.28343e+07 -1.81256e+06 -5.91867e-12 -643461 -4.85193e-12 -2.31937e+07)
(1.02045e+08 -1.4466e+07 -5.66338e-12 5.29597e+06 6.66216e-12 2.66334e+07)
(-1.02036e+08 -1.4463e+07 -2.79539e-13 -5.29479e+06 -1.53335e-12 -2.6631e+07)
(7.71643e+06 -1.73381e+06 -1.07913e-12 238010 3.81677e-12 1.97366e+06)
(-1.46886e+07 8.66596e+06 -4.82758e-12 -1.63891e+06 -7.39212e-13 -4.05118e+06)
(7.93134e+07 -2.67036e+07 -1.98616e-13 1.2265e+07 1.70416e-13 2.27225e+07)
(-7.93004e+07 -2.67002e+07 1.36224e-13 -1.22642e+07 -2.07725e-13 -2.2719e+07)
(4.01377e+07 -1.15076e+06 2.26659e-11 687611 -1.16569e-12 1.01296e+07)
(-2.32318e+07 -1.82247e+06 8.5199e-12 -1.01621e+06 3.30823e-12 -6.01643e+06)
(-4.34774e+07 -1.62398e+06 1.13894e-12 65767.7 3.53419e-12 -1.07713e+07)
(1.02238e+07 -1.87163e+06 -5.91252e-12 183494 1.59326e-12 2.58226e+06)
(5.98515e+06 -2.60687e+06 -2.20102e-12 -112185 -1.02776e-11 1.4572e+06)
(-6.27394e+07 -2.07227e+07 -5.24006e-14 -1.08397e+07 -1.50248e-13 -1.82565e+07)
(6.27489e+07 -2.07237e+07 -3.30855e-14 1.08408e+07 1.16346e-13 1.82591e+07)
(-5.42492e+07 -2.03884e+06 -7.14727e-12 -1.49257e+06 -7.10128e-12 -1.38307e+07)
(5.42575e+07 -2.04016e+06 1.17794e-12 1.48947e+06 -8.97523e-12 1.3832e+07)
(4.58285e+07 -2.67455e+06 -2.23558e-11 -287068 -3.86241e-12 1.12998e+07)
(-5.63635e+07 -2.17032e+06 2.30118e-12 -12667.7 4.87053e-12 -1.39881e+07)
(1.12996e+07 -3.23231e+06 3.03886e-11 -163930 -2.69976e-11 2.76299e+06)
(-1.10495e+07 -3.09892e+06 -4.58088e-12 31520.7 -7.43143e-13 -2.73379e+06)
(-23088.3 -74005.1 -2.04761e-14 -845676 -2.265e-14 -215558)
(22542.9 -73366.7 -2.17682e-14 849415 2.20859e-14 216350)
(-2.33587e+07 -2.36247e+06 -6.07931e-12 -69932.6 -4.65865e-12 -5.81313e+06)
(-2.91052e+07 -2.02015e+06 1.44789e-11 -177454 1.06645e-11 -7.26561e+06)
(1.33913e+07 1.15121e+07 -3.02266e-12 455418 1.36811e-13 3.43566e+06)
(4.62168e+07 -4.50261e+06 -2.63873e-14 4.89606e+06 -2.4098e-13 1.26822e+07)
(2.5563e+06 -1.52949e+06 -8.78295e-12 -326841 -9.05141e-12 553173)
(-2.24396e+07 -3.01561e+06 3.91122e-12 -198367 -5.06978e-13 -5.61693e+06)
(-8.84495e+07 -5.31161e+06 -6.17255e-13 -4.15036e+06 -4.167e-12 -2.29759e+07)
(8.84553e+07 -5.31289e+06 2.77284e-12 4.15105e+06 -1.4799e-12 2.29775e+07)
(-1.02704e+08 -1.12649e+06 0 19272.8 0 -2.54781e+07)
(1.02709e+08 -1.12655e+06 -1.54667e-12 -19280.7 3.31805e-12 2.54793e+07)
(-4.98914e+07 -2.18072e+06 -5.2059e-12 87998.8 6.79144e-12 -1.23572e+07)
(6.64257e+07 -2.11852e+06 2.94887e-12 102440 1.23119e-12 1.6507e+07)
(-9.61677e+07 -991722 3.09758e-12 87020.8 -3.39874e-13 -2.38396e+07)
(9.61726e+07 -991840 0 -86925 0 2.38408e+07)
(1.49009e+06 -1.69691e+06 -1.25927e-13 2.35415e+06 4.51033e-14 953835)
(8.59328e+06 1.09218e+07 -1.30225e-12 611303 -1.57561e-15 2.28384e+06)
(-8.87095e+07 -1.28409e+07 9.6085e-13 -7.05001e+06 3.10497e-13 -2.37599e+07)
(8.87175e+07 -1.28455e+07 0 7.05235e+06 0 2.37624e+07)
(-1.34665e+07 -367265 -1.97984e-13 2.66597e+06 2.23603e-14 -2.67982e+06)
(1.51903e+07 -7.30578e+06 3.63749e-14 2.72911e+06 -2.59488e-14 4.44617e+06)
(-1.51829e+07 -7.30235e+06 -1.44078e-14 -2.73665e+06 1.63568e-13 -4.4462e+06)
(3.26402e+07 2.54013e+06 -4.97554e-12 4.81592e+06 2.2784e-12 9.29363e+06)
(3.34369e+07 -2.66531e+06 -9.95975e-12 312900 -6.90073e-13 8.374e+06)
(-6.46823e+06 -3.87494e+06 -3.98646e-12 418689 -1.08526e-11 -1.50101e+06)
(-203607 -1.94887e+06 2.69615e-11 579349 8.53059e-12 93229.1)
(-910.994 23248.8 5.02384e-14 495682 -6.5206e-14 122763)
(923.497 22253.5 -5.01889e-14 -493943 -6.50307e-14 -122328)
(936783 -2.51502e+06 1.71722e-13 6.67243e+06 1.74728e-13 1.888e+06)
(-937416 -2.51677e+06 4.14058e-13 -6.67758e+06 1.99046e-13 -1.88943e+06)
(4.50484e+07 -2.59395e+06 4.87383e-12 174035 -2.31715e-12 1.12206e+07)
(-5.03269e+07 -2.40147e+06 -1.8978e-12 -3.76472e+06 -6.72241e-12 -1.34212e+07)
(5.03335e+07 -2.40362e+06 5.52023e-13 3.76503e+06 8.94611e-14 1.34229e+07)
(1.41945e+06 253301 -5.41928e-12 144217 -4.5077e-12 387977)
(3.26628e+07 -2.92789e+06 2.13387e-12 142272 -4.9724e-12 8.13959e+06)
(1.94814e+06 -2.43821e+06 -5.52549e-14 2.87813e+06 -2.88084e-14 1.1975e+06)
(-1.95009e+06 -2.44832e+06 -8.64956e-14 -2.88503e+06 -7.47422e-14 -1.19969e+06)
(-4.07915e+07 2.42279e+06 1.04711e-12 -6.16746e+06 -2.06602e-12 -1.16515e+07)
(-2.74296e+07 5.91271e+06 1.10698e-12 127532 7.47072e-13 -6.7742e+06)
(-2.18823e+07 1.48137e+06 -7.2654e-13 2.56384e+06 -4.3829e-13 -4.79331e+06)
(3.39296e+07 -3.05249e+06 -9.41213e-13 -51438.1 1.45258e-12 8.40585e+06)
(-7.82302e+07 -417397 5.88109e-12 -114394 -7.35169e-13 -1.94389e+07)
(1.04257e+07 -2.45969e+06 -1.57976e-12 19575.5 -7.53471e-12 2.59168e+06)
(4.56962e+07 1.73713e+06 -3.98813e-12 5.34465e+06 3.82231e-12 1.26643e+07)
(-5.48381e+07 -3.50367e+06 5.78009e-13 -6.12515e+06 8.28135e-13 -1.51262e+07)
(-1.92676e+07 5.92006e+06 -1.30728e-13 -2.67218e+06 4.99214e-13 -5.44371e+06)
(5.48325e+07 -3.41843e+06 -2.68527e-12 6.02666e+06 1.98591e-12 1.51004e+07)
(-8.90978e+07 -882144 -7.29527e-12 478073 -1.79736e-13 -2.19884e+07)
(8.99671e+06 -2.16073e+06 -3.32817e-13 723852 1.82525e-13 2.41187e+06)
(3.8075e+07 -1.75205e+06 -9.8988e-12 243913 -3.19214e-12 9.50769e+06)
(-3.2618e+07 -2.26874e+07 -5.61097e-13 -1.84873e+07 -1.73823e-13 -1.26803e+07)
(3.26234e+07 -2.26912e+07 -9.34871e-13 1.84908e+07 5.32767e-13 1.26825e+07)
(-1.771e+07 -830847 7.54385e-13 -1.44955e+06 2.80615e-12 -4.75386e+06)
(1.14343e+07 1.03312e+07 -2.1107e-12 900945 8.50426e-14 3.06063e+06)
(8.41339e+07 -7.66367e+06 -1.23934e-13 6.80639e+06 7.22982e-13 2.25641e+07)
(-8.4128e+07 -7.6604e+06 -1.60502e-12 -6.80429e+06 -8.06625e-13 -2.25621e+07)
(-6.55188e+07 -681913 2.54973e-11 513053 1.84805e-12 -1.61292e+07)
(6.58242e+07 -660840 -1.38986e-11 -535340 2.04611e-11 1.61995e+07)
(66286.2 -178774 0 132383 0 49293.8)
(-65935.4 -177894 2.18225e-15 -131784 1.66411e-14 -49058.2)
(-3.55534e+07 5.06816e+06 -2.1543e-12 -4.00251e+06 -1.76244e-12 -9.81463e+06)
(1.90837e+07 -1.82341e+07 -5.93551e-13 1.78746e+07 2.55354e-13 9.1701e+06)
(-1.90798e+07 -1.82302e+07 1.26323e-12 -1.78707e+07 8.00143e-13 -9.16818e+06)
(-2.79746e+07 -1.15909e+06 -3.12501e-12 405326 1.55887e-11 -6.84048e+06)
(1.30923e+07 -1.54803e+06 2.99884e-12 353327 6.80091e-12 3.33613e+06)
(-5.05906e+07 -2.60515e+06 3.84013e-12 -402770 -6.62055e-12 -1.26525e+07)
(5.0614e+07 -2.6235e+06 -5.95522e-13 354654 7.71105e-12 1.26464e+07)
(9.58517e+07 -3.81348e+06 4.36589e-13 1.85565e+06 -1.90169e-12 2.42432e+07)
(-9.58461e+07 -3.81272e+06 -2.68135e-12 -1.85536e+06 -1.08227e-12 -2.42417e+07)
(-36084.2 -6456.74 2.85176e-14 127907 -1.24741e-13 22783)
(36104.7 -6385.28 -2.11359e-14 -126805 -4.46073e-14 -22504.5)
(6.33447e+06 1.26104e+07 -7.81989e-13 -168738 -4.34266e-13 1.52984e+06)
(-1.11711e+08 -6.64794e+06 4.92856e-12 -3.10926e+06 1.28607e-12 -2.84893e+07)
(1.11718e+08 -6.64894e+06 -5.52806e-12 3.10966e+06 9.52777e-12 2.8491e+07)
(-5.84753e+06 -2.19154e+06 8.77137e-13 -64411.5 -4.08099e-12 -1.46687e+06)
(-4.3805e+07 -108174 1.55848e-12 -3.56942e+06 8.9461e-13 -1.17546e+07)
(-9.31572e+07 -580979 1.66416e-12 -203425 2.96418e-12 -2.31647e+07)
(9.31622e+07 -581266 -4.91975e-12 203517 7.41057e-12 2.31659e+07)
(-9.82773e+07 -2.24394e+07 6.94632e-14 -8.04329e+06 -1.10657e-13 -2.63803e+07)
(9.82895e+07 -2.2444e+07 1.998e-12 8.04496e+06 -1.33747e-12 2.63837e+07)
(1.88765e+07 -3.38323e+06 -9.38577e-12 -232222 2.15153e-11 4.62604e+06)
(-4.05919e+07 -2.81536e+06 4.23554e-12 203734 2.67535e-12 -1.00211e+07)
(-6.63034e+06 1.075e+07 1.18977e-12 -678025 -5.26047e-13 -1.81335e+06)
(-2.82472e+07 -1.83327e+07 -5.53849e-13 -1.39599e+07 -3.31736e-13 -1.04724e+07)
(2.82518e+07 -1.83363e+07 5.54021e-13 1.39636e+07 -3.31651e-13 1.04745e+07)
(-1.10516e+08 -6.06841e+06 -3.62167e-12 -1.90298e+06 -2.86572e-12 -2.78934e+07)
(1.10522e+08 -6.0691e+06 -2.2905e-12 1.90312e+06 6.24961e-13 2.78949e+07)
(-1.85139e+07 9.46971e+06 -1.8802e-12 -1.00006e+06 -3.45525e-13 -4.84182e+06)
(-6.23126e+07 -2.31949e+06 0 -469635 0 -1.55775e+07)
(-2.29001e+07 1.73101e+06 -1.74989e-13 1.43889e+06 -1.16457e-13 -5.32496e+06)
(-6.32921e+07 -1.83577e+06 9.51973e-12 181093 -3.75886e-12 -1.56591e+07)
(-6.29428e+07 -1.9045e+06 -6.07843e-12 -420784 -8.68459e-12 -1.57218e+07)
(-3.75971e+07 1.4961e+06 -2.3082e-12 -5.37625e+06 -1.5315e-12 -1.06626e+07)
(-4.13115e+07 -594760 7.15965e-12 -83526.4 -5.49354e-12 -1.0271e+07)
(4.14003e+07 -821564 4.01612e-12 4.3625e+06 -2.82463e-12 1.13547e+07)
(3.15888e+07 -1.94943e+06 4.36024e-12 71486 -5.36317e-12 7.85555e+06)
(-4.1391e+07 -822261 3.02523e-12 -4.36421e+06 1.33232e-12 -1.13528e+07)
(1.08571e+08 -1.36266e+07 3.33092e-12 5.20054e+06 -2.07138e-12 2.82289e+07)
(-1.08562e+08 -1.36241e+07 1.51057e-12 -5.19957e+06 6.12783e-13 -2.82266e+07)
(-3.3273e+07 5.02451e+06 -3.85243e-13 -4.71499e+06 1.64051e-12 -9.42559e+06)
(1.30028e+07 2.72319e+06 -1.66567e-12 2.07016e+06 1.23948e-12 3.73991e+06)
(1.79878e+07 -2.04698e+06 -1.3092e-12 139569 2.22845e-11 4.49776e+06)
(-6.45825e+07 -2.43004e+06 5.97754e-12 45897.6 -3.36253e-12 -1.60128e+07)
(-5.19347e+07 -743444 -1.47572e-12 -6.46118e+06 -8.30599e-13 -1.44892e+07)
(-3.63841e+06 4.15367e+06 1.44862e-13 1.1977e+06 -9.6694e-14 -605588)
(-3.26423e+07 6.34307e+06 -1.77669e-12 -3.85814e+06 -4.0966e-13 -9.0565e+06)
(1.22121e+07 -2.59305e+06 2.569e-11 50654.2 -2.28536e-11 3.04263e+06)
(4.39218e+07 -137292 6.8549e-13 3.73851e+06 -1.31129e-12 1.18255e+07)
(4.56859e+06 -3.81404e+06 -6.80881e-12 153083 -2.07428e-11 1.17154e+06)
(1.97711e+06 1.16226e+07 -7.05306e-13 116390 5.3995e-13 519440)
(-9.60975e+06 -3.3613e+06 1.219e-12 86828.6 -1.24106e-11 -2.36283e+06)
(4.02529e+07 -1.83517e+06 6.39648e-13 423790 3.90471e-12 1.00927e+07)
(2.18593e+07 -1.71682e+06 -1.54105e-11 441904 -2.82765e-13 5.53339e+06)
(-9.18368e+07 -683805 -9.69161e-12 -29696.4 -1.28585e-11 -2.27939e+07)
(-4.32238e+07 -1.68655e+06 0 -374811 0 -1.08177e+07)
(7.37828e+07 -5.50804e+06 7.92624e-13 7.62138e+06 -1.72477e-12 2.0198e+07)
(-7.37778e+07 -5.50457e+06 -9.22013e-13 -7.61812e+06 -1.4935e-12 -2.0196e+07)