/*--------------------------------*- C++ -*----------------------------------*\
| =========                 |                                                 |
| \\      /  F ield         | OpenFOAM: The Open Source CFD Toolbox           |
|  \\    /   O peration     | Version:  v3.0+                                 |
|   \\  /    A nd           | Web:      www.OpenFOAM.com                      |
|    \\/     M anipulation  |                                                 |
\*---------------------------------------------------------------------------*/
FoamFile
{
    version     2.0;
    format      ascii;
    class       volScalarField;
    location    "8000";
    object      sigmayz;
}
// * * * * * * * * * * * * * * * * * * * * * * * * * * * * * * * * * * * * * //

dimensions      [1 -1 -2 0 0 0 0];

internalField   nonuniform List<scalar> 
27023
(
-2.13512e-14
-1.7902e-13
-2.07237e-13
1.60318e-13
0
1.62999e-13
-4.28606e-12
-1.03405e-12
7.05484e-14
-1.36977e-13
1.20446e-12
-5.51136e-13
-1.4014e-13
-3.76742e-14
3.37801e-12
-7.58505e-13
-3.85486e-13
0
-1.90722e-12
0
1.02491e-12
-1.06271e-12
-3.17018e-12
-1.46872e-12
-2.43003e-13
-5.47648e-13
2.83922e-13
2.16721e-11
7.24691e-13
6.43547e-12
-5.29292e-12
-2.0958e-12
4.1576e-12
2.27685e-12
4.1377e-12
2.06625e-12
-1.47082e-12
2.94156e-12
-1.80234e-13
-1.29267e-13
-6.79921e-14
2.61991e-14
-5.48785e-12
-1.40825e-13
-1.40682e-13
-1.46187e-12
-2.22703e-12
1.83469e-12
1.83475e-12
1.22007e-12
-1.09646e-12
-1.86378e-13
1.08939e-12
2.43992e-14
8.47868e-14
3.58344e-12
7.76511e-12
3.34287e-12
2.00986e-12
3.65517e-13
-2.35923e-13
7.11362e-12
-1.75453e-12
2.2702e-11
-1.74353e-11
1.04518e-12
-5.58752e-12
1.96193e-13
-9.28525e-13
-2.45802e-12
0
-5.08936e-12
2.77617e-12
3.69965e-12
7.32215e-12
3.57879e-12
6.89988e-14
6.17252e-14
6.98182e-12
4.62796e-12
1.87056e-12
-2.87189e-12
-2.25477e-12
1.16207e-12
3.89418e-12
-1.71233e-12
1.45111e-12
-5.71848e-13
-4.27206e-13
2.75409e-12
4.58151e-11
1.34098e-13
-1.59839e-13
6.99659e-13
-1.12284e-13
-3.07587e-12
6.22648e-13
7.34321e-13
-3.86752e-12
7.02936e-12
-7.4853e-12
1.89461e-11
3.50457e-11
1.52019e-12
1.15075e-12
-2.53449e-13
2.10456e-14
-1.2217e-12
-1.67416e-12
-8.82179e-12
-4.34882e-12
1.63385e-12
3.87853e-13
5.19945e-12
2.20525e-12
2.86571e-12
4.53137e-12
1.89051e-13
5.15357e-14
-7.43168e-13
-5.66429e-13
-1.47081e-12
-7.60532e-13
-2.3427e-12
3.20059e-12
6.37967e-13
2.42718e-13
2.70871e-13
5.05271e-13
2.87342e-12
9.10461e-12
6.20944e-14
3.37571e-14
-1.48377e-13
-4.33458e-12
-1.09148e-11
2.48424e-12
1.71774e-12
-5.72739e-12
-3.65253e-12
-1.41483e-12
3.566e-12
-2.30768e-12
2.47551e-12
-5.78434e-13
4.37932e-12
-1.32971e-12
3.63592e-12
3.18416e-12
4.22638e-13
-1.51361e-13
-1.20978e-12
-4.02033e-13
-5.36512e-12
-6.19825e-13
9.6557e-13
8.55565e-12
-5.28915e-12
-9.1544e-12
-2.50797e-12
4.08576e-12
-1.46692e-12
3.53333e-12
-1.13386e-11
-4.74637e-13
4.34193e-13
-8.10138e-13
-2.27239e-12
-1.68584e-12
3.11632e-12
4.825e-11
6.07804e-12
4.54767e-13
4.16388e-11
0
3.41628e-12
-9.68113e-12
-1.72722e-12
6.96832e-12
1.54297e-13
3.28941e-12
-3.51434e-12
2.74694e-12
-6.76922e-12
2.29842e-12
-4.08892e-14
2.26503e-12
3.0241e-12
1.35258e-11
-7.16309e-12
-3.47334e-12
-9.95699e-13
2.55099e-12
-1.17263e-11
-1.24024e-12
2.91904e-12
7.99169e-14
9.31048e-13
-7.41293e-13
2.87846e-13
3.96258e-12
1.75664e-13
-7.48748e-13
7.01339e-12
0
2.32055e-13
1.2433e-12
-3.4666e-12
-6.33848e-12
5.24636e-12
0
1.42341e-15
5.542e-14
-7.16692e-13
2.15629e-14
8.49731e-14
-2.11575e-12
-3.98629e-13
3.17967e-12
1.86873e-12
-5.56338e-12
-5.55126e-12
1.20952e-12
-8.22172e-14
-1.41996e-11
-1.79778e-12
3.99206e-12
-2.67167e-12
-3.13382e-12
-1.42269e-13
1.33384e-13
-1.60556e-11
-5.45783e-12
-9.74642e-13
-2.60484e-12
4.09587e-12
3.5145e-12
-1.19511e-11
-4.69758e-12
5.02198e-12
5.02231e-12
-1.35762e-12
2.17658e-12
1.00481e-11
1.73201e-12
-4.75913e-13
-1.20702e-11
-6.49302e-13
9.39377e-12
-3.30321e-12
-2.38535e-12
-5.0076e-12
3.74934e-13
3.01166e-13
1.12513e-12
-2.9603e-12
0
-4.48553e-12
-3.4348e-13
-2.23045e-12
-3.65088e-13
1.00675e-12
6.46042e-12
-4.05742e-13
-4.85193e-12
6.66216e-12
-1.53335e-12
3.81677e-12
-7.39212e-13
1.70416e-13
-2.07725e-13
-1.16569e-12
3.30823e-12
3.53419e-12
1.59326e-12
-1.02776e-11
-1.50248e-13
1.16346e-13
-7.10128e-12
-8.97523e-12
-3.86241e-12
4.87053e-12
-2.69976e-11
-7.43143e-13
-2.265e-14
2.20859e-14
-4.65865e-12
1.06645e-11
1.36811e-13
-2.4098e-13
-9.05141e-12
-5.06978e-13
-4.167e-12
-1.4799e-12
0
3.31805e-12
6.79144e-12
1.23119e-12
-3.39874e-13
0
4.51033e-14
-1.57561e-15
3.10497e-13
0
2.23603e-14
-2.59488e-14
1.63568e-13
2.2784e-12
-6.90073e-13
-1.08526e-11
8.53059e-12
-6.5206e-14
-6.50307e-14
1.74728e-13
1.99046e-13
-2.31715e-12
-6.72241e-12
8.94611e-14
-4.5077e-12
-4.9724e-12
-2.88084e-14
-7.47422e-14
-2.06602e-12
7.47072e-13
-4.3829e-13
1.45258e-12
-7.35169e-13
-7.53471e-12
3.82231e-12
8.28135e-13
4.99214e-13
1.98591e-12
-1.79736e-13
1.82525e-13
-3.19214e-12
-1.73823e-13
5.32767e-13
2.80615e-12
8.50426e-14
7.22982e-13
-8.06625e-13
1.84805e-12
2.04611e-11
0
1.66411e-14
-1.76244e-12
2.55354e-13
8.00143e-13
1.55887e-11
6.80091e-12
-6.62055e-12
7.71105e-12
-1.90169e-12
-1.08227e-12
-1.24741e-13
-4.46073e-14
-4.34266e-13
1.28607e-12
9.52777e-12
-4.08099e-12
8.9461e-13
2.96418e-12
7.41057e-12
-1.10657e-13
-1.33747e-12
2.15153e-11
2.67535e-12
-5.26047e-13
-3.31736e-13
-3.31651e-13
-2.86572e-12
6.24961e-13
-3.45525e-13
0
-1.16457e-13
-3.75886e-12
-8.68459e-12
-1.5315e-12
-5.49354e-12
-2.82463e-12
-5.36317e-12
1.33232e-12
-2.07138e-12
6.12783e-13
1.64051e-12
1.23948e-12
2.22845e-11
-3.36253e-12
-8.30599e-13
-9.6694e-14
-4.0966e-13
-2.28536e-11
-1.31129e-12
-2.07428e-11
5.3995e-13
-1.24106e-11
3.90471e-12
-2.82765e-13
-1.28585e-11
0
-1.72477e-12
-1.4935e-12
6.34729e-13
4.55112e-12
-2.52362e-13
9.89261e-14
3.77827e-13
-1.22885e-13
-6.00385e-13
3.63192e-12
-1.08785e-12
-8.70784e-13
1.03302e-14
-2.77642e-14
-1.41365e-11
-6.337e-12
4.64255e-13
1.61144e-12
-6.67081e-12
-4.54013e-12
0
-4.49844e-12
-1.42687e-13
3.22166e-12
1.65509e-11
-2.41696e-12
0
3.28175e-12
-4.66081e-12
-1.11239e-13
-6.30726e-13
0
-3.72592e-12
8.8563e-12
-1.85569e-12
-2.23777e-12
9.81665e-12
-2.094e-14
-1.96118e-13
-2.06419e-13
-1.15714e-11
-4.5247e-13
8.04136e-13
-5.24479e-12
-1.31863e-14
-1.9019e-15
-2.02036e-12
4.47859e-12
-7.79353e-13
-2.79742e-13
-2.3005e-13
-3.83939e-13
-3.83913e-13
-1.14739e-12
-9.89577e-13
-3.44004e-12
2.98694e-12
-1.049e-12
9.99645e-13
2.93609e-13
-9.61221e-14
2.42559e-13
-7.18791e-12
3.1181e-12
1.2697e-11
-7.17089e-13
-4.19919e-12
-1.44702e-12
4.61226e-12
9.15085e-12
2.00843e-11
0
-2.22179e-12
-1.65491e-12
-7.76599e-12
0
-2.52058e-13
1.97552e-11
-1.22814e-11
4.89068e-14
1.49917e-13
5.75692e-12
4.07572e-12
3.29075e-14
-4.2201e-12
-3.56993e-12
4.29388e-13
2.80444e-12
1.31301e-11
-5.67964e-12
-2.07276e-12
6.1454e-13
-4.6574e-13
3.66993e-12
4.7338e-12
1.24957e-12
1.10137e-12
-8.67773e-14
-2.66843e-13
4.8849e-12
4.72765e-13
1.71015e-13
3.30266e-14
9.01055e-12
-5.83328e-13
-3.39165e-13
3.55851e-12
1.57484e-12
-2.10154e-12
2.12582e-12
1.52793e-12
-1.53123e-12
-1.82531e-12
-4.21836e-13
-1.79702e-12
-2.16014e-12
2.26684e-12
4.86677e-12
1.55736e-12
-2.34363e-12
2.54137e-12
1.27066e-12
-2.50426e-12
-3.4112e-12
-2.1163e-12
-2.75776e-12
6.97621e-14
1.32956e-12
1.77603e-12
8.97032e-14
-2.10548e-11
-2.00023e-12
-3.22706e-12
-2.8854e-13
-1.13316e-12
-1.02203e-12
-3.02627e-12
2.70861e-12
5.81838e-12
-9.3792e-13
-1.04503e-12
9.64479e-12
7.68696e-13
-5.43689e-14
-3.14772e-11
1.56394e-13
-3.41913e-13
6.3313e-12
-2.28637e-12
5.19183e-12
1.14461e-13
-4.08813e-12
1.70546e-12
1.93401e-12
-7.35687e-13
1.14173e-11
1.60574e-11
3.57629e-12
4.87349e-14
2.41712e-12
6.19231e-13
-7.18277e-13
-9.82853e-14
1.87643e-12
-6.23422e-12
-2.48618e-13
0
0
-4.5651e-13
5.93888e-14
-1.31184e-12
-1.19842e-11
1.49861e-13
0
1.49474e-12
-2.46206e-12
-1.61898e-13
5.31177e-13
8.33313e-12
-4.62588e-12
1.39069e-12
7.69043e-12
1.41426e-12
0
8.10861e-12
7.33787e-13
2.28222e-12
-1.21726e-11
2.09682e-12
-5.37199e-14
0
1.05766e-11
-2.6498e-12
-3.57258e-12
-6.39408e-12
8.42495e-13
-3.66535e-13
-2.43273e-11
-3.64823e-12
-2.06951e-12
2.52856e-12
2.91475e-12
5.21103e-12
-3.38383e-12
1.70231e-12
3.78027e-13
4.3034e-12
9.11552e-13
1.86008e-12
-2.63409e-14
-2.63423e-14
2.03081e-12
1.62032e-12
6.11725e-12
-1.78592e-12
-3.16417e-11
-3.25814e-11
1.55514e-12
2.3031e-12
-5.12805e-12
-9.11829e-16
-1.32149e-14
2.10647e-15
1.51037e-15
3.26424e-12
-3.48155e-14
6.628e-14
0
2.08034e-13
-1.58871e-13
-1.58744e-13
2.89704e-14
-3.14829e-13
1.52919e-12
-9.82757e-13
-8.31938e-13
-5.27406e-13
-3.58659e-11
1.65328e-12
1.63468e-13
-7.73947e-12
-1.14269e-12
-3.45297e-12
1.36856e-12
2.32424e-12
4.80833e-12
-8.81848e-13
3.18979e-13
-1.0621e-12
0
-5.04985e-12
-2.74805e-12
3.201e-12
0
4.92723e-13
-1.34306e-12
-2.92562e-12
2.86869e-13
7.32425e-15
1.94891e-14
4.01795e-12
-5.84979e-12
3.81625e-12
-3.25546e-12
5.22372e-12
4.89898e-12
-1.31819e-12
-1.8375e-12
0
-1.37233e-11
1.76384e-14
-2.14713e-12
3.25178e-12
-6.57308e-15
1.67528e-12
-8.90022e-12
1.43697e-12
8.15444e-12
5.6949e-12
0
-1.78844e-11
-2.84925e-14
-1.64346e-14
-3.73974e-13
2.31715e-12
-4.19241e-13
-1.54505e-12
-7.70148e-12
-1.03054e-11
-1.18977e-11
-4.90738e-12
9.78062e-14
-3.08788e-12
1.70866e-11
7.92938e-12
-2.34112e-13
2.68321e-13
9.16296e-15
2.47752e-12
-2.17485e-13
6.27316e-13
-9.44908e-12
-4.78413e-12
2.392e-12
1.16391e-13
7.48211e-13
1.27705e-15
1.18608e-14
-5.75227e-12
-1.13756e-12
-4.73789e-12
-1.20909e-12
-4.72858e-13
7.70183e-13
3.17544e-11
-6.57739e-14
-1.23986e-13
0
-4.90413e-12
-7.81432e-12
5.81478e-13
4.40699e-13
9.03813e-14
6.30074e-12
4.76392e-12
-4.92425e-12
-1.48573e-11
-3.15149e-12
0
-2.13416e-12
-8.57194e-12
-8.98512e-13
4.24641e-12
2.60615e-12
1.75769e-12
1.98535e-12
5.09489e-15
1.98657e-12
1.35189e-13
1.48883e-15
5.56582e-12
-9.45409e-13
-4.28879e-12
-2.0991e-14
-1.34408e-12
-1.51569e-13
1.07834e-11
1.9439e-12
-4.14227e-13
-6.40393e-13
-8.87286e-13
2.44155e-12
5.13879e-12
1.01395e-11
4.31254e-12
0
-6.45732e-12
2.28718e-12
-1.95547e-11
2.4138e-12
-8.44753e-12
2.49046e-13
-3.3204e-13
-5.38561e-12
3.87221e-12
-1.36591e-12
2.94234e-13
3.8066e-12
-1.71067e-12
-6.88487e-12
-2.4734e-15
-7.02855e-12
-1.34496e-12
3.25586e-13
6.50421e-13
2.66124e-12
-7.3799e-12
5.23822e-12
4.24663e-12
0
2.75227e-12
-1.01754e-12
2.12469e-13
0
4.58037e-12
-2.24468e-13
-4.11974e-12
-3.39599e-12
9.42123e-12
2.14699e-12
1.56639e-13
0
0
7.99133e-12
4.50059e-12
3.07881e-12
-2.06541e-12
-3.10007e-11
-1.22725e-14
0
2.85229e-12
-4.56476e-12
-1.30724e-12
-2.33456e-12
4.57603e-12
-1.87066e-11
2.20076e-14
-3.40522e-12
3.19005e-12
3.37321e-13
-4.09091e-13
-1.79632e-12
3.3423e-13
5.17348e-14
-1.00471e-11
5.63127e-12
2.71741e-13
3.02979e-12
7.3254e-13
1.87489e-12
-1.65747e-12
-5.0325e-12
-5.207e-12
0
-6.49748e-12
2.93777e-12
9.67359e-13
-2.84132e-13
-5.34582e-13
-5.99722e-12
5.28203e-13
6.29975e-12
5.54664e-12
9.79628e-13
3.44674e-12
1.65601e-11
-1.61924e-12
-1.08859e-13
6.46812e-13
-1.99769e-12
-9.00163e-13
2.96414e-12
6.69366e-12
0
-4.65025e-13
4.03718e-13
2.68552e-12
-9.13502e-13
4.05117e-12
3.05141e-12
-2.85702e-12
-7.68364e-13
-1.89425e-13
-1.01355e-12
4.47644e-14
6.45592e-12
8.71846e-13
-6.79682e-13
-8.66418e-12
4.4724e-12
-4.17679e-12
-3.4983e-12
0
5.86326e-13
2.79132e-12
1.73649e-11
-8.88361e-12
-3.39836e-12
-8.95116e-15
-2.92368e-14
-9.43382e-13
3.00886e-12
-3.84777e-12
1.15963e-13
2.21887e-12
3.63894e-13
-4.74073e-11
1.72716e-12
-6.66561e-13
8.64927e-13
1.80732e-13
4.56819e-12
1.97471e-12
-1.19301e-12
1.85657e-12
8.27228e-12
-3.14654e-14
-1.19162e-11
-3.85151e-14
-1.06526e-12
0
-6.75853e-12
6.55678e-12
-8.75746e-13
1.63737e-12
-9.84124e-13
9.18384e-13
3.14921e-12
7.10642e-13
6.43398e-13
3.65111e-12
-6.40715e-12
1.66034e-12
-8.24678e-13
-2.02086e-14
-2.34637e-14
1.10364e-12
-1.99884e-13
-3.06137e-12
9.15097e-13
4.08257e-12
2.49214e-12
1.192e-11
1.69976e-12
-1.13118e-11
-2.89846e-12
2.87781e-13
2.98598e-11
9.92841e-13
3.55135e-12
0
-3.68836e-12
1.12979e-13
-5.9256e-13
2.79279e-12
-7.7379e-12
-3.98298e-13
-7.28947e-14
-5.18278e-13
-3.31026e-12
-1.05334e-11
-9.50351e-12
-1.64985e-12
0
-9.30422e-14
-8.29313e-13
-3.62457e-14
-5.05773e-15
-1.51725e-12
5.66532e-12
-3.35039e-12
-1.13634e-12
0
-3.38122e-14
5.98618e-15
2.40517e-12
9.09642e-12
-1.50605e-13
0
-2.75917e-12
-5.48087e-13
-9.68334e-12
-3.51743e-12
-8.11237e-13
-1.3845e-12
-8.73529e-13
-6.78369e-13
1.21869e-11
-2.02313e-13
8.46669e-14
8.96692e-14
-8.46042e-13
7.84248e-12
-7.05607e-12
-3.70021e-12
4.52472e-12
4.41487e-12
-3.13256e-12
-2.94787e-12
-1.23386e-11
8.42219e-14
2.00817e-13
0
-1.13258e-11
-1.58822e-13
3.30114e-12
1.21502e-12
-2.04186e-12
-1.07744e-12
-1.33495e-11
-4.45316e-12
-1.07934e-12
6.76138e-15
8.72386e-12
-1.37841e-13
-1.35349e-12
-1.64358e-11
-8.73549e-13
6.77663e-13
-1.13405e-12
-2.94823e-12
2.56898e-12
-4.19195e-13
1.18137e-13
9.32813e-12
-1.49754e-13
6.70689e-12
0
-3.16536e-12
-2.19344e-12
5.63321e-13
3.25691e-12
-9.61084e-13
1.72711e-13
-1.74594e-11
-2.46825e-12
1.75741e-14
9.127e-15
8.82051e-13
-1.46138e-14
-9.40991e-12
3.22183e-13
8.73078e-13
-1.54628e-12
2.48554e-13
1.44295e-12
-1.06506e-11
1.97139e-12
5.17951e-12
0
1.0725e-14
1.20721e-14
-1.0382e-13
4.64516e-12
5.92613e-12
1.56184e-13
-2.30784e-12
-4.79242e-12
-2.70301e-13
-3.85008e-13
-5.98357e-12
3.71367e-13
2.42194e-12
2.05963e-14
2.77067e-12
-6.08335e-12
-2.35039e-12
2.21222e-12
-4.64649e-12
-2.01496e-13
-2.91005e-12
1.35875e-12
1.66634e-11
6.98146e-12
4.09627e-12
-1.07805e-11
1.76902e-12
4.79246e-12
-5.24979e-12
2.32147e-13
-1.00124e-12
9.7842e-13
3.35063e-12
-5.66267e-13
1.48897e-12
3.44715e-12
2.18002e-12
-3.4275e-11
-1.16385e-11
9.35202e-12
2.87587e-15
1.0336e-14
6.00676e-12
3.89079e-12
-3.18045e-12
3.1521e-14
-8.68172e-12
5.16893e-13
3.86632e-12
-4.80582e-13
-1.689e-12
3.88046e-14
-5.71935e-12
1.02246e-12
1.1146e-12
-5.83754e-14
-4.93455e-12
3.52005e-12
3.08465e-12
-4.23504e-12
-6.67943e-12
5.82316e-13
-3.96883e-12
-2.98026e-12
-1.74298e-13
1.49686e-12
4.52077e-12
-8.11841e-12
2.93758e-12
1.2213e-12
-4.69579e-12
7.53689e-13
-1.22499e-11
-1.86822e-12
1.20225e-12
-4.98768e-12
1.11355e-12
-4.46536e-13
-1.85667e-12
-1.01901e-11
1.90901e-12
-1.91149e-12
3.30516e-12
-9.57483e-12
2.98537e-13
-8.33927e-15
-2.03887e-13
-1.77375e-13
-5.11792e-13
-5.88876e-12
5.33153e-12
-2.43759e-12
3.30573e-13
-1.50001e-12
-8.31439e-14
-2.69557e-14
4.01672e-14
-1.14317e-12
-3.69464e-12
-8.39713e-12
-1.52161e-12
-2.08084e-12
-1.01324e-14
-6.3039e-15
-5.87082e-13
-1.81013e-12
-2.04555e-11
2.05545e-11
1.89552e-12
5.02142e-12
-1.706e-13
-4.51035e-12
-3.11404e-11
2.80573e-12
1.01582e-11
-1.95689e-12
3.35172e-12
2.59033e-12
-5.18401e-12
9.69058e-13
-3.57085e-12
1.11542e-12
0
1.82176e-12
9.5378e-14
-2.95582e-12
4.48114e-12
-5.5131e-12
2.75842e-12
-5.15141e-13
7.55919e-13
-1.04388e-13
-9.62553e-14
7.08876e-12
-1.27519e-11
-5.49539e-14
5.499e-14
1.08812e-11
2.60638e-12
5.78258e-14
2.02083e-12
-4.42435e-13
7.47805e-13
-3.32294e-13
5.12374e-12
2.56087e-11
1.39568e-12
9.60086e-13
1.95597e-12
3.56317e-12
2.85966e-12
4.13612e-12
-7.02596e-13
2.83321e-11
-1.88473e-11
-1.01507e-13
2.83723e-12
-7.77104e-12
2.81361e-11
-1.58804e-12
-2.86467e-12
1.5679e-12
-5.76445e-14
-5.75104e-14
1.61153e-11
-3.64538e-15
-1.09669e-13
-7.39358e-13
-3.26616e-13
-4.31646e-12
1.56245e-12
3.47197e-12
-1.07988e-12
-1.6613e-12
-5.14737e-13
3.80763e-13
-6.1894e-12
-3.98283e-12
-6.57635e-13
1.24111e-11
-8.90912e-12
3.31411e-14
1.68372e-12
2.25671e-11
1.49795e-11
5.89834e-12
3.09563e-12
-2.20059e-13
1.62316e-13
-3.62515e-12
3.63828e-12
-5.14063e-12
1.02376e-11
9.25753e-12
-4.21824e-12
-3.59067e-12
-3.18479e-13
-6.84309e-13
-8.73939e-14
1.572e-14
-3.87223e-12
-2.30736e-12
-5.65316e-12
-2.15202e-12
5.59479e-13
4.4054e-14
5.72091e-13
-1.62774e-12
9.00182e-13
2.73145e-12
2.72019e-11
-1.93407e-12
2.06623e-11
3.64878e-13
-5.02459e-12
-8.98978e-14
-2.72074e-12
-3.73511e-12
5.03945e-14
3.2066e-12
-8.13673e-13
2.02043e-13
-3.0449e-12
4.5084e-13
-1.02718e-12
-1.20338e-11
-1.50436e-12
9.25499e-13
3.26583e-13
-2.75771e-12
4.08162e-12
-5.49962e-12
-1.16329e-12
-5.66043e-12
7.5396e-12
-7.99287e-13
-3.8073e-12
-5.36642e-12
1.83804e-12
-1.3455e-11
0
1.77177e-12
4.46911e-12
-2.78894e-12
9.16302e-13
7.96352e-12
6.31313e-12
-5.57026e-12
6.09006e-12
9.14865e-13
-4.66753e-12
-7.93752e-12
-2.23903e-12
0
8.94032e-12
0
-1.79184e-12
-5.23287e-14
-1.48128e-13
-5.79628e-12
-6.20427e-14
-2.62071e-12
-1.78656e-12
1.60878e-12
0
0
-3.40304e-13
-3.55113e-13
-6.58329e-12
8.65189e-13
1.51771e-11
-2.29912e-13
2.86334e-12
2.54224e-12
3.78146e-13
3.47163e-13
-7.11128e-14
9.68925e-14
-2.90338e-12
1.08947e-12
0
-1.81993e-12
3.37198e-12
-1.24279e-12
0
2.84617e-14
1.91897e-14
4.07535e-13
-1.57383e-12
1.84271e-13
-1.90907e-13
-6.18313e-14
1.45376e-12
-3.80468e-12
1.43975e-12
-2.62314e-12
-9.90985e-13
-1.23885e-12
3.84387e-12
3.98876e-14
3.43818e-14
0
-3.17717e-12
1.24923e-12
3.29359e-12
0
2.82442e-12
1.70788e-12
9.04272e-13
1.50678e-12
9.95483e-12
2.10858e-11
-3.38876e-12
7.23764e-12
-5.98123e-13
-2.28276e-13
3.13973e-12
1.45859e-12
-1.44332e-12
0
-6.27234e-12
-3.19568e-12
-7.18555e-12
2.40491e-12
-1.90072e-12
1.25327e-12
1.78576e-12
-2.55585e-12
5.40096e-12
-4.94705e-14
9.54321e-13
2.03953e-12
-4.82634e-12
4.46299e-12
-5.99972e-12
-1.9351e-12
1.88747e-12
0
5.31038e-12
-2.2066e-12
-2.43516e-13
-3.21071e-12
5.19745e-12
-2.25979e-13
2.59531e-12
-2.23357e-13
4.75939e-12
1.58492e-12
-3.99372e-13
3.55288e-12
4.35129e-16
-6.31768e-15
-2.55148e-12
-1.47332e-13
-3.11984e-11
1.28972e-12
-1.61838e-12
-3.61547e-13
-5.40039e-12
-5.02741e-13
-1.94802e-11
-5.11373e-12
-1.034e-12
-8.83825e-13
-1.60106e-12
1.76194e-12
-3.47686e-13
-4.0022e-12
-7.33831e-13
-2.86351e-12
-2.95358e-12
2.23953e-12
5.84071e-13
-2.95455e-14
1.0457e-14
-3.55537e-13
-4.70185e-12
9.57016e-12
-5.897e-12
-3.21724e-12
1.23099e-12
-4.16768e-14
2.02394e-13
1.24287e-11
-9.60566e-12
9.77664e-13
6.792e-13
7.39381e-13
5.60784e-13
1.30392e-11
-1.22543e-11
-3.42307e-12
1.72741e-12
1.55305e-12
-5.55336e-13
8.5401e-13
4.22355e-12
9.96462e-13
-1.41305e-12
9.9466e-14
-3.83891e-12
3.57538e-12
3.40919e-12
1.60328e-12
-3.66335e-13
2.48543e-13
-3.48906e-12
2.88386e-12
-1.66368e-12
0
7.78543e-12
-6.01504e-13
-6.01638e-13
-3.30824e-12
-5.25473e-13
4.48296e-13
-1.65155e-13
2.70157e-13
4.98186e-12
-3.05309e-13
9.53456e-14
-1.76028e-12
1.02018e-12
-1.14718e-11
-2.51308e-12
-8.26714e-12
7.72943e-14
5.9731e-14
2.27371e-12
-8.20752e-12
0
2.72613e-12
3.70127e-12
5.77158e-14
1.41753e-12
2.74173e-12
4.18034e-12
-1.56122e-12
-2.05013e-12
-3.93475e-14
0
8.77594e-14
1.55826e-12
2.37896e-12
-3.36025e-11
4.1604e-12
5.22854e-12
-1.87859e-13
-1.8476e-13
1.03769e-13
1.44728e-12
-1.97846e-12
-4.29195e-13
2.5092e-12
-2.29302e-12
3.88307e-13
-2.7783e-13
-3.29662e-13
-3.24109e-13
-1.27983e-12
-4.64129e-15
6.63482e-15
8.08232e-12
-4.06171e-13
2.67406e-12
0
3.30448e-14
2.68885e-13
-2.14488e-12
-8.9823e-13
3.85289e-12
7.0747e-13
3.85549e-12
-1.63333e-13
-6.68101e-13
6.681e-13
0
4.494e-13
4.17876e-13
-2.26442e-12
-4.62668e-12
4.85986e-12
1.18364e-13
1.33708e-12
8.02504e-12
1.26751e-11
-2.37852e-12
-4.26289e-12
-2.70079e-12
2.70074e-12
-1.74671e-11
-1.63099e-12
9.56205e-13
1.09912e-12
-9.49676e-12
-2.19329e-11
7.58705e-12
-6.60566e-12
6.22692e-12
2.2306e-12
5.55879e-13
1.32958e-14
-3.26255e-13
0
-1.17092e-11
-7.2339e-13
2.39504e-12
-4.31613e-14
-2.40752e-12
1.49108e-12
-4.32259e-11
-3.53082e-12
1.21441e-12
-7.69794e-13
-4.37293e-12
-2.46736e-12
2.43528e-12
2.81256e-13
-3.25448e-13
2.07768e-12
-7.80824e-13
8.295e-14
2.36525e-13
2.05102e-12
1.08086e-12
-2.925e-12
-1.08076e-12
-1.47603e-12
-5.54345e-13
-4.57104e-13
-1.39366e-12
-4.04805e-12
-6.62993e-12
4.5655e-12
-8.84044e-14
-8.53987e-14
-5.36337e-13
1.33556e-12
-1.37695e-11
1.86983e-11
0
7.96863e-13
-7.96836e-13
4.30822e-12
1.32943e-12
-1.60529e-11
-3.80435e-13
-3.15729e-12
-1.64649e-11
1.15253e-11
7.61281e-15
2.63217e-12
-8.87707e-12
-6.40738e-12
7.96442e-12
-3.86784e-15
1.10843e-13
2.00347e-12
2.90224e-12
1.10363e-12
0
-1.92241e-12
-9.49111e-13
2.35774e-12
8.09219e-14
2.02548e-13
-3.23717e-12
-1.20722e-13
-2.11514e-13
-7.44323e-13
-3.27654e-12
1.78607e-12
1.00093e-11
3.84366e-13
-1.56555e-12
2.72737e-12
6.62172e-12
-6.84704e-12
-1.30217e-12
-1.71168e-12
-1.71163e-12
-3.00598e-14
5.66043e-14
3.2537e-12
-4.5151e-13
1.17638e-12
-4.70964e-13
2.24314e-13
3.00961e-13
8.64051e-13
8.82767e-14
-6.30474e-12
-3.60096e-11
-2.09744e-11
2.48924e-12
1.09441e-11
-1.67136e-12
-1.07509e-11
-8.32477e-12
-2.57841e-12
-6.93939e-12
6.00024e-13
6.00156e-13
2.58258e-11
0
-3.20188e-12
-1.89543e-12
-3.1855e-12
-3.39432e-12
8.15106e-14
-9.59597e-13
-3.37884e-13
-1.30707e-12
-1.71907e-12
-2.09503e-12
-5.14663e-12
-5.06318e-13
5.64395e-13
-1.44479e-12
-1.0256e-12
6.90112e-13
2.901e-13
2.08275e-13
9.25163e-14
-2.78912e-11
2.96997e-13
-9.65506e-14
1.60245e-12
1.82461e-13
-2.41578e-13
-5.9074e-13
-1.21993e-12
-2.79728e-12
0
6.49454e-12
-9.41413e-12
-2.35414e-13
-5.75069e-13
4.52695e-12
-5.38898e-12
-3.09125e-12
1.20669e-11
-7.27351e-15
-7.92651e-13
-2.94051e-12
2.11586e-12
2.047e-12
7.16459e-13
1.06846e-14
-1.83157e-12
-2.64257e-14
1.50602e-12
3.47113e-12
-1.5073e-12
9.72824e-13
-1.22243e-12
0
5.5045e-12
-3.69518e-12
-1.13634e-13
-5.29268e-13
3.66923e-12
-9.28152e-12
-2.98723e-13
1.48394e-12
-7.25973e-14
-1.21956e-14
-3.50166e-14
1.32072e-12
-2.53797e-12
6.83518e-14
-1.87565e-12
-3.97668e-12
-2.96194e-12
1.24654e-11
9.92497e-13
3.02548e-11
-3.27152e-12
-3.51637e-13
1.19366e-11
1.58501e-12
4.86915e-13
2.16761e-12
-6.41942e-13
5.39004e-14
-1.93834e-13
-4.05758e-12
8.00295e-14
-5.41861e-12
-4.62826e-13
1.17866e-12
-1.10527e-11
6.55068e-12
8.94939e-12
-1.18084e-13
-7.7684e-14
-9.73959e-13
2.34899e-12
-6.64234e-13
-1.27361e-12
7.62999e-12
-1.53229e-12
-3.37123e-13
1.9485e-12
-6.7014e-12
-1.98922e-13
-3.51024e-13
1.40269e-14
4.39697e-13
-6.00459e-12
-1.50713e-12
4.7956e-13
-1.53754e-12
-2.9624e-12
1.68238e-11
1.45551e-14
3.92417e-14
-2.65657e-11
-1.7479e-13
-2.97178e-12
-1.65745e-12
-2.26808e-12
0
-5.35553e-12
-5.82342e-12
2.72661e-12
2.72661e-12
-9.01506e-14
0
-1.7383e-13
-2.7298e-11
-8.39035e-13
-3.1522e-12
-1.76871e-11
3.06447e-11
3.06371e-14
9.69691e-13
2.38187e-12
-1.80558e-12
2.13353e-12
-1.27885e-13
-5.17005e-14
-9.16004e-13
-3.78217e-12
2.95506e-14
-1.02876e-11
-3.21961e-12
1.86785e-13
-9.68966e-13
2.63164e-12
0
-1.52349e-12
7.98136e-12
-1.96178e-13
2.37631e-12
0
-1.42113e-11
-3.69302e-13
3.51549e-12
1.03095e-12
5.90186e-13
3.33767e-12
-2.39699e-12
-3.16142e-13
-2.88431e-13
1.95948e-12
-2.39769e-11
1.05109e-11
0
-2.44041e-12
-8.84136e-13
-2.20903e-12
1.04916e-11
3.52951e-13
-1.46591e-12
5.595e-12
-4.22731e-15
-1.00192e-14
-1.52898e-12
5.41213e-12
3.76488e-12
7.00968e-13
-8.50525e-12
4.60818e-13
-1.21308e-12
3.16293e-12
3.80931e-12
-5.23945e-13
-6.60318e-12
3.32791e-12
2.00166e-12
0
1.569e-12
-7.39782e-12
-2.70768e-13
-3.57476e-12
-3.05206e-12
8.48222e-12
8.74447e-12
9.10948e-13
-6.26991e-12
2.02006e-12
9.66511e-13
2.45465e-13
1.10065e-12
-5.14567e-13
-5.83286e-14
-6.08323e-12
0
-1.21855e-12
1.42932e-11
-1.33944e-11
-2.03126e-12
1.22784e-12
6.83457e-12
-9.43085e-13
-9.70452e-13
0
0
-1.60509e-12
2.96646e-12
4.2085e-12
-7.35863e-12
3.34075e-12
-6.90784e-14
5.50325e-12
-5.86689e-13
3.52161e-13
1.2138e-12
4.12895e-12
4.20672e-12
4.20704e-12
8.75593e-13
3.49336e-12
-3.18948e-12
-4.06185e-13
4.13815e-12
1.67951e-12
5.65264e-12
8.1318e-12
-6.00779e-12
-5.74688e-12
-3.59651e-12
-3.092e-12
-4.80933e-12
-6.77735e-13
1.78655e-13
4.89839e-12
1.11344e-12
0
-3.67005e-12
-2.85184e-12
-4.26392e-12
-3.06531e-12
-7.66265e-12
-1.47058e-12
-3.4189e-12
4.94924e-12
4.62313e-13
-8.91738e-13
0
-2.5385e-12
-2.81156e-14
-5.80127e-12
8.65436e-14
1.94577e-12
-5.29809e-12
-6.6288e-12
-2.26935e-12
6.29304e-13
0
9.09603e-13
2.01857e-12
-9.72128e-13
-3.74791e-13
2.56302e-15
5.76694e-14
4.5941e-13
6.11221e-13
-9.05322e-13
1.96056e-11
9.88026e-13
8.4234e-13
-1.27773e-12
2.07873e-11
-5.58994e-12
-7.48157e-13
2.74866e-14
-1.54327e-14
-9.2494e-12
1.18721e-11
-2.10281e-12
-1.80934e-14
3.32951e-14
-2.2003e-13
1.11642e-13
-4.41069e-12
-2.75346e-13
1.60676e-12
-3.44243e-13
2.96883e-13
-2.56063e-12
3.42196e-14
-2.96943e-14
-2.47667e-12
-3.3246e-12
1.90566e-12
9.36556e-12
-1.6998e-13
-1.92591e-12
-3.37767e-12
0
2.98715e-12
6.22921e-13
-1.17793e-11
-7.99253e-13
3.21403e-12
3.84423e-12
-1.14559e-11
-5.22921e-13
-2.39666e-12
-3.30339e-12
-1.25961e-12
-2.45341e-12
-1.73459e-12
-1.72171e-11
-1.86379e-12
-4.01321e-12
1.44229e-11
-5.97994e-12
-1.47335e-12
8.47574e-15
-2.08501e-15
9.76377e-16
-6.47774e-12
-3.12422e-14
-3.14406e-14
1.66309e-13
0
0
-3.48835e-11
-2.52036e-12
-4.64016e-12
0
-1.12734e-11
1.34357e-11
-3.2226e-12
5.20388e-13
-1.42491e-11
-1.75701e-12
1.17418e-12
7.6674e-13
-7.32759e-12
1.81137e-12
1.33221e-11
-1.34413e-11
-1.34769e-12
-2.63425e-12
2.78529e-13
1.07871e-13
1.25231e-12
-1.59506e-11
-1.9041e-11
0
-2.42514e-13
8.65405e-13
2.52619e-12
1.04711e-12
-8.85051e-12
-6.15635e-13
7.30069e-12
1.7983e-14
-6.75103e-12
-1.20183e-12
-1.30305e-12
3.49853e-12
6.02839e-12
-3.19333e-13
-6.30507e-12
8.0313e-12
5.07442e-13
-4.14627e-13
4.20084e-12
-3.30866e-12
1.64927e-12
-1.22985e-12
0
-1.81946e-14
1.36245e-12
-1.01536e-12
-3.93994e-12
9.18106e-13
-1.86183e-12
-9.65834e-13
8.52732e-13
3.79391e-13
-4.92671e-12
6.19559e-13
7.31471e-12
-1.86689e-12
-9.42354e-13
-5.76948e-12
-6.60427e-13
1.68412e-13
3.36135e-12
3.08047e-12
-1.74077e-13
8.80039e-15
1.28821e-14
-2.05788e-12
-6.64968e-12
-7.26478e-12
3.93584e-12
3.3952e-12
7.85397e-14
-1.29379e-13
0
2.64245e-12
6.94178e-13
-2.84313e-12
3.22694e-12
2.16212e-11
-2.77411e-12
-1.15628e-12
-3.55199e-12
-2.14374e-11
4.16463e-12
3.63054e-12
-3.6588e-13
7.06736e-14
-4.87277e-14
3.78687e-12
1.82156e-12
1.70686e-13
-2.87762e-12
-1.17279e-12
4.34241e-12
-1.58708e-12
-4.04004e-12
3.40609e-13
6.37347e-14
-8.87885e-14
-1.7753e-13
0
-4.19176e-12
2.50117e-14
2.82137e-14
-4.30875e-12
-2.35984e-12
0
0
4.23073e-13
-5.11351e-12
-7.20845e-12
-1.64715e-12
9.75417e-13
9.75436e-13
-1.95008e-12
1.10019e-12
1.2883e-12
-2.39127e-12
-2.00522e-11
-7.09277e-13
1.50158e-12
-2.207e-12
2.55013e-12
-1.61822e-12
3.00859e-14
5.83409e-15
-1.28632e-11
8.57152e-12
-1.98121e-12
-9.73732e-13
1.00071e-11
4.95768e-12
1.44267e-12
2.76101e-12
-3.31136e-12
8.04632e-13
2.36568e-12
1.60552e-12
1.50112e-11
-3.70994e-12
-1.44413e-11
-5.22239e-12
-4.236e-13
-1.62938e-12
8.97434e-12
-3.06639e-12
1.87719e-12
-1.29345e-12
1.58287e-13
1.75838e-12
4.22395e-12
-4.28277e-12
1.84456e-11
1.21376e-12
1.31536e-12
-3.96633e-12
3.39126e-13
-3.21819e-12
-4.00942e-12
-4.65568e-12
-7.10933e-13
5.80881e-12
1.52881e-11
-2.47095e-12
-2.29151e-12
-2.75434e-14
7.37302e-15
5.48148e-15
-9.24693e-14
2.47569e-13
-1.60756e-12
-1.36837e-13
-3.9609e-12
-6.02694e-11
2.55686e-13
1.61405e-12
-2.0796e-12
9.66527e-12
2.65752e-13
1.35e-13
-2.80799e-14
-6.55932e-12
-8.5051e-12
6.57155e-12
-9.03868e-12
4.37099e-13
-1.11663e-11
-2.36522e-12
-2.53225e-12
1.21594e-12
1.68825e-12
1.96629e-12
-2.23307e-12
3.41018e-14
3.47883e-14
-6.87546e-12
-1.90547e-13
6.32586e-13
-2.51553e-12
3.32531e-12
-3.20513e-13
3.03627e-12
3.01788e-12
0
3.18726e-12
-1.72619e-12
9.73898e-14
4.65848e-12
0
-1.63951e-12
7.9923e-12
1.97149e-12
-5.39378e-12
3.12994e-12
3.81218e-12
2.70875e-12
-8.65115e-13
3.8512e-12
1.42012e-13
-3.68006e-14
1.71183e-12
-2.70007e-12
-3.61504e-14
1.8223e-14
3.23293e-12
9.1386e-14
-2.15196e-13
9.91518e-13
2.77899e-12
2.60245e-13
-7.36031e-14
5.56581e-13
-2.33602e-12
1.89053e-12
1.00008e-12
-4.88206e-13
2.26224e-12
-1.20402e-12
-7.21182e-12
-2.3377e-12
8.26449e-12
-1.04791e-12
-2.8842e-12
0
3.53072e-14
3.38116e-12
7.97709e-12
4.6568e-12
6.39569e-12
4.45735e-12
-6.08245e-12
1.19309e-11
-1.37406e-11
-1.08849e-12
-1.22832e-12
1.3417e-13
9.59976e-13
5.65043e-13
-1.10789e-11
-7.86934e-13
1.12204e-12
9.14006e-13
-1.24175e-12
4.08832e-12
1.83721e-11
8.99237e-14
1.14411e-13
7.56767e-13
-7.81078e-13
1.09207e-13
9.68827e-14
3.88044e-12
6.37688e-13
-1.11334e-12
-9.80514e-14
-7.15092e-12
-2.25021e-12
4.79209e-12
-2.4057e-12
1.01714e-13
-1.42521e-11
-6.45641e-13
-1.82176e-12
2.23746e-12
-9.26404e-13
-2.06627e-11
2.0185e-13
-3.70965e-12
-7.70542e-14
-3.415e-12
4.03383e-12
0
-3.95203e-12
-6.23865e-12
2.22519e-12
9.37076e-12
1.47215e-12
0
-3.58888e-12
3.16946e-12
-9.16448e-12
-4.59837e-12
-1.54393e-13
-1.40366e-11
-4.24872e-12
2.55741e-12
8.01024e-13
-4.27082e-14
-4.72392e-14
-2.00003e-12
-7.18344e-13
-1.03564e-12
-5.1142e-13
-1.18665e-12
-2.60964e-12
-1.66389e-12
1.70575e-12
4.12383e-12
0
1.63562e-14
-2.04779e-11
-2.17365e-13
1.80827e-12
-2.60897e-12
-8.94505e-12
3.95175e-13
5.3738e-14
5.56473e-12
-8.06365e-13
6.54628e-12
3.90495e-12
-2.99206e-12
3.28314e-13
8.05935e-13
1.8731e-12
-4.28053e-13
2.18942e-12
1.04656e-12
1.72247e-12
3.48503e-12
-8.21832e-13
1.84179e-12
2.53331e-13
6.17977e-13
2.90568e-12
-1.82754e-14
1.074e-11
-3.69455e-13
1.16002e-12
3.06515e-14
2.87153e-14
3.91616e-12
8.01633e-13
-6.52677e-13
-2.81848e-13
-1.10399e-13
1.74242e-14
3.14643e-12
1.19265e-13
3.43059e-14
6.11557e-12
-7.41796e-12
-9.56277e-13
-5.03659e-12
0
2.43599e-13
-2.98517e-12
2.4513e-12
-9.55588e-13
-4.99919e-13
3.56845e-13
7.59201e-14
-7.03307e-12
4.63522e-11
-3.2624e-12
-5.41107e-12
-5.09349e-12
-6.37658e-12
-4.90285e-12
9.59965e-12
-1.88028e-12
-1.68079e-12
-3.49358e-14
2.29374e-14
2.37963e-12
-2.08247e-13
-2.6373e-12
-5.27112e-12
5.66443e-13
-6.83815e-13
1.46765e-12
-1.5491e-12
9.79902e-13
1.34209e-12
3.58676e-13
2.96638e-12
-3.37073e-12
5.33632e-12
-7.63652e-12
1.41318e-12
-1.07627e-11
5.45136e-12
-2.66056e-12
-4.76994e-12
-1.1081e-12
1.64432e-12
-1.88419e-12
7.21086e-13
-1.63002e-11
3.60866e-12
6.2492e-14
-3.37446e-13
-1.57934e-13
1.56813e-13
-1.55516e-11
1.37236e-12
-2.24026e-12
-4.1377e-12
-1.59451e-11
4.10535e-12
-1.91079e-12
-2.78417e-12
-2.9886e-12
-1.69233e-12
0
-6.44775e-12
-9.52593e-12
0
7.64809e-12
2.85839e-12
4.34942e-12
-9.03643e-12
1.39811e-12
1.35171e-11
5.17001e-14
4.91954e-11
1.344e-13
6.63314e-14
2.48578e-12
-1.12133e-11
-1.07828e-12
-2.57958e-12
2.46378e-12
-2.34074e-12
-4.87111e-13
1.3981e-13
-4.30526e-12
1.01556e-12
9.22188e-12
-2.96396e-12
-6.39235e-12
-3.62034e-12
7.03531e-12
6.81515e-13
5.2279e-12
-8.24535e-12
1.12764e-12
4.10849e-13
1.2352e-13
4.84524e-14
-3.35143e-12
-1.31321e-12
0
-5.06944e-13
1.0785e-13
1.07713e-13
-1.78103e-13
-1.78177e-13
-6.51714e-14
-6.01785e-12