/*--------------------------------*- C++ -*----------------------------------*\
| =========                 |                                                 |
| \\      /  F ield         | OpenFOAM: The Open Source CFD Toolbox           |
|  \\    /   O peration     | Version:  v3.0+                                 |
|   \\  /    A nd           | Web:      www.OpenFOAM.com                      |
|    \\/     M anipulation  |                                                 |
\*---------------------------------------------------------------------------*/
FoamFile
{
    version     2.0;
    format      ascii;
    class       volSymmTensorField;
    location    "12000";
    object      sigma;
}
// * * * * * * * * * * * * * * * * * * * * * * * * * * * * * * * * * * * * * //

dimensions      [1 -1 -2 0 0 0 0];

internalField   nonuniform List<symmTensor> 
27023
(
(-1.98085e+07 -1.63492e+07 1.66454e-13 -1.59056e+07 -2.14441e-14 -8.86139e+06)
(1.98114e+07 -1.6352e+07 1.08949e-13 1.5908e+07 -1.81158e-13 8.86272e+06)
(1.27528e+07 -1.20758e+07 7.22323e-13 1.26371e+07 -2.10201e-13 6.29975e+06)
(-1.27504e+07 -1.2074e+07 5.54418e-13 -1.26373e+07 1.62591e-13 -6.2992e+06)
(-2.00146e+07 -1.5577e+07 0 -1.49432e+07 0 -8.67375e+06)
(2.00176e+07 -1.55798e+07 -5.50348e-13 1.49452e+07 1.65276e-13 8.675e+06)
(1.08068e+08 -1.52626e+07 4.5725e-12 5.70936e+06 -4.35084e-12 2.82305e+07)
(-1.08063e+08 -1.52604e+07 -1.12943e-12 -5.70845e+06 -1.0497e-12 -2.82291e+07)
(4.78777e+06 -6.07752e+06 -1.06841e-13 8.84719e+06 7.16391e-14 3.38311e+06)
(-4.78206e+06 -6.07717e+06 -5.03365e-13 -8.85343e+06 -1.38755e-13 -3.38324e+06)
(7.81854e+07 -1.49362e+07 -6.86801e-13 8.84965e+06 1.22214e-12 2.15952e+07)
(-7.81763e+07 -1.49323e+07 -9.7242e-13 -8.85048e+06 -5.59563e-13 -2.15931e+07)
(860982 -1.41582e+06 -6.94282e-14 2.33324e+06 -1.42488e-13 792553)
(-880006 -1.42335e+06 3.69343e-14 -2.33404e+06 -3.83286e-14 -797470)
(-3.12856e+07 -2.56433e+06 8.37138e-13 -836227 3.42966e-12 -7.97008e+06)
(2.5504e+06 1.18797e+07 1.02514e-12 132381 -7.69577e-13 665651)
(1.72188e+06 1.13563e+07 -9.28402e-13 484074 -3.91097e-13 547341)
(-6.70433e+07 -2.58252e+06 0 -1.46055e+06 0 -1.69972e+07)
(6.70451e+07 -2.58326e+06 3.39618e-12 1.46112e+06 -1.93644e-12 1.69978e+07)
(4.9146e+07 -2.03768e+06 0 2.27064e+06 0 1.27575e+07)
(-4.91457e+07 -2.0371e+06 -7.35726e-14 -2.26562e+06 1.04051e-12 -1.27562e+07)
(1.07444e+08 -1.37293e+07 4.19818e-15 4.87775e+06 -1.07851e-12 2.78692e+07)
(-1.07438e+08 -1.37272e+07 -2.65599e-12 -4.87685e+06 -3.21796e-12 -2.78677e+07)
(5.49704e+07 -1.35409e+06 -9.39694e-13 7.30539e+06 -1.49063e-12 1.54519e+07)
(-5.49699e+07 -1.3519e+06 2.40741e-12 -7.30144e+06 -2.46425e-13 -1.54508e+07)
(8.63753e+06 -277954 3.87816e-12 832698 -5.55975e-13 2.34976e+06)
(-3.84451e+07 4.06324e+06 1.80047e-12 -5.21074e+06 2.88313e-13 -1.08319e+07)
(4.08221e+06 -1.40638e+06 8.48321e-12 -39784.9 2.2014e-11 1.00301e+06)
(-3.79376e+07 3.7386e+06 -1.40612e-12 -5.70241e+06 7.35326e-13 -1.0828e+07)
(3.73199e+07 -3.1523e+06 -5.21784e-12 -144713 6.53551e-12 9.22393e+06)
(1.79375e+07 -667450 1.0019e-11 1.05326e+06 -5.37363e-12 4.71201e+06)
(4.9193e+07 -2.50713e+06 4.17895e-13 2.25646e+06 -2.12774e-12 1.27657e+07)
(-4.91937e+07 -2.50727e+06 5.15177e-12 -2.2534e+06 4.22112e-12 -1.27651e+07)
(-5.00136e+07 -2.16115e+06 -4.96784e-13 -102668 2.31178e-12 -1.24349e+07)
(-3.09718e+07 -1.63669e+06 1.01994e-12 -907273 4.20097e-12 -7.90986e+06)
(3.88678e+07 -1.85664e+06 -1.10172e-11 138292 2.0982e-12 9.67819e+06)
(4.47867e+07 -1.06881e+06 1.76108e-12 3.85934e+06 -1.49319e-12 1.20701e+07)
(-4.47831e+07 -1.06754e+06 3.52213e-12 -3.8604e+06 2.98632e-12 -1.20694e+07)
(4.58789e+06 -6.0637e+06 1.9738e-13 8.26319e+06 -1.83144e-13 3.18862e+06)
(-4.58561e+06 -6.06425e+06 -2.8586e-13 -8.26782e+06 -1.31196e-13 -3.1892e+06)
(-1.27259e+07 -1.20926e+07 -2.11566e-13 -1.33923e+07 -6.84296e-14 -6.48046e+06)
(1.27286e+07 -1.20944e+07 -9.39863e-14 1.33923e+07 2.70772e-14 6.48114e+06)
(-2.52824e+07 -1.99378e+06 -1.11483e-11 -212537 -5.57312e-12 -6.32581e+06)
(-1.90751e+07 -1.57793e+07 -1.14837e-13 -1.4665e+07 -1.42501e-13 -8.37161e+06)
(1.90781e+07 -1.5782e+07 1.14815e-13 1.46673e+07 -1.4237e-13 8.37292e+06)
(6.61572e+07 -2.50078e+06 5.24009e-12 1.36542e+06 -1.48437e-12 1.67537e+07)
(-6.61554e+07 -2.5001e+06 -3.78164e-12 -1.36484e+06 -2.26117e-12 -1.67531e+07)
(5.20028e+07 -1.62664e+06 -4.92646e-12 5.67083e+06 1.86266e-12 1.431e+07)
(-5.20019e+07 -1.62609e+06 4.92645e-12 -5.66716e+06 1.86275e-12 -1.43089e+07)
(3.44269e+07 -2.7163e+06 -3.33012e-12 -163556 1.23891e-12 8.50143e+06)
(5.01755e+07 -757592 3.72066e-12 5.33725e+06 -1.11321e-12 1.37739e+07)
(-5.01753e+07 -756996 -1.4526e-12 -5.33371e+06 -1.89276e-13 -1.37729e+07)
(-4.87852e+07 -2.37861e+06 8.67181e-12 -75816.1 1.10632e-12 -1.21234e+07)
(497.096 -88833.1 4.73229e-15 579194 2.47657e-14 143833)
(-493.537 -88589.4 1.04336e-13 -576312 8.59361e-14 -143117)
(5.49556e+07 -2.19584e+06 1.81136e-12 207742 3.63843e-12 1.36872e+07)
(2.29927e+07 -1.78396e+06 2.93579e-12 281964 7.88608e-12 5.77492e+06)
(4.0886e+07 -1.6005e+06 1.37306e-11 -42160.4 3.39569e-12 1.01342e+07)
(-1.8638e+07 -3.01938e+06 -2.46181e-12 36651.9 2.04084e-12 -4.61537e+06)
(1.21473e+07 -1.24854e+07 -1.12372e-12 1.38967e+07 3.70558e-13 6.46205e+06)
(-1.21451e+07 -1.24837e+07 -7.54696e-13 -1.38966e+07 -2.3963e-13 -6.46147e+06)
(3.38881e+07 -1.66022e+06 -2.00057e-11 75409.6 7.22429e-12 8.42705e+06)
(5.23164e+06 -2.04348e+06 8.07929e-12 264645 -1.78134e-12 1.36374e+06)
(6.06428e+06 -850539 4.59566e-12 -177174 2.30599e-11 1.46071e+06)
(-2.45599e+07 -3.25876e+06 -1.19182e-11 -94593.6 -1.77062e-11 -6.11728e+06)
(1.59252e+07 -267990 -2.35991e-12 1.14553e+06 1.06111e-12 4.23559e+06)
(4.37341e+07 -1.80492e+06 1.22931e-12 1.47993e+06 -5.67281e-12 1.12185e+07)
(1.07027e+07 141096 -5.3193e-12 900592 1.99189e-13 2.87901e+06)
(-3.89727e+07 4.24522e+06 1.16162e-12 -4.3752e+06 -9.41829e-13 -1.07555e+07)
(-2.35861e+07 -2.9196e+06 -1.16604e-11 -224258 -2.49605e-12 -5.90783e+06)
(4.28848e+07 -1.45205e+06 0 4.05386e+06 0 1.16464e+07)
(-4.2881e+07 -1.45064e+06 -3.55943e-12 -4.05485e+06 -5.16671e-12 -1.16457e+07)
(7.4889e+07 -4.43146e+06 -3.42109e-13 6.91995e+06 2.81797e-12 2.02985e+07)
(-7.48872e+07 -4.4292e+06 -1.97925e-12 -6.91765e+06 3.75513e-12 -2.02974e+07)
(9.96936e+07 -1.55467e+06 -2.131e-12 138491 7.4337e-12 2.47704e+07)
(-9.96924e+07 -1.5546e+06 -1.27156e-12 -138482 3.63311e-12 -2.47701e+07)
(179388 -363398 1.28282e-14 1.00489e+06 7.00811e-14 293844)
(-177221 -361080 -6.79234e-14 -1.00444e+06 6.27665e-14 -293194)
(-1.17507e+08 -6.22774e+06 7.90514e-12 -1.65287e+06 7.08805e-12 -2.9566e+07)
(1.1751e+08 -6.22816e+06 -3.616e-12 1.65296e+06 4.6981e-12 2.95667e+07)
(-2.92007e+07 1.60566e+06 1.26573e-12 -3.86467e+06 1.89884e-12 -8.20419e+06)
(7.5549e+07 -1.41608e+07 4.26094e-12 8.38831e+06 -2.9153e-12 2.08265e+07)
(-7.55396e+07 -1.41569e+07 -3.35107e-12 -8.38883e+06 -2.28889e-12 -2.08243e+07)
(7.29556e+07 -4.89941e+06 -6.28872e-13 7.31578e+06 1.17961e-12 1.9917e+07)
(-7.2954e+07 -4.89723e+06 1.58273e-12 -7.31337e+06 3.95295e-12 -1.9916e+07)
(-1.05851e+08 -793006 -5.04753e-12 16183.8 -1.7388e-12 -2.62597e+07)
(1.05852e+08 -792978 -2.71252e-12 -16186.8 1.47339e-12 2.62599e+07)
(-4.35966e+07 -1.80599e+06 2.97348e-12 -1.43877e+06 -5.80483e-13 -1.11742e+07)
(4.20072e+06 -3.08773e+06 5.61526e-12 195623 -4.3395e-13 1.09082e+06)
(-1.97206e+07 -2.95031e+06 -4.87149e-12 82279.9 2.79772e-12 -4.87266e+06)
(1.88944e+07 -2.82696e+06 2.8707e-12 183100 4.65411e-11 4.73351e+06)
(2.48309e+07 -1.59916e+07 1.44467e-13 1.31621e+07 1.35854e-13 9.42684e+06)
(-2.4828e+07 -1.59886e+07 -2.8779e-13 -1.31596e+07 -1.6197e-13 -9.4255e+06)
(2.18337e+07 8.83629e+06 -4.05431e-13 2.36757e+06 7.09887e-13 6.00481e+06)
(-8.85923e+06 -2.23194e+06 -8.79889e-14 -498837 -1.1384e-13 -2.32193e+06)
(-5.51231e+07 -400482 -3.89077e-12 -6.84833e+06 -3.12221e-12 -1.53764e+07)
(5.51174e+07 -398861 -4.09631e-12 6.85119e+06 6.32364e-13 1.53757e+07)
(-2.91299e+07 2.20474e+06 3.70719e-12 -4.00527e+06 7.4553e-13 -8.22151e+06)
(-1.96504e+07 -3.27383e+06 -5.94827e-12 -202920 -3.92744e-12 -4.926e+06)
(935261 -3.55769e+06 3.22595e-12 -35930 7.13802e-12 223142)
(-3.21124e+07 -1.90462e+06 -2.20557e-12 -12522.1 -7.60172e-12 -7.97084e+06)
(-2.01012e+07 -151653 -9.28883e-12 -115724 1.92463e-11 -5.01623e+06)
(2.04319e+07 -46974 -3.55528e-12 429750 3.5601e-11 5.1762e+06)
(8.77339e+07 -9.5101e+06 -4.02272e-14 7.17886e+06 1.54286e-12 2.35498e+07)
(-8.77304e+07 -9.50681e+06 2.18476e-12 -7.17679e+06 1.16829e-12 -2.35484e+07)
(3.53315e+06 -2.10648e+06 1.40301e-11 -154304 -2.57319e-13 838360)
(9.80895e+07 -9.72582e+06 -1.34423e-12 5.4441e+06 2.15762e-14 2.56888e+07)
(-9.80858e+07 -9.72364e+06 9.61762e-13 -5.44301e+06 -1.23982e-12 -2.56876e+07)
(5.42442e+07 -2.31826e+06 -5.19163e-12 457912 -1.69978e-12 1.35727e+07)
(3.82389e+07 -1.9077e+06 2.89455e-11 407357 -8.96143e-12 9.58892e+06)
(2.3366e+07 -3.69483e+06 -1.31101e-11 -178107 -4.41652e-12 5.75339e+06)
(9.84123e+07 -1.01798e+07 -1.01449e-13 6.44355e+06 1.65833e-12 2.60169e+07)
(-9.84089e+07 -1.01776e+07 1.05157e-12 -6.44235e+06 3.93832e-13 -2.60157e+07)
(5.43922e+07 -377590 -4.96205e-12 6.74885e+06 5.27771e-12 1.51703e+07)
(-5.43924e+07 -375985 7.58859e-13 -6.74647e+06 2.23833e-12 -1.51698e+07)
(1.0055e+08 -903363 2.22765e-12 173960 2.90916e-12 2.49916e+07)
(-1.00549e+08 -903260 5.39031e-12 -173903 4.60072e-12 -2.49913e+07)
(2.41637e+07 3.05972e+06 -3.62793e-13 -1.37068e+06 1.91366e-13 5.6554e+06)
(-3.96822e+07 545421 -1.59879e-12 -2.59103e+06 5.1045e-14 -1.04889e+07)
(-2.96062e+07 -1.24484e+06 2.52195e-12 -2.47214e+06 -7.54402e-13 -7.95928e+06)
(2.4033e+07 -2.08436e+06 -1.41566e-11 364830 -5.74963e-13 6.0536e+06)
(2.51792e+06 -1.46621e+06 8.39556e-12 32922.2 -1.49327e-12 632916)
(-8.13709e+07 -3.09101e+07 -7.92639e-13 -1.32895e+07 -7.7175e-13 -2.34872e+07)
(8.13812e+07 -3.09134e+07 2.14882e-12 1.32908e+07 -2.37741e-12 2.349e+07)
(1.16402e+08 -1.46674e+07 -3.91558e-12 2.46258e+06 3.24917e-12 2.94926e+07)
(-1.16397e+08 -1.46663e+07 1.81892e-12 -2.46226e+06 6.47938e-13 -2.94913e+07)
(2.44031e+07 -1.54309e+07 -5.67122e-14 1.23489e+07 2.45917e-13 9.11892e+06)
(-2.44001e+07 -1.54278e+07 3.35493e-13 -1.23463e+07 2.74444e-13 -9.11752e+06)
(8.91837e+07 -1.02744e+07 3.44847e-13 7.76357e+06 5.12736e-13 2.40546e+07)
(-8.918e+07 -1.02708e+07 2.43325e-12 -7.76117e+06 2.91667e-12 -2.40531e+07)
(-1.80461e+07 -1.75484e+06 -1.11965e-12 -180773 9.24558e-12 -4.52245e+06)
(-2.12215e+06 -1.59391e+06 2.54622e-14 -1.27188e+06 6.2921e-14 -842129)
(2.15694e+06 -1.5876e+06 -1.25109e-14 1.16698e+06 3.42009e-14 824731)
(-1.68399e+07 -1.15107e+06 1.48013e-13 -1.26463e+06 -1.50634e-13 -4.4921e+06)
(2.07485e+07 -2.58451e+06 -1.01594e-11 231762 -4.4009e-12 5.20563e+06)
(-1.06125e+08 73639.6 -7.88471e-12 -182133 -1.10815e-11 -2.63771e+07)
(1.06126e+08 73629.9 -2.05555e-13 182132 2.52207e-12 2.63773e+07)
(1.022e+07 3.90439e+06 2.46564e-12 1.41403e+06 1.74358e-12 2.88663e+06)
(6.87674e+07 -2.95222e+06 2.56148e-12 2.14409e+06 -5.8147e-12 1.75946e+07)
(-6.87655e+07 -2.95144e+06 2.868e-13 -2.14346e+06 -3.70812e-12 -1.7594e+07)
(-1.01048e+08 -1.69128e+07 -7.32774e-13 -7.36901e+06 -1.43591e-12 -2.69005e+07)
(1.01055e+08 -1.69163e+07 -5.63997e-12 7.37069e+06 3.6203e-12 2.69025e+07)
(-7.13857e+06 3.78027e+06 -2.50771e-12 -828947 -2.34252e-12 -1.9769e+06)
(1.0452e+08 -1.4909e+07 -2.40384e-12 6.07128e+06 2.51283e-12 2.74398e+07)
(-1.04514e+08 -1.49063e+07 -1.62711e-12 -6.07007e+06 -5.87439e-13 -2.74382e+07)
(-1.69303e+07 -550541 1.88584e-12 -926252 4.44604e-12 -4.43057e+06)
(-1.85694e+07 -2.15297e+06 -9.48909e-12 7969.62 -1.35047e-12 -4.60548e+06)
(4.99947e+07 242821 -3.36966e-12 6.21747e+06 3.68984e-12 1.39474e+07)
(4.45452e+07 -2.57591e+06 1.21539e-12 1.48936e+06 3.23274e-12 1.14221e+07)
(4.20087e+07 -2.4292e+07 2.24814e-13 1.73158e+07 4.28643e-13 1.47196e+07)
(-4.20041e+07 -2.42891e+07 -3.14174e-13 -1.73139e+07 -1.53505e-13 -1.4718e+07)
(5.2702e+07 -2.06494e+07 1.19767e-12 1.26782e+07 -1.22732e-12 1.62222e+07)
(-5.26993e+07 -2.06468e+07 -6.90658e-13 -1.26755e+07 -4.07661e-13 -1.62208e+07)
(-3.02671e+07 -3.17772e+06 3.01148e-12 -6300.46 -5.4482e-12 -7.51144e+06)
(-3.18804e+07 -847713 2.94462e-12 -2.33961e+06 -6.29169e-13 -8.49068e+06)
(-3.31238e+07 -639367 2.13712e-11 -369722 9.80939e-13 -8.31042e+06)
(3.30867e+07 -626049 -9.10443e-12 661478 8.69131e-12 8.3736e+06)
(3.14444e+07 -2.04078e+06 6.14331e-12 945765 -5.37008e-12 8.03665e+06)
(6.79483e+07 -3.04438e+06 6.36428e-12 2.16338e+06 -9.29401e-12 1.73961e+07)
(-6.79464e+07 -3.04359e+06 -2.79089e-12 -2.16282e+06 -2.54627e-12 -1.73955e+07)
(-6.16708e+07 -1.84609e+06 4.53467e-12 217072 4.14903e-12 -1.52479e+07)
(-2.5563e+07 -2.96854e+06 -1.0122e-11 -32667.3 -1.48984e-12 -6.3508e+06)
(-5.33322e+07 -1.43488e+06 9.69513e-12 -45643.5 3.58884e-12 -1.32441e+07)
(3.67628e+06 -3.33479e+06 1.0382e-11 428637 -1.15137e-11 1.01851e+06)
(-6.28845e+07 -2.17858e+07 -5.63688e-13 -1.17892e+07 -4.81457e-13 -1.85281e+07)
(6.28913e+07 -2.17861e+07 -5.9402e-13 1.17901e+07 4.40318e-13 1.853e+07)
(-9.1742e+07 -1.5198e+07 -4.09749e-13 -7.2781e+06 -8.22168e-13 -2.45689e+07)
(9.17489e+07 -1.52023e+07 2.18956e-12 7.28026e+06 -2.30646e-12 2.45711e+07)
(-2.08963e+07 2.69438e+06 -3.49127e-13 -2.86121e+06 -1.71131e-12 -5.89472e+06)
(2.1636e+06 2.90862e+06 -1.69485e-12 249957 3.16339e-12 598852)
(5.96501e+06 -4.06484e+06 1.47768e-12 175123 4.90105e-11 1.52349e+06)
(-1.1822e+08 -7.75609e+06 7.15177e-12 -1.92595e+06 6.17054e-12 -2.98106e+07)
(1.18222e+08 -7.75653e+06 2.42799e-13 1.92599e+06 4.61565e-13 2.98112e+07)
(-2.17166e+07 -3.12342e+06 -2.35799e-12 162303 4.22992e-11 -5.34805e+06)
(2.16553e+07 -2.84656e+06 0 319536 0 5.4524e+06)
(-3.38266e+07 -2.63123e+06 1.28862e-11 -527326 3.47023e-12 -8.52391e+06)
(2.74009e+06 -2.07781e+06 1.34884e-11 163136 -9.83065e-12 720349)
(-6.65846e+06 3.52895e+06 -3.34572e-12 -1.27201e+06 -1.75331e-12 -1.96771e+06)
(-2.21976e+07 -3.31066e+06 -2.47231e-12 148212 7.07824e-12 -5.47091e+06)
(1.07524e+07 4.85729e+06 3.92967e-13 1.87958e+06 1.56616e-13 3.13425e+06)
(-4.47127e+07 -2.58093e+06 1.04517e-12 -1.50194e+06 3.33964e-12 -1.14668e+07)
(-9.6462e+07 -1.57706e+07 -4.04974e-12 -6.46508e+06 -3.56742e-12 -2.55383e+07)
(9.6468e+07 -1.57741e+07 -2.60855e-12 6.46675e+06 2.78823e-12 2.55402e+07)
(-3.35873e+07 -2.15693e+06 -3.03085e-12 226681 -6.87455e-12 -8.27744e+06)
(-6.12241e+07 -2.15685e+06 -6.96069e-12 -267646 2.33346e-12 -1.52574e+07)
(-6.51821e+07 -1.72083e+06 1.97252e-12 -390328 -4.14519e-14 -1.62698e+07)
(-5.22215e+07 -382623 1.86056e-12 -7.00904e+06 2.29905e-12 -1.46963e+07)
(5.22173e+07 -380050 -1.2689e-12 7.01421e+06 3.06937e-12 1.46965e+07)
(-5.60165e+07 -1.59703e+06 -6.73408e-12 -30898.3 1.37378e-11 -1.39065e+07)
(-1.99877e+07 -3.18831e+06 4.68507e-12 21027.4 -7.27514e-12 -4.95414e+06)
(-9.17217e+07 -1.66021e+07 -3.18136e-12 -8.28956e+06 -3.52537e-12 -2.48148e+07)
(9.17281e+07 -1.66066e+07 2.15868e-13 8.29143e+06 -1.01036e-12 2.48169e+07)
(-2.80523e+07 3.45963e+06 -8.61101e-13 -3.75682e+06 2.58931e-12 -7.89248e+06)
(4.72094e+06 -2.77273e+06 -2.39535e-12 19001.2 -1.19065e-11 1.17607e+06)
(1.17156e+08 -1.48861e+07 1.82604e-12 3.84696e+06 -1.25915e-12 3.00234e+07)
(-1.17152e+08 -1.48849e+07 3.04715e-12 -3.8467e+06 2.96324e-12 -3.00222e+07)
(-6.91862e+07 -591564 -1.20272e-11 -23420.6 8.09422e-14 -1.71723e+07)
(-8.86473e+07 -1.73386e+07 1.1335e-12 -8.10264e+06 9.45083e-13 -2.40056e+07)
(8.86557e+07 -1.73431e+07 6.88097e-13 8.10409e+06 -7.52363e-13 2.40081e+07)
(-3.727e+07 933137 6.39643e-13 -2.716e+06 2.92186e-13 -9.92135e+06)
(3.32734e+07 -2.66239e+06 5.3175e-12 886990 4.02307e-12 8.4759e+06)
(-3.95563e+07 3.84395e+06 1.21429e-12 -4.63168e+06 1.78449e-13 -1.09639e+07)
(9.77719e+07 -1.01348e+06 3.87504e-12 -12747 -7.60395e-13 2.4256e+07)
(-9.77709e+07 -1.01329e+06 7.49957e-12 12693.8 7.12092e-12 -2.42558e+07)
(-1.88835e+07 -1.48418e+07 0 -1.30978e+07 0 -7.93522e+06)
(1.88865e+07 -1.48445e+07 -7.68345e-13 1.30997e+07 2.35188e-13 7.93643e+06)
(-2.50642e+07 101397 2.87926e-12 -2.17037e+06 1.26225e-12 -6.75745e+06)
(-6.81873e+07 -1.91059e+06 -1.73963e-12 -151159 -3.52021e-12 -1.69562e+07)
(9.75611e+07 -382862 3.4195e-12 118956 -6.43542e-12 2.42364e+07)
(-9.75601e+07 -382671 4.20067e-12 -119012 5.3267e-12 -2.42362e+07)
(25618.4 -192714 0 113618 0 34547.5)
(-25453.9 -191799 1.33991e-15 -113118 1.43989e-15 -34382.5)
(2.12217e+07 9.91754e+06 -7.2928e-13 1.73369e+06 5.63063e-14 5.69569e+06)
(-2.67288e+07 -703313 2.84163e-12 -2.38857e+06 -7.27518e-13 -7.22461e+06)
(-1.1295e+07 -5.82348e+06 -3.30339e-13 -1.8585e+06 2.20588e-14 -3.26364e+06)
(1.12985e+07 -5.81873e+06 1.94185e-13 1.85581e+06 8.62333e-14 3.26386e+06)
(-3.28667e+07 3.02951e+06 -1.74634e-12 -4.25906e+06 -2.14762e-12 -9.21165e+06)
(2.53209e+06 3.67222e+06 1.82562e-12 532890 -4.04648e-13 760484)
(6.98902e+06 -3.76048e+06 3.48136e-12 44269.7 3.22955e-12 1.7451e+06)
(-1.04238e+08 -3.26131e+06 2.70547e-12 -727587 1.8973e-12 -2.60441e+07)
(1.0424e+08 -3.26159e+06 3.72295e-12 727623 -5.64801e-12 2.60445e+07)
(-1.81728e+07 -1.51733e+06 1.17951e-11 -80339.7 -5.63808e-12 -4.52898e+06)
(-8.18568e+07 -3.0035e+07 1.03956e-12 -1.1819e+07 1.22753e-12 -2.32429e+07)
(8.1867e+07 -3.00381e+07 1.01788e-13 1.18198e+07 -8.34152e-14 2.32456e+07)
(-3.14476e+07 -1.48157e+06 -3.14664e-12 -46564.9 -1.44196e-11 -7.81433e+06)
(9.1841e+07 -4.49418e+06 -2.19135e-12 2.4654e+06 -1.82486e-12 2.33993e+07)
(-9.18391e+07 -4.49351e+06 4.86779e-12 -2.46511e+06 4.05297e-12 -2.33988e+07)
(7.55473e+07 -5.03271e+06 -7.29776e-13 7.31966e+06 -2.71167e-12 2.0561e+07)
(-7.55454e+07 -5.02982e+06 -2.81759e-12 -7.31691e+06 -3.18116e-12 -2.05598e+07)
(1.94476e+06 -2.91891e+06 2.67521e-14 4.79148e+06 -1.44532e-13 1.6714e+06)
(-1.94495e+06 -2.92054e+06 1.83907e-13 -4.79555e+06 1.35366e-13 -1.67245e+06)
(4.9328e+06 -2.87715e+06 -8.86372e-12 -449157 -1.63097e-11 1.11248e+06)
(9.45715e+07 -3.53634e+06 -1.48041e-12 2.04395e+06 -5.54045e-12 2.39722e+07)
(-9.45696e+07 -3.53575e+06 -2.48588e-12 -2.04373e+06 -9.89628e-13 -2.39717e+07)
(-6.29232e+07 -1.66364e+06 -3.32147e-12 -87008.9 -2.64518e-12 -1.56341e+07)
(9.17343e+07 -2.54313e+06 4.1332e-12 672160 4.15792e-12 2.29279e+07)
(-9.17329e+07 -2.54287e+06 -1.76059e-12 -672056 3.56783e-12 -2.29275e+07)
(1.01194e+08 -209633 6.51414e-12 117579 -1.21351e-11 2.51374e+07)
(3.79088e+07 -2.08931e+06 3.00023e-13 312967 -4.76961e-12 9.48359e+06)
(-1.13686e+08 -1.75167e+07 5.09857e-12 -4.55944e+06 5.09788e-12 -2.9339e+07)
(1.13691e+08 -1.75183e+07 -5.0988e-12 4.55976e+06 5.09816e-12 2.93404e+07)
(4.0345e+07 3.28246e+06 3.29985e-12 5.42738e+06 -1.37804e-12 1.13571e+07)
(6.50448e+07 -2.06428e+06 -3.65994e-13 88380.6 2.21058e-12 1.61609e+07)
(6.43721e+07 -2.13979e+06 -1.20013e-11 170268 1.02031e-11 1.60143e+07)
(-5.12102e+07 -2.65092e+06 -1.11253e-12 -653335 1.75847e-12 -1.28684e+07)
(2.36694e+07 8.6947e+06 1.29576e-12 1.49473e+06 -4.82947e-13 6.24373e+06)
(299347 -3.97499e+06 1.12129e-11 535049 -1.22583e-11 207031)
(-3.50812e+07 5.4736e+06 1.03741e-12 -4.63526e+06 -6.58802e-13 -9.85445e+06)
(5.36663e+07 -822677 -7.98271e-13 -89059.3 9.53959e-12 1.32936e+07)
(-5.01244e+07 -2.11533e+06 7.70398e-13 -517138 -3.35372e-12 -1.25652e+07)
(-1.08636e+08 -7.71256e+06 -3.12918e-12 -4.0128e+06 -2.42166e-12 -2.79504e+07)
(1.08639e+08 -7.71367e+06 4.75956e-12 4.01329e+06 -5.08353e-12 2.79513e+07)
(-2.3341e+07 -3.01078e+06 -7.92529e-12 140920 3.80685e-13 -5.75641e+06)
(-1.73402e+07 8.16932e+06 -1.24837e-12 -2.55565e+06 3.05551e-13 -4.93656e+06)
(-6.86199e+07 -333017 3.18426e-12 3199.37 1.1427e-12 -1.70252e+07)
(-6.9395e+07 -1.13208e+06 -8.05363e-12 -165467 -3.00624e-12 -1.72594e+07)
(8.34562e+07 -1.54383e+06 0 12955.9 0 2.07104e+07)
(-6.35732e+07 -577354 -6.78061e-12 -165947 -4.55511e-12 -1.5815e+07)
(5.51721e+07 -2.84229e+06 -6.68455e-12 2.20725e+06 -3.48496e-13 1.4237e+07)
(-5.51698e+07 -2.84265e+06 2.5274e-12 -2.20549e+06 -2.26431e-12 -1.4236e+07)
(2.17446e+07 4.06575e+06 8.31145e-13 -1.81547e+06 -3.70201e-13 4.94481e+06)
(3.7167e+06 6.50175e+06 -2.15962e-12 855160 1.02184e-12 1.13437e+06)
(5.87267e+07 561852 -1.00557e-11 453491 6.56218e-12 1.46838e+07)
(9.42906e+07 -1.8317e+06 3.11563e-12 653751 -4.12126e-13 2.35576e+07)
(-9.42891e+07 -1.83142e+06 -6.01029e-12 -653613 -4.92617e-12 -2.35572e+07)
(1.03632e+08 -1.46852e+07 -5.75131e-12 5.37756e+06 6.76245e-12 2.70476e+07)
(-1.03627e+08 -1.46827e+07 -2.84706e-13 -5.37655e+06 -1.55617e-12 -2.7046e+07)
(7.83586e+06 -1.73628e+06 -1.09596e-12 241870 3.87516e-12 2.00425e+06)
(-1.49202e+07 8.82031e+06 -4.90251e-12 -1.66296e+06 -7.50394e-13 -4.11462e+06)
(8.05339e+07 -2.71101e+07 -2.01862e-13 1.24513e+07 1.72878e-13 2.30715e+07)
(-8.05237e+07 -2.71078e+07 1.4031e-13 -1.2451e+07 -2.11376e-13 -2.30689e+07)
(4.07817e+07 -1.14898e+06 2.30231e-11 698880 -1.18412e-12 1.02922e+07)
(-2.35972e+07 -1.82817e+06 8.65262e-12 -1.03239e+06 3.35883e-12 -6.1111e+06)
(-4.41636e+07 -1.62936e+06 1.15679e-12 66527.9 3.58866e-12 -1.09414e+07)
(1.0387e+07 -1.87799e+06 -6.00517e-12 185094 1.61802e-12 2.62314e+06)
(6.07799e+06 -2.62364e+06 -2.23541e-12 -113385 -1.04355e-11 1.47994e+06)
(-6.37057e+07 -2.10353e+07 -5.27198e-14 -1.1002e+07 -1.52656e-13 -1.85365e+07)
(6.37127e+07 -2.10354e+07 -3.32117e-14 1.10024e+07 1.18224e-13 1.85383e+07)
(-5.51001e+07 -2.0511e+06 -7.25855e-12 -1.51549e+06 -7.20988e-12 -1.40475e+07)
(5.51045e+07 -2.0519e+06 1.19643e-12 1.51279e+06 -9.11217e-12 1.40479e+07)
(4.65628e+07 -2.69879e+06 -2.27069e-11 -291275 -3.92249e-12 1.14809e+07)
(-5.72521e+07 -2.18473e+06 2.33721e-12 -12910.1 4.94564e-12 -1.42086e+07)
(1.14801e+07 -3.26266e+06 3.08717e-11 -164908 -2.74255e-11 2.80752e+06)
(-1.12264e+07 -3.12988e+06 -4.65367e-12 31184.8 -7.54919e-13 -2.77775e+06)
(-23282.9 -74252.7 -2.07633e-14 -856010 -2.29581e-14 -218170)
(22727.4 -73590.2 -2.20743e-14 859678 2.23721e-14 218943)
(-2.37282e+07 -2.37613e+06 -6.17432e-12 -71023.2 -4.73042e-12 -5.90508e+06)
(-2.95653e+07 -2.02941e+06 1.47053e-11 -179950 1.08293e-11 -7.3804e+06)
(1.35991e+07 1.17063e+07 -3.06936e-12 460202 1.39073e-13 3.4884e+06)
(4.69311e+07 -4.56079e+06 -2.65773e-14 4.96409e+06 -2.44186e-13 1.28762e+07)
(2.59117e+06 -1.53436e+06 -8.92269e-12 -332376 -9.19496e-12 560453)
(-2.27943e+07 -3.04e+06 3.97227e-12 -201188 -5.14735e-13 -5.70564e+06)
(-8.98341e+07 -5.38328e+06 -6.27473e-13 -4.21532e+06 -4.23012e-12 -2.33356e+07)
(8.98362e+07 -5.38424e+06 2.81556e-12 4.21585e+06 -1.50253e-12 2.33362e+07)
(-1.04314e+08 -1.13931e+06 0 19325.5 0 -2.58776e+07)
(1.04315e+08 -1.13935e+06 -1.57098e-12 -19330.6 3.3686e-12 2.58779e+07)
(-5.06845e+07 -2.19582e+06 -5.28711e-12 89125.8 6.89675e-12 -1.25537e+07)
(6.74697e+07 -2.13477e+06 2.99467e-12 104701 1.25006e-12 1.67666e+07)
(-9.7676e+07 -1.00022e+06 3.14504e-12 87705.9 -3.4485e-13 -2.42136e+07)
(9.76771e+07 -1.00027e+06 0 -87688 0 2.42139e+07)
(1.51106e+06 -1.71997e+06 -1.27777e-13 2.38507e+06 4.57015e-14 966707)
(8.72631e+06 1.11098e+07 -1.32244e-12 619723 -1.5542e-15 2.31894e+06)
(-9.00922e+07 -1.30322e+07 9.75323e-13 -7.15771e+06 3.15338e-13 -2.41297e+07)
(9.0097e+07 -1.30361e+07 0 7.15981e+06 0 2.41314e+07)
(-1.36701e+07 -369242 -2.0102e-13 2.70961e+06 2.29111e-14 -2.71953e+06)
(1.54177e+07 -7.41232e+06 3.69156e-14 2.76341e+06 -2.6284e-14 4.51111e+06)
(-1.5411e+07 -7.40939e+06 -1.47732e-14 -2.77139e+06 1.65832e-13 -4.51143e+06)
(3.31495e+07 2.60049e+06 -5.05281e-12 4.88899e+06 2.31283e-12 9.43812e+06)
(3.39593e+07 -2.68353e+06 -1.0115e-11 317896 -7.00474e-13 8.50486e+06)
(-6.57102e+06 -3.91295e+06 -4.04909e-12 425158 -1.10216e-11 -1.52491e+06)
(-205783 -1.95772e+06 2.73882e-11 587765 8.66485e-12 94777.6)
(-906.73 24119.3 5.09305e-14 500122 -6.61066e-14 123866)
(917.618 23111.3 -5.08832e-14 -498462 -6.5934e-14 -123451)
(949332 -2.54867e+06 1.74346e-13 6.7607e+06 1.7773e-13 1.91302e+06)
(-950008 -2.55058e+06 4.20264e-13 -6.76626e+06 2.01812e-13 -1.91456e+06)
(4.57613e+07 -2.61395e+06 4.95015e-12 177688 -2.35314e-12 1.13984e+07)
(-5.11157e+07 -2.41889e+06 -1.92757e-12 -3.82318e+06 -6.82451e-12 -1.36315e+07)
(5.11184e+07 -2.42042e+06 5.6059e-13 3.82321e+06 9.07986e-14 1.36321e+07)
(1.4396e+06 281201 -5.50382e-12 146452 -4.57627e-12 393532)
(3.31733e+07 -2.95072e+06 2.16716e-12 145428 -5.0487e-12 8.26705e+06)
(1.97573e+06 -2.47223e+06 -5.60801e-14 2.9159e+06 -2.93607e-14 1.21371e+06)
(-1.97778e+06 -2.48262e+06 -8.77779e-14 -2.92318e+06 -7.59294e-14 -1.21603e+06)
(-4.14303e+07 2.47867e+06 1.06305e-12 -6.26006e+06 -2.09665e-12 -1.1833e+07)
(-2.78557e+07 6.01523e+06 1.12412e-12 135501 7.57733e-13 -6.87795e+06)
(-2.22187e+07 1.5104e+06 -7.37509e-13 2.60892e+06 -4.44926e-13 -4.86559e+06)
(3.44617e+07 -3.07693e+06 -9.55921e-13 -51719.7 1.47494e-12 8.53781e+06)
(-7.94672e+07 -412519 5.97256e-12 -116207 -7.46407e-13 -1.97463e+07)
(1.05878e+07 -2.47357e+06 -1.60443e-12 20306.5 -7.64998e-12 2.63209e+06)
(4.6407e+07 1.78044e+06 -4.04993e-12 5.4224e+06 3.87906e-12 1.28599e+07)
(-5.5692e+07 -3.54482e+06 5.87063e-13 -6.21448e+06 8.4031e-13 -1.53602e+07)
(-1.95706e+07 6.03299e+06 -1.32736e-13 -2.71244e+06 5.06672e-13 -5.52888e+06)
(5.56835e+07 -3.45766e+06 -2.7266e-12 6.11422e+06 2.0155e-12 1.53333e+07)
(-9.05114e+07 -887044 -7.40876e-12 485758 -1.82739e-13 -2.23372e+07)
(9.12964e+06 -2.19011e+06 -3.37726e-13 732856 1.84885e-13 2.44709e+06)
(3.86771e+07 -1.75867e+06 -1.00537e-11 248452 -3.24156e-12 9.65821e+06)
(-3.31103e+07 -2.30274e+07 -5.6994e-13 -1.87631e+07 -1.7632e-13 -1.28709e+07)
(3.31141e+07 -2.30302e+07 -9.493e-13 1.87657e+07 5.4023e-13 1.28724e+07)
(-1.79892e+07 -820757 7.66189e-13 -1.47215e+06 2.84884e-12 -4.82876e+06)
(1.16118e+07 1.05102e+07 -2.14342e-12 913423 8.63863e-14 3.10777e+06)
(8.54456e+07 -7.7713e+06 -1.25993e-13 6.91118e+06 7.33836e-13 2.29156e+07)
(-8.5443e+07 -7.76861e+06 -1.62964e-12 -6.90933e+06 -8.18934e-13 -2.29145e+07)
(-6.65741e+07 -680733 2.58981e-11 520934 1.87741e-12 -1.63891e+07)
(6.68821e+07 -658979 -1.41179e-11 -543550 2.07817e-11 1.64599e+07)
(67039.7 -180900 0 134003 0 49882.8)
(-66695.5 -180041 2.20838e-15 -133420 1.68434e-14 -49652.6)
(-3.6109e+07 5.16294e+06 -2.18773e-12 -4.05989e+06 -1.78853e-12 -9.96671e+06)
(1.93657e+07 -1.85031e+07 -6.02678e-13 1.81373e+07 2.58898e-13 9.30526e+06)
(-1.93628e+07 -1.85002e+07 1.28246e-12 -1.81343e+07 8.10635e-13 -9.30377e+06)
(-2.84241e+07 -1.15618e+06 -3.17395e-12 411532 1.58325e-11 -6.95049e+06)
(1.32959e+07 -1.54797e+06 3.04563e-12 358554 6.90481e-12 3.38795e+06)
(-5.14027e+07 -2.62901e+06 3.9003e-12 -409224 -6.72403e-12 -1.28556e+07)
(5.14257e+07 -2.64769e+06 -6.0511e-13 359937 7.83163e-12 1.28491e+07)
(9.73482e+07 -3.86339e+06 4.43595e-13 1.88487e+06 -1.93055e-12 2.46217e+07)
(-9.73464e+07 -3.86284e+06 -2.72258e-12 -1.88464e+06 -1.09891e-12 -2.46212e+07)
(-36592.3 -6491.57 2.89205e-14 124437 -1.26452e-13 21796)
(36617.2 -6417.75 -2.14403e-14 -123398 -4.51743e-14 -21532.1)
(6.43173e+06 1.28188e+07 -7.94042e-13 -173114 -4.4025e-13 1.55289e+06)
(-1.13458e+08 -6.7464e+06 5.00351e-12 -3.15785e+06 1.30615e-12 -2.89348e+07)
(1.13461e+08 -6.7471e+06 -5.61498e-12 3.15813e+06 9.67195e-12 2.89355e+07)
(-5.94168e+06 -2.20227e+06 8.908e-13 -64796.9 -4.14389e-12 -1.49033e+06)
(-4.4486e+07 -97315.9 1.58241e-12 -3.61827e+06 9.07936e-13 -1.19356e+07)
(-9.46178e+07 -581543 1.69016e-12 -206846 3.00949e-12 -2.35279e+07)
(9.4619e+07 -581677 -4.99628e-12 206831 7.52388e-12 2.35282e+07)
(-9.98046e+07 -2.27837e+07 7.01886e-14 -8.16724e+06 -1.12204e-13 -2.679e+07)
(9.98135e+07 -2.27875e+07 2.02747e-12 8.16864e+06 -1.35797e-12 2.67926e+07)
(1.9182e+07 -3.41609e+06 -9.53495e-12 -234414 2.18556e-11 4.70127e+06)
(-4.12372e+07 -2.83817e+06 4.30187e-12 207847 2.71688e-12 -1.01802e+07)
(-6.73546e+06 1.09357e+07 1.20819e-12 -687839 -5.33744e-13 -1.84187e+06)
(-2.86733e+07 -1.86061e+07 -5.6239e-13 -1.41651e+07 -3.36262e-13 -1.06291e+07)
(2.86765e+07 -1.86088e+07 5.62523e-13 1.41682e+07 -3.3618e-13 1.06306e+07)
(-1.12245e+08 -6.15843e+06 -3.67748e-12 -1.93278e+06 -2.90941e-12 -2.83298e+07)
(1.12247e+08 -6.15889e+06 -2.32536e-12 1.93285e+06 6.34685e-13 2.83303e+07)
(-1.88038e+07 9.63136e+06 -1.90921e-12 -1.01195e+06 -3.50773e-13 -4.91668e+06)
(-6.32916e+07 -2.33839e+06 0 -477721 0 -1.58225e+07)
(-2.32532e+07 1.76456e+06 -1.77551e-13 1.46656e+06 -1.18453e-13 -5.4057e+06)
(-6.429e+07 -1.84772e+06 9.66757e-12 184016 -3.81642e-12 -1.5906e+07)
(-6.39315e+07 -1.91675e+06 -6.17321e-12 -427961 -8.8178e-12 -1.59689e+07)
(-3.81871e+07 1.53947e+06 -2.34407e-12 -5.45832e+06 -1.55467e-12 -1.08293e+07)
(-4.19756e+07 -586395 7.27271e-12 -86200.8 -5.57995e-12 -1.04364e+07)
(4.20455e+07 -813052 4.07855e-12 4.42951e+06 -2.86754e-12 1.15314e+07)
(3.20823e+07 -1.95651e+06 4.42826e-12 73386.8 -5.44547e-12 7.97848e+06)
(-4.20404e+07 -814470 3.07224e-12 -4.43166e+06 1.35262e-12 -1.15307e+07)
(1.10261e+08 -1.38331e+07 3.38161e-12 5.28089e+06 -2.10298e-12 2.86683e+07)
(-1.10256e+08 -1.38311e+07 1.53337e-12 -5.28009e+06 6.22268e-13 -2.86669e+07)
(-3.37941e+07 5.12115e+06 -3.91049e-13 -4.78503e+06 1.66481e-12 -9.57226e+06)
(1.32037e+07 2.78855e+06 -1.69159e-12 2.1021e+06 1.2582e-12 3.79769e+06)
(1.82768e+07 -2.05819e+06 -1.33004e-12 142128 2.26332e-11 4.5701e+06)
(-6.56055e+07 -2.45308e+06 6.07062e-12 46080.6 -3.41451e-12 -1.62666e+07)
(-5.27454e+07 -739780 -1.49848e-12 -6.55666e+06 -8.43081e-13 -1.4714e+07)
(-3.69428e+06 4.22176e+06 1.47092e-13 1.21699e+06 -9.86129e-14 -614665)
(-3.31535e+07 6.45902e+06 -1.80417e-12 -3.91436e+06 -4.15905e-13 -9.19729e+06)
(1.2401e+07 -2.61442e+06 2.60985e-11 52531.2 -2.3216e-11 3.08997e+06)
(4.46019e+07 -126343 6.96352e-13 3.78948e+06 -1.33001e-12 1.20069e+07)
(4.63713e+06 -3.85167e+06 -6.91713e-12 153741 -2.10715e-11 1.18871e+06)
(2.00666e+06 1.18204e+07 -7.16217e-13 118220 5.47802e-13 527226)
(-9.76281e+06 -3.39017e+06 1.23793e-12 88763.8 -1.26021e-11 -2.40033e+06)
(4.08819e+07 -1.84152e+06 6.49581e-13 430577 3.96452e-12 1.02505e+07)
(2.22071e+07 -1.72248e+06 -1.56522e-11 449218 -2.87097e-13 5.62148e+06)
(-9.32851e+07 -688263 -9.8427e-12 -31015.1 -1.30571e-11 -2.31536e+07)
(-4.39025e+07 -1.69214e+06 0 -381331 0 -1.09877e+07)
(7.49338e+07 -5.57874e+06 8.05045e-13 7.7379e+06 -1.75074e-12 2.05125e+07)