0 	31.616 	-2.70953e-07 	-3.51304e-19
0.000254254 	31.6217 	-2.70795e-07 	1.11505e-15
0.000508509 	31.6274 	-2.70795e-07 	1.11505e-15
0.000762763 	31.6331 	-2.70795e-07 	1.11505e-15
0.00101702 	31.6388 	-2.70795e-07 	1.11505e-15
0.00127127 	31.6445 	-2.70795e-07 	1.11505e-15
0.00152553 	31.6502 	-2.70795e-07 	1.11505e-15
0.00177978 	31.6559 	-2.70795e-07 	1.11505e-15
0.00203403 	31.6615 	-2.70795e-07 	1.11505e-15
0.00228829 	31.6672 	-2.70795e-07 	1.11505e-15
0.00254254 	31.6729 	-2.70795e-07 	1.11505e-15
0.0027968 	31.6862 	-2.76251e-07 	1.11446e-15
0.00305105 	31.7003 	-2.76251e-07 	1.11446e-15
0.00330531 	31.7144 	-2.76251e-07 	1.11446e-15
0.00355956 	31.7284 	-2.76251e-07 	1.11446e-15
0.00381381 	31.7425 	-2.76251e-07 	1.11445e-15
0.00406807 	31.7565 	-2.76251e-07 	1.11445e-15
0.00432232 	31.7706 	-2.76251e-07 	1.11445e-15
0.00457658 	31.7847 	-2.76251e-07 	1.11445e-15
0.00483083 	31.7987 	-2.76251e-07 	1.11445e-15
0.00508509 	31.8128 	-2.76251e-07 	1.11445e-15
0.00533934 	31.8294 	-2.99502e-07 	1.14635e-15
0.00559359 	31.8465 	-2.99502e-07 	1.14635e-15
0.00584785 	31.8637 	-2.99502e-07 	1.14635e-15
0.0061021 	31.8809 	-2.99502e-07 	1.14635e-15
0.00635636 	31.898 	-2.99502e-07 	1.14635e-15
0.00661061 	31.9152 	-2.99502e-07 	1.14635e-15
0.00686486 	31.9324 	-2.99502e-07 	1.14634e-15
0.00711912 	31.9496 	-2.99502e-07 	1.14634e-15
0.00737337 	31.9667 	-2.99502e-07 	1.14634e-15
0.00762763 	31.9839 	-2.99502e-07 	1.14634e-15
0.00788188 	32.0018 	-3.39609e-07 	1.1483e-15
0.00813614 	32.02 	-3.39609e-07 	1.1483e-15
0.00839039 	32.0382 	-3.39609e-07 	1.1483e-15
0.00864464 	32.0564 	-3.39609e-07 	1.1483e-15
0.0088989 	32.0746 	-3.39609e-07 	1.1483e-15
0.00915315 	32.0928 	-3.39609e-07 	1.14829e-15
0.00940741 	32.1111 	-3.39609e-07 	1.14829e-15
0.00966166 	32.1293 	-3.39609e-07 	1.14829e-15
0.00991592 	32.1475 	-3.39609e-07 	1.14829e-15
0.0101702 	32.1657 	-3.39609e-07 	1.14829e-15
0.0104244 	32.185 	-3.92714e-07 	1.19513e-15
0.0106787 	32.2051 	-3.92714e-07 	1.19513e-15
0.0109329 	32.2251 	-3.92714e-07 	1.19513e-15
0.0111872 	32.2451 	-3.92714e-07 	1.19513e-15
0.0114414 	32.2652 	-3.92714e-07 	1.19513e-15
0.0116957 	32.2852 	-3.92714e-07 	1.19512e-15
0.0119499 	32.3052 	-3.92714e-07 	1.19512e-15
0.0122042 	32.3252 	-3.92714e-07 	1.19512e-15
0.0124585 	32.3453 	-3.92714e-07 	1.19512e-15
0.0127127 	32.3653 	-3.92714e-07 	1.19512e-15
0.012967 	32.3869 	-4.55375e-07 	1.24794e-15
0.0132212 	32.4098 	-4.55375e-07 	1.24794e-15
0.0134755 	32.4328 	-4.55375e-07 	1.24793e-15
0.0137297 	32.4557 	-4.55375e-07 	1.24793e-15
0.013984 	32.4786 	-4.55375e-07 	1.24793e-15
0.0142382 	32.5015 	-4.55375e-07 	1.24793e-15
0.0144925 	32.5245 	-4.55375e-07 	1.24793e-15
0.0147467 	32.5474 	-4.55375e-07 	1.24793e-15
0.015001 	32.5703 	-4.55375e-07 	1.24793e-15
0.0152553 	32.5932 	-4.55375e-07 	1.24792e-15
0.0155095 	32.6178 	-5.24998e-07 	1.25082e-15
0.0157638 	32.6443 	-5.24998e-07 	1.25082e-15
0.016018 	32.6708 	-5.24998e-07 	1.25082e-15
0.0162723 	32.6973 	-5.24998e-07 	1.25082e-15
0.0165265 	32.7238 	-5.24998e-07 	1.25082e-15
0.0167808 	32.7503 	-5.24998e-07 	1.25081e-15
0.017035 	32.7768 	-5.24998e-07 	1.25081e-15
0.0172893 	32.8033 	-5.24998e-07 	1.25081e-15
0.0175435 	32.8298 	-5.24998e-07 	1.25081e-15
0.0177978 	32.8564 	-5.24998e-07 	1.25081e-15
0.0180521 	32.8843 	-5.99776e-07 	1.25543e-15
0.0183063 	32.9148 	-5.99776e-07 	1.25543e-15
0.0185606 	32.9452 	-5.99776e-07 	1.25543e-15
0.0188148 	32.9757 	-5.99776e-07 	1.25543e-15
0.0190691 	33.0061 	-5.99776e-07 	1.25543e-15
0.0193233 	33.0366 	-5.99776e-07 	1.25542e-15
0.0195776 	33.067 	-5.99776e-07 	1.25542e-15
0.0198318 	33.0975 	-5.99776e-07 	1.25542e-15
0.0200861 	33.128 	-5.99776e-07 	1.25542e-15
0.0203403 	33.1584 	-5.99776e-07 	1.25542e-15
0.0205946 	33.19 	-6.78573e-07 	1.26217e-15
0.0208488 	33.2247 	-6.78573e-07 	1.26217e-15
0.0211031 	33.2593 	-6.78573e-07 	1.26217e-15
0.0213574 	33.2939 	-6.78573e-07 	1.26216e-15
0.0216116 	33.3286 	-6.78573e-07 	1.26216e-15
0.0218659 	33.3632 	-6.78573e-07 	1.26216e-15
0.0221201 	33.3979 	-6.78573e-07 	1.26216e-15
0.0223744 	33.4325 	-6.78573e-07 	1.26215e-15
0.0226286 	33.4671 	-6.78573e-07 	1.26215e-15
0.0228829 	33.5018 	-6.78573e-07 	1.26215e-15
0.0231371 	33.5372 	-7.6073e-07 	1.27057e-15
0.0233914 	33.5762 	-7.6073e-07 	1.27056e-15
0.0236456 	33.6152 	-7.6073e-07 	1.27056e-15
0.0238999 	33.6542 	-7.6073e-07 	1.27056e-15
0.0241542 	33.6933 	-7.6073e-07 	1.27056e-15
0.0244084 	33.7323 	-7.6073e-07 	1.27055e-15
0.0246627 	33.7713 	-7.6073e-07 	1.27055e-15
0.0249169 	33.8103 	-7.6073e-07 	1.27055e-15
0.0251712 	33.8493 	-7.6073e-07 	1.27055e-15
0.0254254 	33.8883 	-7.6073e-07 	1.27054e-15
0.0256797 	33.9277 	-8.45677e-07 	1.28063e-15
0.0259339 	33.9713 	-8.45677e-07 	1.28062e-15
0.0261882 	34.0148 	-8.45677e-07 	1.28062e-15
0.0264424 	34.0584 	-8.45677e-07 	1.28062e-15
0.0266967 	34.1019 	-8.45677e-07 	1.28062e-15
0.026951 	34.1455 	-8.45677e-07 	1.28061e-15
0.0272052 	34.1891 	-8.45677e-07 	1.28061e-15
0.0274595 	34.2326 	-8.45677e-07 	1.28061e-15
0.0277137 	34.2762 	-8.45677e-07 	1.2806e-15
0.027968 	34.3197 	-8.45677e-07 	1.2806e-15
0.0282222 	34.3633 	-9.82918e-07 	-2.06683e-18
0.0284765 	34.4116 	-9.31975e-07 	1.29253e-15
0.0287307 	34.4598 	-9.31975e-07 	1.29253e-15
0.028985 	34.5081 	-9.31975e-07 	1.29253e-15
0.0292392 	34.5564 	-9.31975e-07 	1.29252e-15
0.0294935 	34.6047 	-9.31975e-07 	1.29252e-15
0.0297477 	34.653 	-9.31975e-07 	1.29252e-15
0.030002 	34.7012 	-9.31975e-07 	1.29251e-15
0.0302563 	34.7495 	-9.31975e-07 	1.29251e-15
0.0305105 	34.7978 	-9.31975e-07 	1.29251e-15
0.0307648 	34.8461 	-9.31975e-07 	1.29251e-15
0.031019 	34.8988 	-1.01751e-06 	1.35695e-15
0.0312733 	34.952 	-1.01751e-06 	1.35694e-15
0.0315275 	35.0052 	-1.01751e-06 	1.35694e-15
0.0317818 	35.0584 	-1.01751e-06 	1.35694e-15
0.032036 	35.1116 	-1.01751e-06 	1.35693e-15
0.0322903 	35.1648 	-1.01751e-06 	1.35693e-15
0.0325445 	35.2179 	-1.01751e-06 	1.35693e-15
0.0327988 	35.2711 	-1.01751e-06 	1.35692e-15
0.0330531 	35.3243 	-1.01751e-06 	1.35692e-15
0.0333073 	35.3775 	-1.01751e-06 	1.35692e-15
0.0335616 	35.4348 	-1.10468e-06 	1.31911e-15
0.0338158 	35.4931 	-1.10468e-06 	1.31911e-15
0.0340701 	35.5514 	-1.10468e-06 	1.31911e-15
0.0343243 	35.6097 	-1.10468e-06 	1.3191e-15
0.0345786 	35.6679 	-1.10468e-06 	1.3191e-15
0.0348328 	35.7262 	-1.10468e-06 	1.31909e-15
0.0350871 	35.7845 	-1.10468e-06 	1.31909e-15
0.0353413 	35.8428 	-1.10468e-06 	1.31909e-15
0.0355956 	35.901 	-1.10468e-06 	1.31908e-15
0.0358498 	35.9593 	-1.10468e-06 	1.31908e-15
0.0361041 	36.0214 	-1.19444e-06 	1.37427e-15
0.0363584 	36.085 	-1.19444e-06 	1.37427e-15
0.0366126 	36.1486 	-1.19444e-06 	1.37426e-15
0.0368669 	36.2121 	-1.19444e-06 	1.37426e-15
0.0371211 	36.2757 	-1.19444e-06 	1.37425e-15
0.0373754 	36.3392 	-1.19444e-06 	1.37425e-15
0.0376296 	36.4028 	-1.19444e-06 	1.37425e-15
0.0378839 	36.4664 	-1.19444e-06 	1.37424e-15
0.0381381 	36.5299 	-1.19444e-06 	1.37424e-15
0.0383924 	36.5935 	-1.19444e-06 	1.37423e-15
0.0386466 	36.6605 	-1.28846e-06 	1.4432e-15
0.0389009 	36.7296 	-1.28846e-06 	1.44319e-15
0.0391552 	36.7986 	-1.28846e-06 	1.44319e-15
0.0394094 	36.8677 	-1.28846e-06 	1.44318e-15
0.0396637 	36.9367 	-1.28846e-06 	1.44318e-15
0.0399179 	37.0058 	-1.28846e-06 	1.44317e-15
0.0401722 	37.0748 	-1.28846e-06 	1.44317e-15
0.0404264 	37.1438 	-1.28846e-06 	1.44317e-15
0.0406807 	37.2129 	-1.28846e-06 	1.44316e-15
0.0409349 	37.2819 	-1.28846e-06 	1.44316e-15
0.0411892 	37.3541 	-1.38619e-06 	1.50902e-15
0.0414434 	37.4288 	-1.38619e-06 	1.50901e-15
0.0416977 	37.5036 	-1.38619e-06 	1.50901e-15
0.041952 	37.5783 	-1.38619e-06 	1.509e-15
0.0422062 	37.6531 	-1.38619e-06 	1.509e-15
0.0424605 	37.7278 	-1.38619e-06 	1.509e-15
0.0427147 	37.8026 	-1.38619e-06 	1.50899e-15
0.042969 	37.8773 	-1.38619e-06 	1.50899e-15
0.0432232 	37.952 	-1.38619e-06 	1.50898e-15
0.0434775 	38.0268 	-1.38619e-06 	1.50898e-15
0.0437317 	38.1042 	-1.48736e-06 	1.54635e-15
0.043986 	38.1849 	-1.48736e-06 	1.54635e-15
0.0442402 	38.2656 	-1.48736e-06 	1.54634e-15
0.0444945 	38.3462 	-1.48736e-06 	1.54634e-15
0.0447487 	38.4269 	-1.48736e-06 	1.54633e-15
0.045003 	38.5076 	-1.48736e-06 	1.54633e-15
0.0452573 	38.5882 	-1.48736e-06 	1.54632e-15
0.0455115 	38.6689 	-1.48736e-06 	1.54632e-15
0.0457658 	38.7496 	-1.48736e-06 	1.54631e-15
0.04602 	38.8302 	-1.48736e-06 	1.5463e-15
0.0462743 	38.9131 	-1.59189e-06 	1.5325e-15
0.0465285 	39 	-1.59189e-06 	1.5325e-15
0.0467828 	39.0868 	-1.59189e-06 	1.53249e-15
0.047037 	39.1736 	-1.59189e-06 	1.53249e-15
0.0472913 	39.2605 	-1.59189e-06 	1.53248e-15
0.0475455 	39.3473 	-1.59189e-06 	1.53248e-15
0.0477998 	39.4341 	-1.59189e-06 	1.53247e-15
0.0480541 	39.5209 	-1.59189e-06 	1.53246e-15
0.0483083 	39.6078 	-1.59189e-06 	1.53246e-15
0.0485626 	39.6946 	-1.59189e-06 	1.53245e-15
0.0488168 	39.7832 	-1.6996e-06 	1.51883e-15
0.0490711 	39.8764 	-1.6996e-06 	1.51882e-15
0.0493253 	39.9696 	-1.6996e-06 	1.51882e-15
0.0495796 	40.0628 	-1.6996e-06 	1.51881e-15
0.0498338 	40.1561 	-1.6996e-06 	1.5188e-15
0.0500881 	40.2493 	-1.6996e-06 	1.5188e-15
0.0503423 	40.3425 	-1.6996e-06 	1.51879e-15
0.0505966 	40.4357 	-1.6996e-06 	1.51879e-15
0.0508509 	40.529 	-1.6996e-06 	1.51878e-15
0.0511051 	40.6222 	-1.6996e-06 	1.51877e-15
0.0513594 	40.7166 	-1.81016e-06 	1.55219e-15
0.0516136 	40.8165 	-1.81016e-06 	1.55218e-15
0.0518679 	40.9164 	-1.81016e-06 	1.55218e-15
0.0521221 	41.0162 	-1.81016e-06 	1.55217e-15
0.0523764 	41.1161 	-1.81016e-06 	1.55217e-15
0.0526306 	41.216 	-1.81016e-06 	1.55216e-15
0.0528849 	41.3159 	-1.81016e-06 	1.55215e-15
0.0531391 	41.4157 	-1.81016e-06 	1.55215e-15
0.0533934 	41.5156 	-1.81016e-06 	1.55214e-15
0.0536476 	41.6155 	-1.81016e-06 	1.55213e-15
0.0539019 	41.716 	-1.9231e-06 	1.54044e-15
0.0541562 	41.8228 	-1.9231e-06 	1.54043e-15
0.0544104 	41.9295 	-1.9231e-06 	1.54042e-15
0.0546647 	42.0363 	-1.9231e-06 	1.54042e-15
0.0549189 	42.1431 	-1.9231e-06 	1.54041e-15
0.0551732 	42.2498 	-1.9231e-06 	1.5404e-15
0.0554274 	42.3566 	-1.9231e-06 	1.5404e-15
0.0556817 	42.4634 	-1.9231e-06 	1.54039e-15
0.0559359 	42.5702 	-1.9231e-06 	1.54038e-15
0.0561902 	42.6769 	-1.9231e-06 	1.54038e-15
0.0564444 	42.7837 	-2.29352e-06 	-2.02122e-18
0.0566987 	42.8976 	-2.0377e-06 	1.57303e-15
0.056953 	43.0116 	-2.0377e-06 	1.57303e-15
0.0572072 	43.1255 	-2.0377e-06 	1.57302e-15
0.0574615 	43.2394 	-2.0377e-06 	1.57301e-15
0.0577157 	43.3533 	-2.0377e-06 	1.573e-15
0.05797 	43.4672 	-2.0377e-06 	1.573e-15
0.0582242 	43.5812 	-2.0377e-06 	1.57299e-15
0.0584785 	43.6951 	-2.0377e-06 	1.57298e-15
0.0587327 	43.809 	-2.0377e-06 	1.57298e-15
0.058987 	43.9229 	-2.0377e-06 	1.57297e-15
0.0592412 	44.0436 	-2.15289e-06 	1.6064e-15
0.0594955 	44.1649 	-2.15289e-06 	1.60639e-15
0.0597497 	44.2862 	-2.15289e-06 	1.60638e-15
0.060004 	44.4075 	-2.15289e-06 	1.60638e-15
0.0602583 	44.5289 	-2.15289e-06 	1.60637e-15
0.0605125 	44.6502 	-2.15289e-06 	1.60636e-15
0.0607668 	44.7715 	-2.15289e-06 	1.60635e-15
0.061021 	44.8928 	-2.15289e-06 	1.60635e-15
0.0612753 	45.0141 	-2.15289e-06 	1.60634e-15
0.0615295 	45.1355 	-2.15289e-06 	1.60633e-15
0.0617838 	45.263 	-2.26864e-06 	1.69916e-15
0.062038 	45.392 	-2.26864e-06 	1.69915e-15
0.0622923 	45.5209 	-2.26864e-06 	1.69914e-15
0.0625465 	45.6499 	-2.26864e-06 	1.69913e-15
0.0628008 	45.7788 	-2.26864e-06 	1.69912e-15
0.0630551 	45.9078 	-2.26864e-06 	1.69911e-15
0.0633093 	46.0367 	-2.26864e-06 	1.69911e-15
0.0635636 	46.1657 	-2.26864e-06 	1.6991e-15
0.0638178 	46.2946 	-2.26864e-06 	1.69909e-15
0.0640721 	46.4236 	-2.26864e-06 	1.69908e-15
0.0643263 	46.5582 	-2.38444e-06 	1.68203e-15
0.0645806 	46.695 	-2.38444e-06 	1.68202e-15
0.0648348 	46.8318 	-2.38444e-06 	1.68201e-15
0.0650891 	46.9686 	-2.38444e-06 	1.682e-15
0.0653433 	47.1054 	-2.38444e-06 	1.68199e-15
0.0655976 	47.2422 	-2.38444e-06 	1.68198e-15
0.0658519 	47.379 	-2.38444e-06 	1.68198e-15
0.0661061 	47.5158 	-2.38444e-06 	1.68197e-15
0.0663604 	47.6526 	-2.38444e-06 	1.68196e-15
0.0666146 	47.7894 	-2.38444e-06 	1.68195e-15
0.0668689 	47.9313 	-2.49909e-06 	1.73127e-15
0.0671231 	48.0762 	-2.49909e-06 	1.73126e-15
0.0673774 	48.221 	-2.49909e-06 	1.73125e-15
0.0676316 	48.3659 	-2.49909e-06 	1.73124e-15
0.0678859 	48.5108 	-2.49909e-06 	1.73123e-15
0.0681401 	48.6556 	-2.49909e-06 	1.73122e-15
0.0683944 	48.8005 	-2.49909e-06 	1.73121e-15
0.0686486 	48.9453 	-2.49909e-06 	1.73121e-15
0.0689029 	49.0902 	-2.49909e-06 	1.7312e-15
0.0691572 	49.2351 	-2.49909e-06 	1.73119e-15
0.0694114 	49.3845 	-2.61271e-06 	1.77944e-15
0.0696657 	49.5377 	-2.61271e-06 	1.77943e-15
0.0699199 	49.6909 	-2.61271e-06 	1.77942e-15
0.0701742 	49.8441 	-2.61271e-06 	1.77941e-15
0.0704284 	49.9973 	-2.61271e-06 	1.7794e-15
0.0706827 	50.1505 	-2.61271e-06 	1.77939e-15
0.0709369 	50.3036 	-2.61271e-06 	1.77938e-15
0.0711912 	50.4568 	-2.61271e-06 	1.77937e-15
0.0714454 	50.61 	-2.61271e-06 	1.77936e-15
0.0716997 	50.7632 	-2.61271e-06 	1.77935e-15
0.071954 	50.9203 	-2.70735e-06 	1.82838e-15
0.0722082 	51.082 	-2.70735e-06 	1.82837e-15
0.0724625 	51.2438 	-2.70735e-06 	1.82836e-15
0.0727167 	51.4055 	-2.70735e-06 	1.82835e-15
0.072971 	51.5672 	-2.70735e-06 	1.82834e-15
0.0732252 	51.729 	-2.70735e-06 	1.82833e-15
0.0734795 	51.8907 	-2.70735e-06 	1.82832e-15
0.0737337 	52.0525 	-2.70735e-06 	1.82831e-15
0.073988 	52.2142 	-2.70735e-06 	1.8283e-15
0.0742422 	52.3759 	-2.70735e-06 	1.82829e-15
0.0744965 	52.5408 	-2.76892e-06 	1.8802e-15
0.0747508 	52.7111 	-2.76892e-06 	1.88019e-15
0.075005 	52.8815 	-2.76892e-06 	1.88018e-15
0.0752593 	53.0518 	-2.76892e-06 	1.88016e-15
0.0755135 	53.2222 	-2.76892e-06 	1.88015e-15
0.0757678 	53.3925 	-2.76892e-06 	1.88014e-15
0.076022 	53.5629 	-2.76892e-06 	1.88013e-15
0.0762763 	53.7332 	-2.76892e-06 	1.88012e-15
0.0765305 	53.9035 	-2.76892e-06 	1.88011e-15
0.0767848 	54.0739 	-2.76892e-06 	1.8801e-15
0.077039 	54.2466 	-2.82854e-06 	1.87935e-15
0.0772933 	54.4254 	-2.82854e-06 	1.87933e-15
0.0775475 	54.6043 	-2.82854e-06 	1.87932e-15
0.0778018 	54.7832 	-2.82854e-06 	1.87931e-15
0.0780561 	54.962 	-2.82854e-06 	1.8793e-15
0.0783103 	55.1409 	-2.82854e-06 	1.87929e-15
0.0785646 	55.3198 	-2.82854e-06 	1.87928e-15
0.0788188 	55.4986 	-2.82854e-06 	1.87927e-15
0.0790731 	55.6775 	-2.82854e-06 	1.87925e-15
0.0793273 	55.8564 	-2.82854e-06 	1.87924e-15
0.0795816 	56.0368 	-2.87656e-06 	1.90376e-15
0.0798358 	56.224 	-2.87656e-06 	1.90374e-15
0.0800901 	56.4112 	-2.87656e-06 	1.90373e-15
0.0803443 	56.5985 	-2.87656e-06 	1.90372e-15
0.0805986 	56.7857 	-2.87656e-06 	1.90371e-15
0.0808529 	56.973 	-2.87656e-06 	1.9037e-15
0.0811071 	57.1602 	-2.87656e-06 	1.90368e-15
0.0813614 	57.3474 	-2.87656e-06 	1.90367e-15
0.0816156 	57.5347 	-2.87656e-06 	1.90366e-15
0.0818699 	57.7219 	-2.87656e-06 	1.90365e-15
0.0821241 	57.9099 	-2.90504e-06 	1.95752e-15
0.0823784 	58.1053 	-2.90504e-06 	1.95751e-15
0.0826326 	58.3007 	-2.90504e-06 	1.9575e-15
0.0828869 	58.4961 	-2.90504e-06 	1.95748e-15
0.0831411 	58.6916 	-2.90504e-06 	1.95747e-15
0.0833954 	58.887 	-2.90504e-06 	1.95746e-15
0.0836496 	59.0824 	-2.90504e-06 	1.95745e-15
0.0839039 	59.2778 	-2.90504e-06 	1.95743e-15
0.0841582 	59.4732 	-2.90504e-06 	1.95742e-15
0.0844124 	59.6686 	-2.90504e-06 	1.95741e-15
0.0846667 	59.864 	-3.81817e-06 	2.56988e-18
0.0849209 	60.0673 	-2.90762e-06 	2.01147e-15
0.0851752 	60.2707 	-2.90762e-06 	2.01146e-15
0.0854294 	60.474 	-2.90762e-06 	2.01144e-15
0.0856837 	60.6773 	-2.90762e-06 	2.01143e-15
0.0859379 	60.8806 	-2.90762e-06 	2.01142e-15
0.0861922 	61.0839 	-2.90762e-06 	2.0114e-15
0.0864464 	61.2873 	-2.90762e-06 	2.01139e-15
0.0867007 	61.4906 	-2.90762e-06 	2.01138e-15
0.086955 	61.6939 	-2.90762e-06 	2.01136e-15
0.0872092 	61.8972 	-2.90762e-06 	2.01135e-15
0.0874635 	62.1074 	-2.91153e-06 	2.06534e-15
0.0877177 	62.3182 	-2.91153e-06 	2.06532e-15
0.087972 	62.529 	-2.91153e-06 	2.06531e-15
0.0882262 	62.7398 	-2.91153e-06 	2.0653e-15
0.0884805 	62.9506 	-2.91153e-06 	2.06528e-15
0.0887347 	63.1614 	-2.91153e-06 	2.06527e-15
0.088989 	63.3722 	-2.91153e-06 	2.06525e-15
0.0892432 	63.583 	-2.91153e-06 	2.06524e-15
0.0894975 	63.7939 	-2.91153e-06 	2.06523e-15
0.0897518 	64.0047 	-2.91153e-06 	2.06521e-15
0.090006 	64.2211 	-2.92282e-06 	2.11891e-15
0.0902603 	64.4388 	-2.92282e-06 	2.11889e-15
0.0905145 	64.6565 	-2.92282e-06 	2.11888e-15
0.0907688 	64.8742 	-2.92282e-06 	2.11886e-15
0.091023 	65.0919 	-2.92282e-06 	2.11885e-15
0.0912773 	65.3096 	-2.92282e-06 	2.11884e-15
0.0915315 	65.5273 	-2.92282e-06 	2.11882e-15
0.0917858 	65.745 	-2.92282e-06 	2.11881e-15
0.09204 	65.9627 	-2.92282e-06 	2.11879e-15
0.0922943 	66.1804 	-2.92282e-06 	2.11878e-15
0.0925485 	66.4025 	-2.90587e-06 	2.17181e-15
0.0928028 	66.6263 	-2.90587e-06 	2.17179e-15
0.0930571 	66.8501 	-2.90587e-06 	2.17178e-15
0.0933113 	67.0739 	-2.90587e-06 	2.17176e-15
0.0935656 	67.2977 	-2.90587e-06 	2.17175e-15
0.0938198 	67.5215 	-2.90587e-06 	2.17173e-15
0.0940741 	67.7453 	-2.90587e-06 	2.17172e-15
0.0943283 	67.9691 	-2.90587e-06 	2.17171e-15
0.0945826 	68.1929 	-2.90587e-06 	2.17169e-15
0.0948368 	68.4167 	-2.90587e-06 	2.17168e-15
0.0950911 	68.6437 	-2.8593e-06 	2.1703e-15
0.0953453 	68.8725 	-2.8593e-06 	2.17029e-15
0.0955996 	69.1014 	-2.8593e-06 	2.17027e-15
0.0958539 	69.3302 	-2.8593e-06 	2.17026e-15
0.0961081 	69.559 	-2.8593e-06 	2.17024e-15
0.0963624 	69.7878 	-2.8593e-06 	2.17023e-15
0.0966166 	70.0167 	-2.8593e-06 	2.17021e-15
0.0968709 	70.2455 	-2.8593e-06 	2.1702e-15
0.0971251 	70.4743 	-2.8593e-06 	2.17018e-15
0.0973794 	70.7032 	-2.8593e-06 	2.17017e-15
0.0976336 	70.9339 	-2.7854e-06 	2.26635e-15
0.0978879 	71.1663 	-2.7854e-06 	2.26634e-15
0.0981421 	71.3987 	-2.7854e-06 	2.26632e-15
0.0983964 	71.6311 	-2.7854e-06 	2.26631e-15
0.0986507 	71.8635 	-2.7854e-06 	2.26629e-15
0.0989049 	72.096 	-2.7854e-06 	2.26628e-15
0.0991592 	72.3284 	-2.7854e-06 	2.26626e-15
0.0994134 	72.5608 	-2.7854e-06 	2.26625e-15
0.0996677 	72.7932 	-2.7854e-06 	2.26623e-15
0.0999219 	73.0256 	-2.7854e-06 	2.26622e-15
0.100176 	73.2588 	-2.67243e-06 	2.38494e-15
0.10043 	73.4929 	-2.67243e-06 	2.38492e-15
0.100685 	73.7271 	-2.67243e-06 	2.38491e-15
0.100939 	73.9612 	-2.67243e-06 	2.38489e-15
0.101193 	74.1954 	-2.67243e-06 	2.38488e-15
0.101447 	74.4296 	-2.67243e-06 	2.38486e-15
0.101702 	74.6637 	-2.67243e-06 	2.38485e-15
0.101956 	74.8979 	-2.67243e-06 	2.38483e-15
0.10221 	75.1321 	-2.67243e-06 	2.38482e-15
0.102464 	75.3662 	-2.67243e-06 	2.3848e-15
0.102719 	75.6002 	-2.49715e-06 	2.42846e-15
0.102973 	75.834 	-2.49715e-06 	2.42845e-15
0.103227 	76.0678 	-2.49715e-06 	2.42843e-15
0.103481 	76.3016 	-2.49715e-06 	2.42842e-15
0.103736 	76.5353 	-2.49715e-06 	2.4284e-15
0.10399 	76.7691 	-2.49715e-06 	2.42839e-15
0.104244 	77.0029 	-2.49715e-06 	2.42837e-15
0.104498 	77.2366 	-2.49715e-06 	2.42836e-15
0.104753 	77.4704 	-2.49715e-06 	2.42834e-15
0.105007 	77.7042 	-2.49715e-06 	2.42833e-15
0.105261 	77.9372 	-2.31848e-06 	2.53122e-15
0.105516 	78.1681 	-2.31848e-06 	2.5312e-15
0.10577 	78.3991 	-2.31848e-06 	2.53119e-15
0.106024 	78.6301 	-2.31848e-06 	2.53117e-15
0.106278 	78.861 	-2.31848e-06 	2.53116e-15
0.106533 	79.092 	-2.31848e-06 	2.53114e-15
0.106787 	79.3229 	-2.31848e-06 	2.53113e-15
0.107041 	79.5539 	-2.31848e-06 	2.53111e-15
0.107295 	79.7848 	-2.31848e-06 	2.5311e-15
0.10755 	80.0158 	-2.31848e-06 	2.53108e-15
0.107804 	80.2458 	-2.03717e-06 	2.61982e-15
0.108058 	80.4714 	-2.03717e-06 	2.6198e-15
0.108312 	80.697 	-2.03717e-06 	2.61979e-15
0.108567 	80.9226 	-2.03717e-06 	2.61977e-15
0.108821 	81.1482 	-2.03717e-06 	2.61976e-15
0.109075 	81.3738 	-2.03717e-06 	2.61974e-15
0.109329 	81.5994 	-2.03717e-06 	2.61973e-15
0.109584 	81.825 	-2.03717e-06 	2.61972e-15
0.109838 	82.0506 	-2.03717e-06 	2.6197e-15
0.110092 	82.2762 	-2.03717e-06 	2.61969e-15
0.110346 	82.5011 	-1.74082e-06 	2.64699e-15
0.110601 	82.7185 	-1.74082e-06 	2.64698e-15
0.110855 	82.936 	-1.74082e-06 	2.64696e-15
0.111109 	83.1534 	-1.74082e-06 	2.64695e-15
0.111363 	83.3709 	-1.74082e-06 	2.64694e-15
0.111618 	83.5883 	-1.74082e-06 	2.64692e-15
0.111872 	83.8058 	-1.74082e-06 	2.64691e-15
0.112126 	84.0232 	-1.74082e-06 	2.64689e-15
0.11238 	84.2406 	-1.74082e-06 	2.64688e-15
0.112635 	84.4581 	-1.74082e-06 	2.64687e-15
0.112889 	84.6755 	-2.84466e-06 	6.21846e-18
0.113143 	84.8817 	-1.41235e-06 	2.66962e-15
0.113397 	85.0879 	-1.41235e-06 	2.66961e-15
0.113652 	85.2941 	-1.41235e-06 	2.6696e-15
0.113906 	85.5003 	-1.41235e-06 	2.66958e-15
0.11416 	85.7065 	-1.41235e-06 	2.66957e-15
0.114414 	85.9127 	-1.41235e-06 	2.66956e-15
0.114669 	86.1189 	-1.41235e-06 	2.66954e-15
0.114923 	86.3251 	-1.41235e-06 	2.66953e-15
0.115177 	86.5313 	-1.41235e-06 	2.66952e-15
0.115431 	86.7375 	-1.41235e-06 	2.6695e-15
0.115686 	86.9306 	-9.97354e-07 	2.68755e-15
0.11594 	87.1223 	-9.97354e-07 	2.68753e-15
0.116194 	87.3141 	-9.97354e-07 	2.68752e-15
0.116448 	87.5058 	-9.97354e-07 	2.68751e-15
0.116703 	87.6975 	-9.97354e-07 	2.6875e-15
0.116957 	87.8893 	-9.97354e-07 	2.68748e-15
0.117211 	88.081 	-9.97354e-07 	2.68747e-15
0.117465 	88.2727 	-9.97354e-07 	2.68746e-15
0.11772 	88.4645 	-9.97354e-07 	2.68745e-15
0.117974 	88.6562 	-9.97354e-07 	2.68743e-15
0.118228 	88.8333 	-5.91109e-07 	2.69988e-15
0.118482 	89.0072 	-5.91109e-07 	2.69987e-15
0.118737 	89.181 	-5.91109e-07 	2.69985e-15
0.118991 	89.3549 	-5.91109e-07 	2.69984e-15
0.119245 	89.5288 	-5.91109e-07 	2.69983e-15
0.119499 	89.7026 	-5.91109e-07 	2.69982e-15
0.119754 	89.8765 	-5.91109e-07 	2.69981e-15
0.120008 	90.0504 	-5.91109e-07 	2.6998e-15
0.120262 	90.2242 	-5.91109e-07 	2.69979e-15
0.120517 	90.3981 	-5.91109e-07 	2.69978e-15
0.120771 	90.5566 	-1.84897e-07 	2.70708e-15
0.121025 	90.7093 	-1.84897e-07 	2.70707e-15
0.121279 	90.862 	-1.84897e-07 	2.70706e-15
0.121534 	91.0147 	-1.84897e-07 	2.70705e-15
0.121788 	91.1674 	-1.84897e-07 	2.70704e-15
0.122042 	91.3201 	-1.84897e-07 	2.70703e-15
0.122296 	91.4729 	-1.84897e-07 	2.70702e-15
0.122551 	91.6256 	-1.84897e-07 	2.70701e-15
0.122805 	91.7783 	-1.84897e-07 	2.707e-15
0.123059 	91.931 	-1.84897e-07 	2.70699e-15
0.123313 	92.0684 	2.22267e-07 	2.70908e-15
0.123568 	92.1971 	2.22267e-07 	2.70907e-15
0.123822 	92.3258 	2.22267e-07 	2.70906e-15
0.124076 	92.4545 	2.22267e-07 	2.70905e-15
0.12433 	92.5832 	2.22267e-07 	2.70905e-15
0.124585 	92.7119 	2.22267e-07 	2.70904e-15
0.124839 	92.8407 	2.22267e-07 	2.70903e-15
0.125093 	92.9694 	2.22267e-07 	2.70902e-15
0.125347 	93.0981 	2.22267e-07 	2.70901e-15
0.125602 	93.2268 	2.22267e-07 	2.709e-15
0.125856 	93.3412 	5.91075e-07 	2.70554e-15
0.12611 	93.4438 	5.91075e-07 	2.70553e-15
0.126364 	93.5463 	5.91075e-07 	2.70552e-15
0.126619 	93.6489 	5.91075e-07 	2.70552e-15
0.126873 	93.7514 	5.91075e-07 	2.70551e-15
0.127127 	93.854 	5.91075e-07 	2.7055e-15
0.127381 	93.9565 	5.91075e-07 	2.7055e-15
0.127636 	94.0591 	5.91075e-07 	2.70549e-15
0.12789 	94.1616 	5.91075e-07 	2.70548e-15
0.128144 	94.2642 	5.91075e-07 	2.70548e-15
0.128398 	94.3543 	9.17181e-07 	2.69508e-15
0.128653 	94.4296 	9.17181e-07 	2.69507e-15
0.128907 	94.5049 	9.17181e-07 	2.69507e-15
0.129161 	94.5802 	9.17181e-07 	2.69506e-15
0.129415 	94.6555 	9.17181e-07 	2.69506e-15
0.12967 	94.7308 	9.17181e-07 	2.69505e-15
0.129924 	94.8061 	9.17181e-07 	2.69505e-15
0.130178 	94.8813 	9.17181e-07 	2.69504e-15
0.130432 	94.9566 	9.17181e-07 	2.69504e-15
0.130687 	95.0319 	9.17181e-07 	2.69504e-15
0.130941 	95.0973 	1.1934e-06 	2.67854e-15
0.131195 	95.1454 	1.1934e-06 	2.67854e-15
0.131449 	95.1935 	1.1934e-06 	2.67854e-15
0.131704 	95.2415 	1.1934e-06 	2.67853e-15
0.131958 	95.2896 	1.1934e-06 	2.67853e-15
0.132212 	95.3377 	1.1934e-06 	2.67853e-15
0.132466 	95.3858 	1.1934e-06 	2.67852e-15
0.132721 	95.4338 	1.1934e-06 	2.67852e-15
0.132975 	95.4819 	1.1934e-06 	2.67852e-15
0.133229 	95.53 	1.1934e-06 	2.67851e-15
0.133483 	95.5709 	1.41079e-06 	2.65757e-15
0.133738 	95.5928 	1.41079e-06 	2.65757e-15
0.133992 	95.6147 	1.41079e-06 	2.65756e-15
0.134246 	95.6367 	1.41079e-06 	2.65756e-15
0.134501 	95.6586 	1.41079e-06 	2.65756e-15
0.134755 	95.6805 	1.41079e-06 	2.65756e-15
0.135009 	95.7024 	1.41079e-06 	2.65756e-15
0.135263 	95.7243 	1.41079e-06 	2.65756e-15
0.135518 	95.7462 	1.41079e-06 	2.65756e-15
0.135772 	95.7682 	1.41079e-06 	2.65755e-15
0.136026 	95.7856 	1.60581e-06 	2.68776e-15
0.13628 	95.7832 	1.60581e-06 	2.68776e-15
0.136535 	95.7807 	1.60581e-06 	2.68776e-15
0.136789 	95.7782 	1.60581e-06 	2.68776e-15
0.137043 	95.7757 	1.60581e-06 	2.68776e-15
0.137297 	95.7732 	1.60581e-06 	2.68776e-15
0.137552 	95.7708 	1.60581e-06 	2.68776e-15
0.137806 	95.7683 	1.60581e-06 	2.68776e-15
0.13806 	95.7658 	1.60581e-06 	2.68776e-15
0.138314 	95.7633 	1.60581e-06 	2.68776e-15
0.138569 	95.7588 	1.7601e-06 	2.59831e-15
0.138823 	95.734 	1.7601e-06 	2.59831e-15
0.139077 	95.7092 	1.7601e-06 	2.59831e-15
0.139331 	95.6844 	1.7601e-06 	2.59831e-15
0.139586 	95.6597 	1.7601e-06 	2.59831e-15
0.13984 	95.6349 	1.7601e-06 	2.59831e-15
0.140094 	95.6101 	1.7601e-06 	2.59832e-15
0.140348 	95.5853 	1.7601e-06 	2.59832e-15
0.140603 	95.5605 	1.7601e-06 	2.59832e-15
0.140857 	95.5357 	1.7601e-06 	2.59832e-15
0.141111 	95.5109 	9.48953e-07 	2.50132e-18
0.141365 	95.4659 	1.88471e-06 	2.57877e-15
0.14162 	95.421 	1.88471e-06 	2.57878e-15
0.141874 	95.376 	1.88471e-06 	2.57878e-15
0.142128 	95.3311 	1.88471e-06 	2.57878e-15
0.142382 	95.2861 	1.88471e-06 	2.57879e-15
0.142637 	95.2412 	1.88471e-06 	2.57879e-15
0.142891 	95.1962 	1.88471e-06 	2.57879e-15
0.143145 	95.1513 	1.88471e-06 	2.57879e-15
0.143399 	95.1063 	1.88471e-06 	2.5788e-15
0.143654 	95.0613 	1.88471e-06 	2.5788e-15
0.143908 	95 	2.0013e-06 	2.50289e-15
0.144162 	94.937 	2.0013e-06 	2.5029e-15
0.144416 	94.874 	2.0013e-06 	2.5029e-15
0.144671 	94.811 	2.0013e-06 	2.5029e-15
0.144925 	94.7481 	2.0013e-06 	2.50291e-15
0.145179 	94.6851 	2.0013e-06 	2.50291e-15
0.145433 	94.6221 	2.0013e-06 	2.50292e-15
0.145688 	94.5591 	2.0013e-06 	2.50292e-15
0.145942 	94.4961 	2.0013e-06 	2.50292e-15
0.146196 	94.4331 	2.0013e-06 	2.50293e-15
0.14645 	94.357 	2.10689e-06 	2.42319e-15
0.146705 	94.2779 	2.10689e-06 	2.42319e-15
0.146959 	94.1989 	2.10689e-06 	2.4232e-15
0.147213 	94.1198 	2.10689e-06 	2.4232e-15
0.147467 	94.0408 	2.10689e-06 	2.42321e-15
0.147722 	93.9617 	2.10689e-06 	2.42321e-15
0.147976 	93.8827 	2.10689e-06 	2.42322e-15
0.14823 	93.8036 	2.10689e-06 	2.42323e-15
0.148484 	93.7246 	2.10689e-06 	2.42323e-15
0.148739 	93.6455 	2.10689e-06 	2.42324e-15
0.148993 	93.5561 	2.20741e-06 	2.38485e-15
0.149247 	93.4628 	2.20741e-06 	2.38486e-15
0.149502 	93.3695 	2.20741e-06 	2.38486e-15
0.149756 	93.2762 	2.20741e-06 	2.38487e-15
0.15001 	93.1829 	2.20741e-06 	2.38488e-15
0.150264 	93.0896 	2.20741e-06 	2.38488e-15
0.150519 	92.9963 	2.20741e-06 	2.38489e-15
0.150773 	92.903 	2.20741e-06 	2.38489e-15
0.151027 	92.8097 	2.20741e-06 	2.3849e-15
0.151281 	92.7164 	2.20741e-06 	2.38491e-15
0.151536 	92.6151 	2.3027e-06 	2.3475e-15
0.15179 	92.5092 	2.3027e-06 	2.3475e-15
0.152044 	92.4034 	2.3027e-06 	2.34751e-15
0.152298 	92.2975 	2.3027e-06 	2.34752e-15
0.152553 	92.1917 	2.3027e-06 	2.34752e-15
0.152807 	92.0858 	2.3027e-06 	2.34753e-15
0.153061 	91.98 	2.3027e-06 	2.34754e-15
0.153315 	91.8741 	2.3027e-06 	2.34754e-15
0.15357 	91.7683 	2.3027e-06 	2.34755e-15
0.153824 	91.6625 	2.3027e-06 	2.34756e-15
0.154078 	91.5507 	2.38949e-06 	2.3094e-15
0.154332 	91.434 	2.38949e-06 	2.30941e-15
0.154587 	91.3173 	2.38949e-06 	2.30941e-15
0.154841 	91.2006 	2.38949e-06 	2.30942e-15
0.155095 	91.0839 	2.38949e-06 	2.30943e-15
0.155349 	90.9672 	2.38949e-06 	2.30944e-15
0.155604 	90.8505 	2.38949e-06 	2.30944e-15
0.155858 	90.7338 	2.38949e-06 	2.30945e-15
0.156112 	90.6171 	2.38949e-06 	2.30946e-15
0.156366 	90.5005 	2.38949e-06 	2.30947e-15
0.156621 	90.3796 	2.46456e-06 	2.2704e-15
0.156875 	90.2538 	2.46456e-06 	2.27041e-15
0.157129 	90.128 	2.46456e-06 	2.27042e-15
0.157383 	90.0022 	2.46456e-06 	2.27043e-15
0.157638 	89.8764 	2.46456e-06 	2.27043e-15
0.157892 	89.7506 	2.46456e-06 	2.27044e-15
0.158146 	89.6248 	2.46456e-06 	2.27045e-15
0.1584 	89.499 	2.46456e-06 	2.27046e-15
0.158655 	89.3731 	2.46456e-06 	2.27047e-15
0.158909 	89.2473 	2.46456e-06 	2.27048e-15
0.159163 	89.1188 	2.52589e-06 	2.28322e-15
0.159417 	88.9857 	2.52589e-06 	2.28323e-15
0.159672 	88.8525 	2.52589e-06 	2.28324e-15
0.159926 	88.7194 	2.52589e-06 	2.28325e-15
0.16018 	88.5862 	2.52589e-06 	2.28326e-15
0.160434 	88.453 	2.52589e-06 	2.28326e-15
0.160689 	88.3199 	2.52589e-06 	2.28327e-15
0.160943 	88.1867 	2.52589e-06 	2.28328e-15
0.161197 	88.0535 	2.52589e-06 	2.28329e-15
0.161451 	87.9204 	2.52589e-06 	2.2833e-15
0.161706 	87.7857 	2.57292e-06 	2.30503e-15
0.16196 	87.6469 	2.57292e-06 	2.30504e-15
0.162214 	87.5082 	2.57292e-06 	2.30505e-15
0.162468 	87.3694 	2.57292e-06 	2.30505e-15
0.162723 	87.2307 	2.57292e-06 	2.30506e-15
0.162977 	87.0919 	2.57292e-06 	2.30507e-15
0.163231 	86.9532 	2.57292e-06 	2.30508e-15
0.163485 	86.8144 	2.57292e-06 	2.30509e-15
0.16374 	86.6757 	2.57292e-06 	2.3051e-15
0.163994 	86.5369 	2.57292e-06 	2.30511e-15
0.164248 	86.3975 	2.60604e-06 	2.25782e-15
0.164503 	86.2548 	2.60604e-06 	2.25783e-15
0.164757 	86.1122 	2.60604e-06 	2.25784e-15
0.165011 	85.9695 	2.60604e-06 	2.25785e-15
0.165265 	85.8269 	2.60604e-06 	2.25786e-15
0.16552 	85.6842 	2.60604e-06 	2.25787e-15
0.165774 	85.5416 	2.60604e-06 	2.25787e-15
0.166028 	85.3989 	2.60604e-06 	2.25788e-15
0.166282 	85.2563 	2.60604e-06 	2.25789e-15
0.166537 	85.1137 	2.60604e-06 	2.2579e-15
0.166791 	84.9708 	2.62605e-06 	2.2119e-15
0.167045 	84.8259 	2.62605e-06 	2.21191e-15
0.167299 	84.6809 	2.62605e-06 	2.21192e-15
0.167554 	84.536 	2.62605e-06 	2.21193e-15
0.167808 	84.391 	2.62605e-06 	2.21194e-15
0.168062 	84.2461 	2.62605e-06 	2.21195e-15
0.168316 	84.1011 	2.62605e-06 	2.21196e-15
0.168571 	83.9562 	2.62605e-06 	2.21197e-15
0.168825 	83.8112 	2.62605e-06 	2.21198e-15
0.169079 	83.6663 	2.62605e-06 	2.21199e-15
0.169333 	83.5213 	1.98555e-06 	1.14143e-19
0.169588 	83.3755 	2.63363e-06 	2.22138e-15