0 	6684
0.000254254 	6684.05
0.000508509 	6684.1
0.000762763 	6684.11
0.00101702 	6684.09
0.00127127 	6684.07
0.00152553 	6684.05
0.00177978 	6684.03
0.00203403 	6683.99
0.00228829 	6683.89
0.00254254 	6683.79
0.0027968 	6683.69
0.00305105 	6683.59
0.00330531 	6683.47
0.00355956 	6683.3
0.00381381 	6683.14
0.00406807 	6682.98
0.00432232 	6682.82
0.00457658 	6682.64
0.00483083 	6682.42
0.00508509 	6682.19
0.00533934 	6681.97
0.00559359 	6681.74
0.00584785 	6681.51
0.0061021 	6681.28
0.00635636 	6681.04
0.00661061 	6680.81
0.00686486 	6680.57
0.00711912 	6680.34
0.00737337 	6680.1
0.00762763 	6679.85
0.00788188 	6679.61
0.00813614 	6679.36
0.00839039 	6679.12
0.00864464 	6678.87
0.0088989 	6678.62
0.00915315 	6678.38
0.00940741 	6678.13
0.00966166 	6677.88
0.00991592 	6677.63
0.0101702 	6677.38
0.0104244 	6677.13
0.0106787 	6676.87
0.0109329 	6676.62
0.0111872 	6676.35
0.0114414 	6676.09
0.0116957 	6675.82
0.0119499 	6675.56
0.0122042 	6675.29
0.0124585 	6675.02
0.0127127 	6674.74
0.012967 	6674.46
0.0132212 	6674.18
0.0134755 	6673.89
0.0137297 	6673.59
0.013984 	6673.29
0.0142382 	6672.99
0.0144925 	6672.69
0.0147467 	6672.39
0.015001 	6672.07
0.0152553 	6671.75
0.0155095 	6671.43
0.0157638 	6671.1
0.016018 	6670.77
0.0162723 	6670.42
0.0165265 	6670.08
0.0167808 	6669.73
0.017035 	6669.38
0.0172893 	6669.03
0.0175435 	6668.66
0.0177978 	6668.29
0.0180521 	6667.91
0.0183063 	6667.53
0.0185606 	6667.15
0.0188148 	6666.75
0.0190691 	6666.34
0.0193233 	6665.93
0.0195776 	6665.53
0.0198318 	6665.12
0.0200861 	6664.7
0.0203403 	6664.27
0.0205946 	6663.84
0.0208488 	6663.4
0.0211031 	6662.96
0.0213574 	6662.49
0.0216116 	6662.02
0.0218659 	6661.55
0.0221201 	6661.09
0.0223744 	6660.62
0.0226286 	6660.14
0.0228829 	6659.65
0.0231371 	6659.15
0.0233914 	6658.65
0.0236456 	6658.14
0.0238999 	6657.61
0.0241542 	6657.07
0.0244084 	6656.54
0.0246627 	6656.01
0.0249169 	6655.47
0.0251712 	6654.93
0.0254254 	6654.37
0.0256797 	6653.81
0.0259339 	6653.23
0.0261882 	6652.66
0.0264424 	6652.06
0.0266967 	6651.45
0.026951 	6650.85
0.0272052 	6650.24
0.0274595 	6649.64
0.0277137 	6649.03
0.027968 	6648.4
0.0282222 	6647.76
0.0284765 	6647.11
0.0287307 	6646.47
0.028985 	6645.79
0.0292392 	6645.11
0.0294935 	6644.43
0.0297477 	6643.75
0.030002 	6643.07
0.0302563 	6642.39
0.0305105 	6641.68
0.0307648 	6640.96
0.031019 	6640.24
0.0312733 	6639.51
0.0315275 	6638.75
0.0317818 	6637.99
0.032036 	6637.23
0.0322903 	6636.47
0.0325445 	6635.71
0.0327988 	6634.94
0.0330531 	6634.16
0.0333073 	6633.36
0.0335616 	6632.55
0.0338158 	6631.74
0.0340701 	6630.9
0.0343243 	6630.05
0.0345786 	6629.2
0.0348328 	6628.35
0.0350871 	6627.5
0.0353413 	6626.65
0.0355956 	6625.79
0.0358498 	6624.9
0.0361041 	6624
0.0363584 	6623.1
0.0366126 	6622.16
0.0368669 	6621.22
0.0371211 	6620.27
0.0373754 	6619.33
0.0376296 	6618.39
0.0378839 	6617.45
0.0381381 	6616.49
0.0383924 	6615.51
0.0386466 	6614.52
0.0389009 	6613.52
0.0391552 	6612.47
0.0394094 	6611.43
0.0396637 	6610.39
0.0399179 	6609.34
0.0401722 	6608.3
0.0404264 	6607.26
0.0406807 	6606.21
0.0409349 	6605.13
0.0411892 	6604.03
0.0414434 	6602.92
0.0416977 	6601.77
0.041952 	6600.62
0.0422062 	6599.47
0.0424605 	6598.32
0.0427147 	6597.16
0.042969 	6596.01
0.0432232 	6594.86
0.0434775 	6593.67
0.0437317 	6592.46
0.043986 	6591.24
0.0442402 	6589.97
0.0444945 	6588.7
0.0447487 	6587.44
0.045003 	6586.17
0.0452573 	6584.9
0.0455115 	6583.63
0.0457658 	6582.36
0.04602 	6581.06
0.0462743 	6579.73
0.0465285 	6578.39
0.0467828 	6576.99
0.047037 	6575.59
0.0472913 	6574.2
0.0475455 	6572.8
0.0477998 	6571.41
0.0480541 	6570.01
0.0483083 	6568.62
0.0485626 	6567.2
0.0488168 	6565.75
0.0490711 	6564.26
0.0493253 	6562.73
0.0495796 	6561.2
0.0498338 	6559.66
0.0500881 	6558.13
0.0503423 	6556.6
0.0505966 	6555.07
0.0508509 	6553.53
0.0511051 	6552
0.0513594 	6550.4
0.0516136 	6548.76
0.0518679 	6547.08
0.0521221 	6545.4
0.0523764 	6543.72
0.0526306 	6542.04
0.0528849 	6540.36
0.0531391 	6538.68
0.0533934 	6537
0.0536476 	6535.32
0.0539019 	6533.58
0.0541562 	6531.78
0.0544104 	6529.94
0.0546647 	6528.1
0.0549189 	6526.26
0.0551732 	6524.42
0.0554274 	6522.58
0.0556817 	6520.74
0.0559359 	6518.89
0.0561902 	6517.05
0.0564444 	6515.17
0.0566987 	6513.2
0.056953 	6511.18
0.0572072 	6509.17
0.0574615 	6507.15
0.0577157 	6505.14
0.05797 	6503.12
0.0582242 	6501.11
0.0584785 	6499.1
0.0587327 	6497.08
0.058987 	6495.05
0.0592412 	6492.88
0.0594955 	6490.68
0.0597497 	6488.48
0.060004 	6486.27
0.0602583 	6484.07
0.0605125 	6481.87
0.0607668 	6479.67
0.061021 	6477.46
0.0612753 	6475.26
0.0615295 	6473.06
0.0617838 	6470.69
0.062038 	6468.29
0.0622923 	6465.88
0.0625465 	6463.48
0.0628008 	6461.07
0.0630551 	6458.67
0.0633093 	6456.27
0.0635636 	6453.87
0.0638178 	6451.47
0.0640721 	6449.07
0.0643263 	6446.51
0.0645806 	6443.89
0.0648348 	6441.27
0.0650891 	6438.65
0.0653433 	6436.03
0.0655976 	6433.42
0.0658519 	6430.8
0.0661061 	6428.18
0.0663604 	6425.56
0.0666146 	6422.94
0.0668689 	6420.18
0.0671231 	6417.33
0.0673774 	6414.48
0.0676316 	6411.63
0.0678859 	6408.78
0.0681401 	6405.93
0.0683944 	6403.08
0.0686486 	6400.23
0.0689029 	6397.38
0.0691572 	6394.53
0.0694114 	6391.54
0.0696657 	6388.44
0.0699199 	6385.34
0.0701742 	6382.24
0.0704284 	6379.14
0.0706827 	6376.04
0.0709369 	6372.94
0.0711912 	6369.84
0.0714454 	6366.74
0.0716997 	6363.64
0.071954 	6360.41
0.0722082 	6357.04
0.0724625 	6353.67
0.0727167 	6350.29
0.072971 	6346.92
0.0732252 	6343.54
0.0734795 	6340.17
0.0737337 	6336.8
0.073988 	6333.42
0.0742422 	6330.05
0.0744965 	6326.54
0.0747508 	6322.9
0.075005 	6319.24
0.0752593 	6315.57
0.0755135 	6311.91
0.0757678 	6308.25
0.076022 	6304.58
0.0762763 	6300.92
0.0765305 	6297.25
0.0767848 	6293.59
0.077039 	6289.78
0.0772933 	6285.88
0.0775475 	6281.91
0.0778018 	6277.95
0.0780561 	6273.98
0.0783103 	6270.01
0.0785646 	6266.05
0.0788188 	6262.08
0.0790731 	6258.12
0.0793273 	6254.14
0.0795816 	6250.03
0.0798358 	6245.85
0.0800901 	6241.57
0.0803443 	6237.29
0.0805986 	6233.01
0.0808529 	6228.73
0.0811071 	6224.45
0.0813614 	6220.17
0.0816156 	6215.89
0.0818699 	6211.59
0.0821241 	6207.16
0.0823784 	6202.69
0.0826326 	6198.09
0.0828869 	6193.49
0.0831411 	6188.88
0.0833954 	6184.28
0.0836496 	6179.68
0.0839039 	6175.07
0.0841582 	6170.47
0.0844124 	6165.84
0.0846667 	6161.08
0.0849209 	6156.29
0.0851752 	6151.38
0.0854294 	6146.44
0.0856837 	6141.51
0.0859379 	6136.57
0.0861922 	6131.63
0.0864464 	6126.69
0.0867007 	6121.75
0.086955 	6116.78
0.0872092 	6111.68
0.0874635 	6106.56
0.0877177 	6101.35
0.087972 	6096.07
0.0882262 	6090.79
0.0884805 	6085.5
0.0887347 	6080.22
0.088989 	6074.94
0.0892432 	6069.66
0.0894975 	6064.33
0.0897518 	6058.89
0.090006 	6053.43
0.0902603 	6047.92
0.0905145 	6042.3
0.0907688 	6036.68
0.091023 	6031.06
0.0912773 	6025.44
0.0915315 	6019.81
0.0917858 	6014.19
0.09204 	6008.51
0.0922943 	6002.73
0.0925485 	5996.94
0.0928028 	5991.12
0.0930571 	5985.17
0.0933113 	5979.22
0.0935656 	5973.26
0.0938198 	5967.31
0.0940741 	5961.36
0.0943283 	5955.41
0.0945826 	5949.38
0.0948368 	5943.27
0.0950911 	5937.15
0.0953453 	5931.02
0.0955996 	5924.77
0.0958539 	5918.5
0.0961081 	5912.23
0.0963624 	5905.96
0.0966166 	5899.68
0.0968709 	5893.41
0.0971251 	5887.07
0.0973794 	5880.65
0.0976336 	5874.22
0.0978879 	5867.78
0.0981421 	5861.27
0.0983964 	5854.71
0.0986507 	5848.15
0.0989049 	5841.59
0.0991592 	5835.03
0.0994134 	5828.47
0.0996677 	5821.83
0.0999219 	5815.14
0.100176 	5808.44
0.10043 	5801.74
0.100685 	5795
0.100939 	5788.2
0.101193 	5781.39
0.101447 	5774.59
0.101702 	5767.79
0.101956 	5760.98
0.10221 	5754.11
0.102464 	5747.2
0.102719 	5740.29
0.102973 	5733.37
0.103227 	5726.45
0.103481 	5719.46
0.103736 	5712.47
0.10399 	5705.49
0.104244 	5698.5
0.104498 	5691.51
0.104753 	5684.48
0.105007 	5677.42
0.105261 	5670.36
0.105516 	5663.3
0.10577 	5656.25
0.106024 	5649.16
0.106278 	5642.07
0.106533 	5634.98
0.106787 	5627.89
0.107041 	5620.8
0.107295 	5613.69
0.10755 	5606.56
0.107804 	5599.44
0.108058 	5592.32
0.108312 	5585.2
0.108567 	5578.1
0.108821 	5570.99
0.109075 	5563.89
0.109329 	5556.79
0.109584 	5549.69
0.109838 	5542.59
0.110092 	5535.5
0.110346 	5528.41
0.110601 	5521.33
0.110855 	5514.25
0.111109 	5507.2
0.111363 	5500.18
0.111618 	5493.16
0.111872 	5486.15
0.112126 	5479.13
0.11238 	5472.16
0.112635 	5465.2
0.112889 	5458.25
0.113143 	5451.31
0.113397 	5444.37
0.113652 	5437.47
0.113906 	5430.65
0.11416 	5423.84
0.114414 	5417.02
0.114669 	5410.21
0.114923 	5403.47
0.115177 	5396.77
0.115431 	5390.07
0.115686 	5383.4
0.11594 	5376.72
0.116194 	5370.07
0.116448 	5363.58
0.116703 	5357.09
0.116957 	5350.6
0.117211 	5344.11
0.117465 	5337.75
0.11772 	5331.44
0.117974 	5325.13
0.118228 	5318.85
0.118482 	5312.57
0.118737 	5306.29
0.118991 	5300.26
0.119245 	5294.23
0.119499 	5288.2
0.119754 	5282.17
0.120008 	5276.3
0.120262 	5270.52
0.120517 	5264.74
0.120771 	5258.98
0.121025 	5253.24
0.121279 	5247.49
0.121534 	5242.01
0.121788 	5236.58
0.122042 	5231.15
0.122296 	5225.71
0.122551 	5220.47
0.122805 	5215.35
0.123059 	5210.23
0.123313 	5205.14
0.123568 	5200.06
0.123822 	5194.98
0.124076 	5190.17
0.12433 	5185.46
0.124585 	5180.75
0.124839 	5176.04
0.125093 	5171.53
0.125347 	5167.19
0.125602 	5162.85
0.125856 	5158.53
0.12611 	5154.24
0.126364 	5149.94
0.126619 	5145.9
0.126873 	5142.02
0.127127 	5138.14
0.127381 	5134.25
0.127636 	5130.56
0.12789 	5127.09
0.128144 	5123.62
0.128398 	5120.17
0.128653 	5116.75
0.128907 	5113.32
0.129161 	5110.12
0.129415 	5107.13
0.12967 	5104.14
0.129924 	5101.15
0.130178 	5098.32
0.130432 	5095.77
0.130687 	5093.22
0.130941 	5090.68
0.131195 	5088.17
0.131449 	5085.66
0.131704 	5083.34
0.131958 	5081.27
0.132212 	5079.19
0.132466 	5077.12
0.132721 	5075.16
0.132975 	5073.53
0.133229 	5071.89
0.133483 	5070.27
0.133738 	5068.68
0.133992 	5067.08
0.134246 	5065.63
0.134501 	5064.46
0.134755 	5063.28
0.135009 	5062.1
0.135263 	5060.99
0.135518 	5060.24
0.135772 	5059.48
0.136026 	5058.74
0.13628 	5058.01
0.136535 	5057.29
0.136789 	5056.68
0.137043 	5056.34
0.137297 	5056.01
0.137552 	5055.68
0.137806 	5055.36
0.13806 	5055.42
0.138314 	5055.48
0.138569 	5055.55
0.138823 	5055.63
0.139077 	5055.71
0.139331 	5055.88
0.139586 	5056.32
0.13984 	5056.75
0.140094 	5057.19
0.140348 	5057.63
0.140603 	5058.4
0.140857 	5059.2
0.141111 	5059.99
0.141365 	5060.81
0.14162 	5061.62
0.141874 	5062.49
0.142128 	5063.62
0.142382 	5064.75
0.142637 	5065.88
0.142891 	5067.02
0.143145 	5068.4
0.143399 	5069.85
0.143654 	5071.3
0.143908 	5072.77
0.144162 	5074.23
0.144416 	5075.73
0.144671 	5077.47
0.144925 	5079.22
0.145179 	5080.96
0.145433 	5082.71
0.145688 	5084.64
0.145942 	5086.67
0.146196 	5088.7
0.14645 	5090.73
0.146705 	5092.77
0.146959 	5094.82
0.147213 	5097.1
0.147467 	5099.39
0.147722 	5101.67
0.147976 	5103.96
0.14823 	5106.37
0.148484 	5108.9
0.148739 	5111.43
0.148993 	5113.96
0.149247 	5116.5
0.149502 	5119.04
0.149756 	5121.79
0.15001 	5124.54
0.150264 	5127.3
0.150519 	5130.05
0.150773 	5132.88
0.151027 	5135.85
0.151281 	5138.81
0.151536 	5141.78
0.15179 	5144.76
0.152044 	5147.73
0.152298 	5150.88
0.152553 	5154.03
0.152807 	5157.19
0.153061 	5160.34
0.153315 	5163.54
0.15357 	5166.88
0.153824 	5170.22
0.154078 	5173.56
0.154332 	5176.91
0.154587 	5180.25
0.154841 	5183.73
0.155095 	5187.23
0.155349 	5190.73
0.155604 	5194.22
0.155858 	5197.74
0.156112 	5201.39
0.156366 	5205.04
0.156621 	5208.69
0.156875 	5212.34
0.157129 	5215.99
0.157383 	5219.76
0.157638 	5223.53
0.157892 	5227.31
0.158146 	5231.08
0.1584 	5234.86
0.158655 	5238.75
0.158909 	5242.65
0.159163 	5246.55
0.159417 	5250.45
0.159672 	5254.35
0.159926 	5258.33
0.16018 	5262.32
0.160434 	5266.32
0.160689 	5270.31
0.160943 	5274.3
0.161197 	5278.37
0.161451 	5282.46
0.161706 	5286.54
0.16196 	5290.63
0.162214 	5294.71
0.162468 	5298.85
0.162723 	5303
0.162977 	5307.15
0.163231 	5311.3
0.163485 	5315.44
0.16374 	5319.63
0.163994 	5323.85
0.164248 	5328.06
0.164503 	5332.27
0.164757 	5336.48
0.165011 	5340.72
0.165265 	5344.96
0.16552 	5349.21
0.165774 	5353.45
0.166028 	5357.7
0.166282 	5361.96
0.166537 	5366.25
0.166791 	5370.53
0.167045 	5374.81
0.167299 	5379.08
0.167554 	5383.37
0.167808 	5387.66
0.168062 	5391.95
0.168316 	5396.24
0.168571 	5400.53
0.168825 	5404.82
0.169079 	5409.12
0.169333 	5413.42
0.169588 	5417.72
0.169842 	5422.01
0.170096 	5426.3
0.17035 	5430.58
0.170605 	5434.87
0.170859 	5439.15
0.171113 	5443.43
0.171367 	5447.72
0.171622 	5451.99
0.171876 	5456.27
0.17213 	5460.54
0.172384 	5464.8
0.172639 	5469.05
0.172893 	5473.29
0.173147 	5477.53
0.173401 	5481.77
0.173656 	5486.01
0.17391 	5490.24
0.174164 	5494.46
0.174418 	5498.67
0.174673 	5502.87
0.174927 	5507.08
0.175181 	5511.25
0.175435 	5515.41
0.17569 	5519.57
0.175944 	5523.73
0.176198 	5527.89
0.176452 	5532.05
0.176707 	5536.17
0.176961 	5540.29
0.177215 	5544.4
0.177469 	5548.51
0.177724 	5552.58
0.177978 	5556.63
0.178232 	5560.68
0.178486 	5564.74
0.178741 	5568.79
0.178995 	5572.84
0.179249 	5576.86
0.179504 	5580.86
0.179758 	5584.86
0.180012 	5588.85
0.180266 	5592.79
0.180521 	5596.72
0.180775 	5600.65
0.181029 	5604.57
0.181283 	5608.5
0.181538 	5612.42
0.181792 	5616.32
0.182046 	5620.18
0.1823 	5624.04
0.182555 	5627.9
0.182809 	5631.71
0.183063 	5635.49
0.183317 	5639.27
0.183572 	5643.06
0.183826 	5646.84
0.18408 	5650.62
0.184334 	5654.38
0.184589 	5658.1
0.184843 	5661.81
0.185097 	5665.52
0.185351 	5669.17
0.185606 	5672.8
0.18586 	5676.43
0.186114 	5680.06
0.186368 	5683.7
0.186623 	5687.33
0.186877 	5690.94
0.187131 	5694.5
0.187385 	5698.05
0.18764 	5701.6
0.187894 	5705.1
0.188148 	5708.57
0.188402 	5712.04
0.188657 	5715.51
0.188911 	5718.98
0.189165 	5722.45
0.189419 	5725.92
0.189674 	5729.31
0.189928 	5732.7
0.190182 	5736.08
0.190436 	5739.42
0.190691 	5742.73
0.190945 	5746.03
0.191199 	5749.34
0.191453 	5752.64
0.191708 	5755.94
0.191962 	5759.25
0.192216 	5762.48
0.19247 	5765.71
0.192725 	5768.93
0.192979 	5772.1
0.193233 	5775.24
0.193487 	5778.38
0.193742 	5781.51
0.193996 	5784.65
0.19425 	5787.79
0.194505 	5790.93
0.194759 	5794.01
0.195013 	5797.06
0.195267 	5800.12
0.195522 	5803.12
0.195776 	5806.09
0.19603 	5809.06
0.196284 	5812.04
0.196539 	5815.01
0.196793 	5817.98
0.197047 	5820.95
0.197301 	5823.87
0.197556 	5826.76
0.19781 	5829.65
0.198064 	5832.49
0.198318 	5835.3
0.198573 	5838.1
0.198827 	5840.91
0.199081 	5843.71
0.199335 	5846.52
0.19959 	5849.32
0.199844 	5852.1
0.200098 	5854.82
0.200352 	5857.55
0.200607 	5860.23
0.200861 	5862.87
0.201115 	5865.51
0.201369 	5868.16
0.201624 	5870.8
0.201878 	5873.44
0.202132 	5876.08
0.202386 	5878.7
0.202641 	5881.27
0.202895 	5883.83
0.203149 	5886.35
0.203403 	5888.84
0.203658 	5891.32
0.203912 	5893.8
0.204166 	5896.28
0.20442 	5898.77
0.204675 	5901.25
0.204929 	5903.72
0.205183 	5906.13
0.205437 	5908.53
0.205692 	5910.9
0.205946 	5913.23
0.2062 	5915.55
0.206454 	5917.88
0.206709 	5920.21
0.206963 	5922.53
0.207217 	5924.86
0.207471 	5927.19
0.207726 	5929.44
0.20798 	5931.69
0.208234 	5933.91
0.208488 	5936.09
0.208743 	5938.26
0.208997 	5940.44
0.209251 	5942.61
0.209506 	5944.78
0.20976 	5946.96
0.210014 	5949.13
0.210268 	5951.25
0.210523 	5953.35
0.210777 	5955.42
0.211031 	5957.45
0.211285 	5959.48
0.21154 	5961.5
0.211794 	5963.53
0.212048 	5965.56
0.212302 	5967.59
0.212557 	5969.61
0.212811 	5971.59
0.213065 	5973.55
0.213319 	5975.48
0.213574 	5977.37
0.213828 	5979.25
0.214082 	5981.13
0.214336 	5983.02
0.214591 	5984.9
0.214845 	5986.79
0.215099 	5988.67
0.215353 	5990.52
0.215608 	5992.33
0.215862 	5994.13
0.216116 	5995.88
0.21637 	5997.62
0.216625 	5999.37
0.216879 	6001.11
0.217133 	6002.86
0.217387 	6004.6
0.217642 	6006.35
0.217896 	6008.07
0.21815 	6009.75
0.218404 	6011.41
0.218659 	6013.02
0.218913 	6014.64
0.219167 	6016.25
0.219421 	6017.86
0.219676 	6019.47
0.21993 	6021.08
0.220184 	6022.7
0.220438 	6024.29
0.220693 	6025.84
0.220947 	6027.37
0.221201 	6028.86
0.221455 	6030.34
0.22171 	6031.82
0.221964 	6033.3
0.222218 	6034.79
0.222472 	6036.27
0.222727 	6037.75
0.222981 	6039.23
0.223235 	6040.65
0.223489 	6042.06
0.223744 	6043.41
0.223998 	6044.77
0.224252 	6046.13
0.224507 	6047.48
0.224761 	6048.84
0.225015 	6050.2
0.225269 	6051.56
0.225524 	6052.91
0.225778 	6054.21
0.226032 	6055.5
0.226286 	6056.74
0.226541 	6057.97
0.226795 	6059.21
0.227049 	6060.44
0.227303 	6061.68
0.227558 	6062.91
0.227812 	6064.15
0.228066 	6065.38
0.22832 	6066.57
0.228575 	6067.74
0.228829 	6068.86
0.229083 	6069.98
0.229337 	6071.1
0.229592 	6072.22
0.229846 	6073.33
0.2301 	6074.45
0.230354 	6075.57
0.230609 	6076.69
0.230863 	6077.76
0.231117 	6078.82
0.231371 	6079.83
0.231626 	6080.83
0.23188 	6081.84
0.232134 	6082.84
0.232388 	6083.84
0.232643 	6084.85
0.232897 	6085.85
0.233151 	6086.86
0.233405 	6087.83
0.23366 	6088.77
0.233914 	6089.68
0.234168 	6090.57
0.234422 	6091.46
0.234677 	6092.36
0.234931 	6093.25
0.235185 	6094.14
0.235439 	6095.04
0.235694 	6095.93
0.235948 	6096.8
0.236202 	6097.64
0.236456 	6098.44
0.236711 	6099.23
0.236965 	6100.01
0.237219 	6100.8
0.237473 	6101.59
0.237728 	6102.38
0.237982 	6103.17
0.238236 	6103.95
0.23849 	6104.72
0.238745 	6105.46
0.238999 	6106.16
0.239253 	6106.84
0.239508 	6107.53
0.239762 	6108.21
0.240016 	6108.9
0.24027 	6109.59
0.240525 	6110.27
0.240779 	6110.96
0.241033 	6111.63
0.241287 	6112.27
0.241542 	6112.87
0.241796 	6113.46
0.24205 	6114.05
0.242304 	6114.64
0.242559 	6115.23
0.242813 	6115.82
0.243067 	6116.41
0.243321 	6117
0.243576 	6117.58
0.24383 	6118.12
0.244084 	6118.64
0.244338 	6119.14
0.244593 	6119.64
0.244847 	6120.14
0.245101 	6120.64
0.245355 	6121.14
0.24561 	6121.64
0.245864 	6122.13
0.246118 	6122.63
0.246372 	6123.09
0.246627 	6123.52
0.246881 	6123.94
0.247135 	6124.36
0.247389 	6124.77
0.247644 	6125.19
0.247898 	6125.61
0.248152 	6126.02
0.248406 	6126.44
0.248661 	6126.86
0.248915 	6127.24
0.249169 	6127.6
0.249423 	6127.94
0.249678 	6128.29
0.249932 	6128.63
0.250186 	6128.98
0.25044 	6129.32
0.250695 	6129.66
0.250949 	6130.01
0.251203 	6130.35
0.251457 	6130.66
0.251712 	6131.03
0.251966 	6131.5
0.25222 	6131.98
0.252474 	6132.45
0.252729 	6132.92
0.252983 	6133.4
0.253237 	6133.87
0.253491 	6134.35
0.253746 	6134.82
0.254 	6135.41
