0 	31.9256 	-2.7371e-07 	1.23591e-18
0.000254254 	31.9314 	-2.7402e-07 	3.15168e-15
0.000508509 	31.9372 	-2.7402e-07 	3.15168e-15
0.000762763 	31.9429 	-2.7402e-07 	3.15168e-15
0.00101702 	31.9487 	-2.7402e-07 	3.15168e-15
0.00127127 	31.9545 	-2.7402e-07 	3.15168e-15
0.00152553 	31.9603 	-2.7402e-07 	3.15168e-15
0.00177978 	31.966 	-2.7402e-07 	3.15167e-15
0.00203403 	31.9718 	-2.7402e-07 	3.15167e-15
0.00228829 	31.9776 	-2.7402e-07 	3.15167e-15
0.00254254 	31.9834 	-2.7402e-07 	3.15167e-15
0.0027968 	31.9968 	-2.79468e-07 	3.15329e-15
0.00305105 	32.011 	-2.79468e-07 	3.15329e-15
0.00330531 	32.0252 	-2.79468e-07 	3.15329e-15
0.00355956 	32.0394 	-2.79468e-07 	3.15329e-15
0.00381381 	32.0537 	-2.79468e-07 	3.15329e-15
0.00406807 	32.0679 	-2.79468e-07 	3.15329e-15
0.00432232 	32.0821 	-2.79468e-07 	3.15329e-15
0.00457658 	32.0963 	-2.79468e-07 	3.15329e-15
0.00483083 	32.1105 	-2.79468e-07 	3.15329e-15
0.00508509 	32.1247 	-2.79468e-07 	3.15329e-15
0.00533934 	32.1414 	-3.02847e-07 	3.20134e-15
0.00559359 	32.1587 	-3.02847e-07 	3.20133e-15
0.00584785 	32.176 	-3.02847e-07 	3.20133e-15
0.0061021 	32.1933 	-3.02847e-07 	3.20133e-15
0.00635636 	32.2106 	-3.02847e-07 	3.20133e-15
0.00661061 	32.2279 	-3.02847e-07 	3.20133e-15
0.00686486 	32.2452 	-3.02847e-07 	3.20133e-15
0.00711912 	32.2625 	-3.02847e-07 	3.20133e-15
0.00737337 	32.2798 	-3.02847e-07 	3.20133e-15
0.00762763 	32.2971 	-3.02847e-07 	3.20133e-15
0.00788188 	32.3152 	-3.43242e-07 	3.20604e-15
0.00813614 	32.3335 	-3.43242e-07 	3.20604e-15
0.00839039 	32.3518 	-3.43242e-07 	3.20604e-15
0.00864464 	32.3701 	-3.43242e-07 	3.20603e-15
0.0088989 	32.3885 	-3.43242e-07 	3.20603e-15
0.00915315 	32.4068 	-3.43242e-07 	3.20603e-15
0.00940741 	32.4251 	-3.43242e-07 	3.20603e-15
0.00966166 	32.4435 	-3.43242e-07 	3.20603e-15
0.00991592 	32.4618 	-3.43242e-07 	3.20603e-15
0.0101702 	32.4801 	-3.43242e-07 	3.20603e-15
0.0104244 	32.4996 	-3.96791e-07 	3.25763e-15
0.0106787 	32.5198 	-3.96791e-07 	3.25763e-15
0.0109329 	32.5399 	-3.96791e-07 	3.25763e-15
0.0111872 	32.5601 	-3.96791e-07 	3.25763e-15
0.0114414 	32.5803 	-3.96791e-07 	3.25762e-15
0.0116957 	32.6004 	-3.96791e-07 	3.25762e-15
0.0119499 	32.6206 	-3.96791e-07 	3.25762e-15
0.0122042 	32.6408 	-3.96791e-07 	3.25762e-15
0.0124585 	32.6609 	-3.96791e-07 	3.25762e-15
0.0127127 	32.6811 	-3.96791e-07 	3.25762e-15
0.012967 	32.7029 	-4.60023e-07 	3.30952e-15
0.0132212 	32.7259 	-4.60023e-07 	3.30952e-15
0.0134755 	32.749 	-4.60023e-07 	3.30951e-15
0.0137297 	32.7721 	-4.60023e-07 	3.30951e-15
0.013984 	32.7952 	-4.60023e-07 	3.30951e-15
0.0142382 	32.8183 	-4.60023e-07 	3.30951e-15
0.0144925 	32.8414 	-4.60023e-07 	3.30951e-15
0.0147467 	32.8645 	-4.60023e-07 	3.30951e-15
0.015001 	32.8876 	-4.60023e-07 	3.30951e-15
0.0152553 	32.9107 	-4.60023e-07 	3.3095e-15
0.0155095 	32.9354 	-5.30311e-07 	3.33554e-15
0.0157638 	32.9621 	-5.30311e-07 	3.33554e-15
0.016018 	32.9888 	-5.30311e-07 	3.33554e-15
0.0162723 	33.0155 	-5.30311e-07 	3.33554e-15
0.0165265 	33.0422 	-5.30311e-07 	3.33554e-15
0.0167808 	33.0689 	-5.30311e-07 	3.33553e-15
0.017035 	33.0956 	-5.30311e-07 	3.33553e-15
0.0172893 	33.1223 	-5.30311e-07 	3.33553e-15
0.0175435 	33.149 	-5.30311e-07 	3.33553e-15
0.0177978 	33.1757 	-5.30311e-07 	3.33553e-15
0.0180521 	33.2039 	-6.05817e-07 	3.36034e-15
0.0183063 	33.2346 	-6.05817e-07 	3.36033e-15
0.0185606 	33.2653 	-6.05817e-07 	3.36033e-15
0.0188148 	33.296 	-6.05817e-07 	3.36033e-15
0.0190691 	33.3267 	-6.05817e-07 	3.36033e-15
0.0193233 	33.3574 	-6.05817e-07 	3.36033e-15
0.0195776 	33.3881 	-6.05817e-07 	3.36032e-15
0.0198318 	33.4188 	-6.05817e-07 	3.36032e-15
0.0200861 	33.4495 	-6.05817e-07 	3.36032e-15
0.0203403 	33.4802 	-6.05817e-07 	3.36032e-15
0.0205946 	33.512 	-6.85384e-07 	3.38896e-15
0.0208488 	33.5469 	-6.85384e-07 	3.38895e-15
0.0211031 	33.5818 	-6.85384e-07 	3.38895e-15
0.0213574 	33.6168 	-6.85384e-07 	3.38895e-15
0.0216116 	33.6517 	-6.85384e-07 	3.38895e-15
0.0218659 	33.6866 	-6.85384e-07 	3.38895e-15
0.0221201 	33.7215 	-6.85384e-07 	3.38894e-15
0.0223744 	33.7565 	-6.85384e-07 	3.38894e-15
0.0226286 	33.7914 	-6.85384e-07 	3.38894e-15
0.0228829 	33.8263 	-6.85384e-07 	3.38894e-15
0.0231371 	33.862 	-7.68347e-07 	3.42264e-15
0.0233914 	33.9014 	-7.68347e-07 	3.42264e-15
0.0236456 	33.9407 	-7.68347e-07 	3.42264e-15
0.0238999 	33.98 	-7.68347e-07 	3.42264e-15
0.0241542 	34.0194 	-7.68347e-07 	3.42263e-15
0.0244084 	34.0587 	-7.68347e-07 	3.42263e-15
0.0246627 	34.098 	-7.68347e-07 	3.42263e-15
0.0249169 	34.1374 	-7.68347e-07 	3.42263e-15
0.0251712 	34.1767 	-7.68347e-07 	3.42262e-15
0.0254254 	34.216 	-7.68347e-07 	3.42262e-15
0.0256797 	34.2558 	-8.54157e-07 	3.4615e-15
0.0259339 	34.2997 	-8.54157e-07 	3.4615e-15
0.0261882 	34.3437 	-8.54157e-07 	3.46149e-15
0.0264424 	34.3876 	-8.54157e-07 	3.46149e-15
0.0266967 	34.4315 	-8.54157e-07 	3.46149e-15
0.026951 	34.4755 	-8.54157e-07 	3.46149e-15
0.0272052 	34.5194 	-8.54157e-07 	3.46148e-15
0.0274595 	34.5633 	-8.54157e-07 	3.46148e-15
0.0277137 	34.6072 	-8.54157e-07 	3.46148e-15
0.027968 	34.6512 	-8.54157e-07 	3.46147e-15
0.0282222 	34.6951 	-9.92419e-07 	-4.57242e-19
0.0284765 	34.7438 	-9.4148e-07 	3.50554e-15
0.0287307 	34.7925 	-9.4148e-07 	3.50553e-15
0.028985 	34.8412 	-9.4148e-07 	3.50553e-15
0.0292392 	34.8899 	-9.4148e-07 	3.50553e-15
0.0294935 	34.9386 	-9.4148e-07 	3.50552e-15
0.0297477 	34.9873 	-9.4148e-07 	3.50552e-15
0.030002 	35.036 	-9.4148e-07 	3.50552e-15
0.0302563 	35.0847 	-9.4148e-07 	3.50551e-15
0.0305105 	35.1334 	-9.4148e-07 	3.50551e-15
0.0307648 	35.1821 	-9.4148e-07 	3.50551e-15
0.031019 	35.2353 	-1.02825e-06 	3.59431e-15
0.0312733 	35.289 	-1.02825e-06 	3.59431e-15
0.0315275 	35.3427 	-1.02825e-06 	3.59431e-15
0.0317818 	35.3963 	-1.02825e-06 	3.5943e-15
0.032036 	35.45 	-1.02825e-06 	3.5943e-15
0.0322903 	35.5036 	-1.02825e-06 	3.5943e-15
0.0325445 	35.5573 	-1.02825e-06 	3.59429e-15
0.0327988 	35.611 	-1.02825e-06 	3.59429e-15
0.0330531 	35.6646 	-1.02825e-06 	3.59429e-15
0.0333073 	35.7183 	-1.02825e-06 	3.59428e-15
0.0335616 	35.7761 	-1.11645e-06 	3.61438e-15
0.0338158 	35.8349 	-1.11645e-06 	3.61438e-15
0.0340701 	35.8937 	-1.11645e-06 	3.61438e-15
0.0343243 	35.9525 	-1.11645e-06 	3.61437e-15
0.0345786 	36.0113 	-1.11645e-06 	3.61437e-15
0.0348328 	36.0701 	-1.11645e-06 	3.61437e-15
0.0350871 	36.129 	-1.11645e-06 	3.61436e-15
0.0353413 	36.1878 	-1.11645e-06 	3.61436e-15
0.0355956 	36.2466 	-1.11645e-06 	3.61435e-15
0.0358498 	36.3054 	-1.11645e-06 	3.61435e-15
0.0361041 	36.368 	-1.20719e-06 	3.72208e-15
0.0363584 	36.4322 	-1.20719e-06 	3.72208e-15
0.0366126 	36.4963 	-1.20719e-06 	3.72208e-15
0.0368669 	36.5605 	-1.20719e-06 	3.72207e-15
0.0371211 	36.6246 	-1.20719e-06 	3.72207e-15
0.0373754 	36.6887 	-1.20719e-06 	3.72206e-15
0.0376296 	36.7529 	-1.20719e-06 	3.72206e-15
0.0378839 	36.817 	-1.20719e-06 	3.72206e-15
0.0381381 	36.8812 	-1.20719e-06 	3.72205e-15
0.0383924 	36.9453 	-1.20719e-06 	3.72205e-15
0.0386466 	37.013 	-1.30232e-06 	3.83285e-15
0.0389009 	37.0827 	-1.30232e-06 	3.83285e-15
0.0391552 	37.1523 	-1.30232e-06 	3.83284e-15
0.0394094 	37.222 	-1.30232e-06 	3.83284e-15
0.0396637 	37.2917 	-1.30232e-06 	3.83284e-15
0.0399179 	37.3614 	-1.30232e-06 	3.83283e-15
0.0401722 	37.4311 	-1.30232e-06 	3.83283e-15
0.0404264 	37.5008 	-1.30232e-06 	3.83282e-15
0.0406807 	37.5705 	-1.30232e-06 	3.83282e-15
0.0409349 	37.6401 	-1.30232e-06 	3.83281e-15
0.0411892 	37.713 	-1.40126e-06 	3.94179e-15
0.0414434 	37.7884 	-1.40126e-06 	3.94179e-15
0.0416977 	37.8639 	-1.40126e-06 	3.94178e-15
0.041952 	37.9393 	-1.40126e-06 	3.94178e-15
0.0422062 	38.0147 	-1.40126e-06 	3.94177e-15
0.0424605 	38.0902 	-1.40126e-06 	3.94177e-15
0.0427147 	38.1656 	-1.40126e-06 	3.94176e-15
0.042969 	38.2411 	-1.40126e-06 	3.94176e-15
0.0432232 	38.3165 	-1.40126e-06 	3.94175e-15
0.0434775 	38.392 	-1.40126e-06 	3.94175e-15
0.0437317 	38.4701 	-1.50364e-06 	4.01712e-15
0.043986 	38.5516 	-1.50364e-06 	4.01711e-15
0.0442402 	38.633 	-1.50364e-06 	4.01711e-15
0.0444945 	38.7144 	-1.50364e-06 	4.0171e-15
0.0447487 	38.7959 	-1.50364e-06 	4.0171e-15
0.045003 	38.8773 	-1.50364e-06 	4.01709e-15
0.0452573 	38.9587 	-1.50364e-06 	4.01709e-15
0.0455115 	39.0402 	-1.50364e-06 	4.01708e-15
0.0457658 	39.1216 	-1.50364e-06 	4.01707e-15
0.04602 	39.203 	-1.50364e-06 	4.01707e-15
0.0462743 	39.2867 	-1.60938e-06 	4.05341e-15
0.0465285 	39.3744 	-1.60938e-06 	4.05341e-15
0.0467828 	39.462 	-1.60938e-06 	4.0534e-15
0.047037 	39.5497 	-1.60938e-06 	4.05339e-15
0.0472913 	39.6373 	-1.60938e-06 	4.05339e-15
0.0475455 	39.725 	-1.60938e-06 	4.05338e-15
0.0477998 	39.8127 	-1.60938e-06 	4.05338e-15
0.0480541 	39.9003 	-1.60938e-06 	4.05337e-15
0.0483083 	39.988 	-1.60938e-06 	4.05337e-15
0.0485626 	40.0756 	-1.60938e-06 	4.05336e-15
0.0488168 	40.1651 	-1.71833e-06 	4.10454e-15
0.0490711 	40.2592 	-1.71833e-06 	4.10454e-15
0.0493253 	40.3533 	-1.71833e-06 	4.10453e-15
0.0495796 	40.4474 	-1.71833e-06 	4.10453e-15
0.0498338 	40.5416 	-1.71833e-06 	4.10452e-15
0.0500881 	40.6357 	-1.71833e-06 	4.10451e-15
0.0503423 	40.7298 	-1.71833e-06 	4.10451e-15
0.0505966 	40.824 	-1.71833e-06 	4.1045e-15
0.0508509 	40.9181 	-1.71833e-06 	4.1045e-15
0.0511051 	41.0122 	-1.71833e-06 	4.10449e-15
0.0513594 	41.1076 	-1.83021e-06 	4.21012e-15
0.0516136 	41.2084 	-1.83021e-06 	4.21011e-15
0.0518679 	41.3093 	-1.83021e-06 	4.2101e-15
0.0521221 	41.4101 	-1.83021e-06 	4.2101e-15
0.0523764 	41.511 	-1.83021e-06 	4.21009e-15
0.0526306 	41.6118 	-1.83021e-06 	4.21008e-15
0.0528849 	41.7127 	-1.83021e-06 	4.21008e-15
0.0531391 	41.8135 	-1.83021e-06 	4.21007e-15
0.0533934 	41.9144 	-1.83021e-06 	4.21006e-15
0.0536476 	42.0152 	-1.83021e-06 	4.21006e-15
0.0539019 	42.1167 	-1.94455e-06 	4.2599e-15
0.0541562 	42.2245 	-1.94455e-06 	4.25989e-15
0.0544104 	42.3324 	-1.94455e-06 	4.25989e-15
0.0546647 	42.4402 	-1.94455e-06 	4.25988e-15
0.0549189 	42.548 	-1.94455e-06 	4.25987e-15
0.0551732 	42.6558 	-1.94455e-06 	4.25987e-15
0.0554274 	42.7637 	-1.94455e-06 	4.25986e-15
0.0556817 	42.8715 	-1.94455e-06 	4.25985e-15
0.0559359 	42.9793 	-1.94455e-06 	4.25985e-15
0.0561902 	43.0872 	-1.94455e-06 	4.25984e-15
0.0564444 	43.195 	-2.31497e-06 	-7.49935e-19
0.0566987 	43.3101 	-2.06059e-06 	4.37396e-15
0.056953 	43.4251 	-2.06059e-06 	4.37395e-15
0.0572072 	43.5402 	-2.06059e-06 	4.37395e-15
0.0574615 	43.6553 	-2.06059e-06 	4.37394e-15
0.0577157 	43.7703 	-2.06059e-06 	4.37393e-15
0.05797 	43.8854 	-2.06059e-06 	4.37392e-15
0.0582242 	44.0004 	-2.06059e-06 	4.37392e-15
0.0584785 	44.1155 	-2.06059e-06 	4.37391e-15
0.0587327 	44.2306 	-2.06059e-06 	4.3739e-15
0.058987 	44.3456 	-2.06059e-06 	4.3739e-15
0.0592412 	44.4675 	-2.17729e-06 	4.49378e-15
0.0594955 	44.5901 	-2.17729e-06 	4.49377e-15
0.0597497 	44.7126 	-2.17729e-06 	4.49377e-15
0.060004 	44.8352 	-2.17729e-06 	4.49376e-15
0.0602583 	44.9577 	-2.17729e-06 	4.49375e-15
0.0605125 	45.0803 	-2.17729e-06 	4.49374e-15
0.0607668 	45.2029 	-2.17729e-06 	4.49373e-15
0.061021 	45.3254 	-2.17729e-06 	4.49373e-15
0.0612753 	45.448 	-2.17729e-06 	4.49372e-15
0.0615295 	45.5705 	-2.17729e-06 	4.49371e-15
0.0617838 	45.6994 	-2.29477e-06 	4.65876e-15
0.062038 	45.8297 	-2.29477e-06 	4.65875e-15
0.0622923 	45.96 	-2.29477e-06 	4.65874e-15
0.0625465 	46.0903 	-2.29477e-06 	4.65874e-15
0.0628008 	46.2206 	-2.29477e-06 	4.65873e-15
0.0630551 	46.3509 	-2.29477e-06 	4.65872e-15
0.0633093 	46.4812 	-2.29477e-06 	4.65871e-15
0.0635636 	46.6114 	-2.29477e-06 	4.6587e-15
0.0638178 	46.7417 	-2.29477e-06 	4.65869e-15
0.0640721 	46.872 	-2.29477e-06 	4.65869e-15
0.0643263 	47.0081 	-2.41286e-06 	4.73513e-15
0.0645806 	47.1464 	-2.41286e-06 	4.73512e-15
0.0648348 	47.2846 	-2.41286e-06 	4.73512e-15
0.0650891 	47.4229 	-2.41286e-06 	4.73511e-15
0.0653433 	47.5611 	-2.41286e-06 	4.7351e-15
0.0655976 	47.6994 	-2.41286e-06 	4.73509e-15
0.0658519 	47.8377 	-2.41286e-06 	4.73508e-15
0.0661061 	47.9759 	-2.41286e-06 	4.73507e-15
0.0663604 	48.1142 	-2.41286e-06 	4.73506e-15
0.0666146 	48.2524 	-2.41286e-06 	4.73505e-15
0.0668689 	48.3959 	-2.53095e-06 	4.88196e-15
0.0671231 	48.5424 	-2.53095e-06 	4.88195e-15
0.0673774 	48.6888 	-2.53095e-06 	4.88194e-15
0.0676316 	48.8353 	-2.53095e-06 	4.88193e-15
0.0678859 	48.9817 	-2.53095e-06 	4.88192e-15
0.0681401 	49.1282 	-2.53095e-06 	4.88191e-15
0.0683944 	49.2746 	-2.53095e-06 	4.8819e-15
0.0686486 	49.4211 	-2.53095e-06 	4.88189e-15
0.0689029 	49.5675 	-2.53095e-06 	4.88188e-15
0.0691572 	49.714 	-2.53095e-06 	4.88187e-15
0.0694114 	49.865 	-2.6469e-06 	5.03471e-15
0.0696657 	50.0199 	-2.6469e-06 	5.0347e-15
0.0699199 	50.1747 	-2.6469e-06 	5.03469e-15
0.0701742 	50.3296 	-2.6469e-06 	5.03468e-15
0.0704284 	50.4844 	-2.6469e-06 	5.03467e-15
0.0706827 	50.6393 	-2.6469e-06 	5.03466e-15
0.0709369 	50.7942 	-2.6469e-06 	5.03465e-15
0.0711912 	50.949 	-2.6469e-06 	5.03464e-15
0.0714454 	51.1039 	-2.6469e-06 	5.03463e-15
0.0716997 	51.2587 	-2.6469e-06 	5.03462e-15
0.071954 	51.4175 	-2.7511e-06 	5.19327e-15
0.0722082 	51.581 	-2.7511e-06 	5.19326e-15
0.0724625 	51.7444 	-2.7511e-06 	5.19325e-15
0.0727167 	51.9079 	-2.7511e-06 	5.19324e-15
0.072971 	52.0713 	-2.7511e-06 	5.19323e-15
0.0732252 	52.2348 	-2.7511e-06 	5.19322e-15
0.0734795 	52.3983 	-2.7511e-06 	5.19321e-15
0.0737337 	52.5617 	-2.7511e-06 	5.1932e-15
0.073988 	52.7252 	-2.7511e-06 	5.19319e-15
0.0742422 	52.8886 	-2.7511e-06 	5.19318e-15
0.0744965 	53.0553 	-2.83663e-06 	5.35683e-15
0.0747508 	53.2274 	-2.83663e-06 	5.35682e-15
0.075005 	53.3996 	-2.83663e-06 	5.35681e-15
0.0752593 	53.5718 	-2.83663e-06 	5.3568e-15
0.0755135 	53.7439 	-2.83663e-06 	5.35679e-15
0.0757678 	53.9161 	-2.83663e-06 	5.35678e-15
0.076022 	54.0883 	-2.83663e-06 	5.35677e-15
0.0762763 	54.2604 	-2.83663e-06 	5.35676e-15
0.0765305 	54.4326 	-2.83663e-06 	5.35675e-15
0.0767848 	54.6048 	-2.83663e-06 	5.35673e-15
0.077039 	54.7793 	-2.89556e-06 	5.46702e-15
0.0772933 	54.9602 	-2.89556e-06 	5.46701e-15
0.0775475 	55.1411 	-2.89556e-06 	5.467e-15
0.0778018 	55.3219 	-2.89556e-06 	5.46699e-15
0.0780561 	55.5028 	-2.89556e-06 	5.46697e-15
0.0783103 	55.6837 	-2.89556e-06 	5.46696e-15
0.0785646 	55.8646 	-2.89556e-06 	5.46695e-15
0.0788188 	56.0455 	-2.89556e-06 	5.46694e-15
0.0790731 	56.2264 	-2.89556e-06 	5.46693e-15
0.0793273 	56.4072 	-2.89556e-06 	5.46692e-15
0.0795816 	56.5897 	-2.92152e-06 	5.64159e-15
0.0798358 	56.7792 	-2.92152e-06 	5.64158e-15
0.0800901 	56.9686 	-2.92152e-06 	5.64157e-15
0.0803443 	57.1581 	-2.92152e-06 	5.64156e-15
0.0805986 	57.3476 	-2.92152e-06 	5.64155e-15
0.0808529 	57.5371 	-2.92152e-06 	5.64153e-15
0.0811071 	57.7265 	-2.92152e-06 	5.64152e-15
0.0813614 	57.916 	-2.92152e-06 	5.64151e-15
0.0816156 	58.1055 	-2.92152e-06 	5.6415e-15
0.0818699 	58.295 	-2.92152e-06 	5.64149e-15
0.0821241 	58.4852 	-2.94416e-06 	5.81329e-15
0.0823784 	58.683 	-2.94416e-06 	5.81328e-15
0.0826326 	58.8808 	-2.94416e-06 	5.81327e-15
0.0828869 	59.0786 	-2.94416e-06 	5.81325e-15
0.0831411 	59.2764 	-2.94416e-06 	5.81324e-15
0.0833954 	59.4742 	-2.94416e-06 	5.81323e-15
0.0836496 	59.672 	-2.94416e-06 	5.81322e-15
0.0839039 	59.8698 	-2.94416e-06 	5.8132e-15
0.0841582 	60.0676 	-2.94416e-06 	5.81319e-15
0.0844124 	60.2654 	-2.94416e-06 	5.81318e-15
0.0846667 	60.4633 	-3.85877e-06 	1.51941e-17
0.0849209 	60.6691 	-2.95188e-06 	5.98669e-15
0.0851752 	60.875 	-2.95188e-06 	5.98667e-15
0.0854294 	61.0808 	-2.95188e-06 	5.98666e-15
0.0856837 	61.2867 	-2.95188e-06 	5.98665e-15
0.0859379 	61.4925 	-2.95188e-06 	5.98663e-15
0.0861922 	61.6984 	-2.95188e-06 	5.98662e-15
0.0864464 	61.9042 	-2.95188e-06 	5.98661e-15
0.0867007 	62.1101 	-2.95188e-06 	5.98659e-15
0.086955 	62.3159 	-2.95188e-06 	5.98658e-15
0.0872092 	62.5218 	-2.95188e-06 	5.98657e-15
0.0874635 	62.7346 	-2.94691e-06 	6.16116e-15
0.0877177 	62.9481 	-2.94691e-06 	6.16114e-15
0.087972 	63.1617 	-2.94691e-06 	6.16113e-15
0.0882262 	63.3752 	-2.94691e-06 	6.16112e-15
0.0884805 	63.5887 	-2.94691e-06 	6.1611e-15
0.0887347 	63.8023 	-2.94691e-06 	6.16109e-15
0.088989 	64.0158 	-2.94691e-06 	6.16108e-15
0.0892432 	64.2293 	-2.94691e-06 	6.16106e-15
0.0894975 	64.4429 	-2.94691e-06 	6.16105e-15
0.0897518 	64.6564 	-2.94691e-06 	6.16103e-15
0.090006 	64.8758 	-2.93621e-06 	6.3356e-15
0.0902603 	65.0964 	-2.93621e-06 	6.33559e-15
0.0905145 	65.3171 	-2.93621e-06 	6.33557e-15
0.0907688 	65.5377 	-2.93621e-06 	6.33556e-15
0.091023 	65.7583 	-2.93621e-06 	6.33555e-15
0.0912773 	65.979 	-2.93621e-06 	6.33553e-15
0.0915315 	66.1996 	-2.93621e-06 	6.33552e-15
0.0917858 	66.4203 	-2.93621e-06 	6.3355e-15
0.09204 	66.6409 	-2.93621e-06 	6.33549e-15
0.0922943 	66.8616 	-2.93621e-06 	6.33547e-15
0.0925485 	67.0868 	-2.93405e-06 	6.50881e-15
0.0928028 	67.3137 	-2.93405e-06 	6.50879e-15
0.0930571 	67.5406 	-2.93405e-06 	6.50878e-15
0.0933113 	67.7675 	-2.93405e-06 	6.50876e-15
0.0935656 	67.9945 	-2.93405e-06 	6.50875e-15
0.0938198 	68.2214 	-2.93405e-06 	6.50873e-15
0.0940741 	68.4483 	-2.93405e-06 	6.50872e-15
0.0943283 	68.6752 	-2.93405e-06 	6.5087e-15
0.0945826 	68.9022 	-2.93405e-06 	6.50869e-15
0.0948368 	69.1291 	-2.93405e-06 	6.50867e-15
0.0950911 	69.3593 	-2.90163e-06 	6.62121e-15
0.0953453 	69.5915 	-2.90163e-06 	6.62119e-15
0.0955996 	69.8236 	-2.90163e-06 	6.62118e-15
0.0958539 	70.0557 	-2.90163e-06 	6.62116e-15
0.0961081 	70.2879 	-2.90163e-06 	6.62115e-15
0.0963624 	70.52 	-2.90163e-06 	6.62113e-15
0.0966166 	70.7522 	-2.90163e-06 	6.62112e-15
0.0968709 	70.9843 	-2.90163e-06 	6.6211e-15
0.0971251 	71.2164 	-2.90163e-06 	6.62109e-15
0.0973794 	71.4486 	-2.90163e-06 	6.62107e-15
0.0976336 	71.6828 	-2.82502e-06 	6.8436e-15
0.0978879 	71.9187 	-2.82502e-06 	6.84358e-15
0.0981421 	72.1547 	-2.82502e-06 	6.84357e-15
0.0983964 	72.3906 	-2.82502e-06 	6.84355e-15
0.0986507 	72.6266 	-2.82502e-06 	6.84354e-15
0.0989049 	72.8625 	-2.82502e-06 	6.84352e-15
0.0991592 	73.0984 	-2.82502e-06 	6.84351e-15
0.0994134 	73.3344 	-2.82502e-06 	6.84349e-15
0.0996677 	73.5703 	-2.82502e-06 	6.84348e-15
0.0999219 	73.8063 	-2.82502e-06 	6.84346e-15
0.100176 	74.0431 	-2.70849e-06 	7.04693e-15
0.10043 	74.2811 	-2.70849e-06 	7.04692e-15
0.100685 	74.519 	-2.70849e-06 	7.0469e-15
0.100939 	74.757 	-2.70849e-06 	7.04689e-15
0.101193 	74.9949 	-2.70849e-06 	7.04687e-15
0.101447 	75.2329 	-2.70849e-06 	7.04686e-15
0.101702 	75.4708 	-2.70849e-06 	7.04684e-15
0.101956 	75.7087 	-2.70849e-06 	7.04683e-15
0.10221 	75.9467 	-2.70849e-06 	7.04681e-15
0.102464 	76.1846 	-2.70849e-06 	7.0468e-15
0.102719 	76.4225 	-2.53084e-06 	7.20105e-15
0.102973 	76.6603 	-2.53084e-06 	7.20104e-15
0.103227 	76.8981 	-2.53084e-06 	7.20102e-15
0.103481 	77.1359 	-2.53084e-06 	7.20101e-15
0.103736 	77.3737 	-2.53084e-06 	7.20099e-15
0.10399 	77.6114 	-2.53084e-06 	7.20098e-15
0.104244 	77.8492 	-2.53084e-06 	7.20096e-15
0.104498 	78.087 	-2.53084e-06 	7.20095e-15
0.104753 	78.3248 	-2.53084e-06 	7.20093e-15
0.105007 	78.5626 	-2.53084e-06 	7.20092e-15
0.105261 	78.7996 	-2.3558e-06 	7.38695e-15
0.105516 	79.0348 	-2.3558e-06 	7.38693e-15
0.10577 	79.27 	-2.3558e-06 	7.38692e-15
0.106024 	79.5052 	-2.3558e-06 	7.3869e-15
0.106278 	79.7403 	-2.3558e-06 	7.38689e-15
0.106533 	79.9755 	-2.3558e-06 	7.38687e-15
0.106787 	80.2107 	-2.3558e-06 	7.38686e-15
0.107041 	80.4459 	-2.3558e-06 	7.38684e-15
0.107295 	80.6811 	-2.3558e-06 	7.38683e-15
0.10755 	80.9162 	-2.3558e-06 	7.38681e-15
0.107804 	81.1505 	-2.07024e-06 	7.57836e-15
0.108058 	81.3805 	-2.07024e-06 	7.57835e-15
0.108312 	81.6105 	-2.07024e-06 	7.57833e-15
0.108567 	81.8406 	-2.07024e-06 	7.57832e-15
0.108821 	82.0706 	-2.07024e-06 	7.5783e-15
0.109075 	82.3006 	-2.07024e-06 	7.57829e-15
0.109329 	82.5306 	-2.07024e-06 	7.57827e-15
0.109584 	82.7607 	-2.07024e-06 	7.57826e-15
0.109838 	82.9907 	-2.07024e-06 	7.57824e-15
0.110092 	83.2207 	-2.07024e-06 	7.57823e-15
0.110346 	83.45 	-1.77223e-06 	7.67957e-15
0.110601 	83.6721 	-1.77223e-06 	7.67955e-15
0.110855 	83.8941 	-1.77223e-06 	7.67954e-15
0.111109 	84.1162 	-1.77223e-06 	7.67952e-15
0.111363 	84.3382 	-1.77223e-06 	7.67951e-15
0.111618 	84.5602 	-1.77223e-06 	7.67949e-15
0.111872 	84.7823 	-1.77223e-06 	7.67948e-15
0.112126 	85.0043 	-1.77223e-06 	7.67947e-15
0.11238 	85.2264 	-1.77223e-06 	7.67945e-15
0.112635 	85.4484 	-1.77223e-06 	7.67944e-15
0.112889 	85.6704 	-2.87841e-06 	2.83964e-17
0.113143 	85.8814 	-1.43839e-06 	7.77053e-15
0.113397 	86.0923 	-1.43839e-06 	7.77051e-15
0.113652 	86.3033 	-1.43839e-06 	7.7705e-15
0.113906 	86.5142 	-1.43839e-06 	7.77048e-15
0.11416 	86.7251 	-1.43839e-06 	7.77047e-15
0.114414 	86.9361 	-1.43839e-06 	7.77046e-15
0.114669 	87.147 	-1.43839e-06 	7.77044e-15
0.114923 	87.358 	-1.43839e-06 	7.77043e-15
0.115177 	87.5689 	-1.43839e-06 	7.77042e-15
0.115431 	87.7798 	-1.43839e-06 	7.7704e-15
0.115686 	87.9777 	-1.01795e-06 	7.8394e-15
0.11594 	88.1743 	-1.01795e-06 	7.83939e-15
0.116194 	88.3708 	-1.01795e-06 	7.83938e-15
0.116448 	88.5674 	-1.01795e-06 	7.83936e-15
0.116703 	88.7639 	-1.01795e-06 	7.83935e-15
0.116957 	88.9605 	-1.01795e-06 	7.83934e-15
0.117211 	89.157 	-1.01795e-06 	7.83933e-15
0.117465 	89.3536 	-1.01795e-06 	7.83931e-15
0.11772 	89.5502 	-1.01795e-06 	7.8393e-15
0.117974 	89.7467 	-1.01795e-06 	7.83929e-15
0.118228 	89.9287 	-6.03969e-07 	7.88681e-15
0.118482 	90.1074 	-6.03969e-07 	7.8868e-15
0.118737 	90.2861 	-6.03969e-07 	7.88679e-15
0.118991 	90.4648 	-6.03969e-07 	7.88678e-15
0.119245 	90.6435 	-6.03969e-07 	7.88677e-15
0.119499 	90.8222 	-6.03969e-07 	7.88675e-15
0.119754 	91.0009 	-6.03969e-07 	7.88674e-15
0.120008 	91.1796 	-6.03969e-07 	7.88673e-15
0.120262 	91.3583 	-6.03969e-07 	7.88672e-15
0.120517 	91.537 	-6.03969e-07 	7.88671e-15
0.120771 	91.7002 	-1.91515e-07 	7.91184e-15
0.121025 	91.8577 	-1.91515e-07 	7.91183e-15
0.121279 	92.0151 	-1.91515e-07 	7.91182e-15
0.121534 	92.1726 	-1.91515e-07 	7.91181e-15
0.121788 	92.3301 	-1.91515e-07 	7.9118e-15
0.122042 	92.4875 	-1.91515e-07 	7.91179e-15
0.122296 	92.645 	-1.91515e-07 	7.91178e-15
0.122551 	92.8024 	-1.91515e-07 	7.91177e-15
0.122805 	92.9599 	-1.91515e-07 	7.91176e-15
0.123059 	93.1174 	-1.91515e-07 	7.91175e-15
0.123313 	93.2594 	2.22055e-07 	7.91445e-15
0.123568 	93.3926 	2.22055e-07 	7.91444e-15
0.123822 	93.5259 	2.22055e-07 	7.91444e-15
0.124076 	93.6591 	2.22055e-07 	7.91443e-15
0.12433 	93.7924 	2.22055e-07 	7.91442e-15
0.124585 	93.9256 	2.22055e-07 	7.91441e-15
0.124839 	94.0589 	2.22055e-07 	7.9144e-15
0.125093 	94.1921 	2.22055e-07 	7.91439e-15
0.125347 	94.3253 	2.22055e-07 	7.91438e-15
0.125602 	94.4586 	2.22055e-07 	7.91438e-15
0.125856 	94.5774 	5.9711e-07 	7.89636e-15
0.12611 	94.6841 	5.9711e-07 	7.89635e-15
0.126364 	94.7908 	5.9711e-07 	7.89635e-15
0.126619 	94.8976 	5.9711e-07 	7.89634e-15
0.126873 	95.0043 	5.9711e-07 	7.89633e-15
0.127127 	95.111 	5.9711e-07 	7.89633e-15
0.127381 	95.2178 	5.9711e-07 	7.89632e-15
0.127636 	95.3245 	5.9711e-07 	7.89631e-15
0.12789 	95.4312 	5.9711e-07 	7.89631e-15
0.128144 	95.538 	5.9711e-07 	7.8963e-15
0.128398 	95.6321 	9.2595e-07 	7.86095e-15
0.128653 	95.7111 	9.2595e-07 	7.86095e-15
0.128907 	95.79 	9.2595e-07 	7.86094e-15
0.129161 	95.869 	9.2595e-07 	7.86094e-15
0.129415 	95.948 	9.2595e-07 	7.86093e-15
0.12967 	96.027 	9.2595e-07 	7.86093e-15
0.129924 	96.1059 	9.2595e-07 	7.86092e-15
0.130178 	96.1849 	9.2595e-07 	7.86092e-15
0.130432 	96.2639 	9.2595e-07 	7.86091e-15
0.130687 	96.3429 	9.2595e-07 	7.86091e-15
0.130941 	96.4117 	1.20526e-06 	7.81265e-15
0.131195 	96.4628 	1.20526e-06 	7.81265e-15
0.131449 	96.5139 	1.20526e-06 	7.81265e-15
0.131704 	96.5651 	1.20526e-06 	7.81264e-15
0.131958 	96.6162 	1.20526e-06 	7.81264e-15
0.132212 	96.6673 	1.20526e-06 	7.81264e-15
0.132466 	96.7184 	1.20526e-06 	7.81263e-15
0.132721 	96.7696 	1.20526e-06 	7.81263e-15
0.132975 	96.8207 	1.20526e-06 	7.81263e-15
0.133229 	96.8718 	1.20526e-06 	7.81262e-15
0.133483 	96.9156 	1.42614e-06 	7.75454e-15
0.133738 	96.9398 	1.42614e-06 	7.75454e-15
0.133992 	96.964 	1.42614e-06 	7.75454e-15
0.134246 	96.9883 	1.42614e-06 	7.75454e-15
0.134501 	97.0125 	1.42614e-06 	7.75454e-15
0.134755 	97.0367 	1.42614e-06 	7.75454e-15
0.135009 	97.0609 	1.42614e-06 	7.75453e-15
0.135263 	97.0852 	1.42614e-06 	7.75453e-15
0.135518 	97.1094 	1.42614e-06 	7.75453e-15
0.135772 	97.1336 	1.42614e-06 	7.75453e-15
0.136026 	97.1533 	1.62465e-06 	7.7455e-15
0.13628 	97.1523 	1.62465e-06 	7.7455e-15
0.136535 	97.1513 	1.62465e-06 	7.7455e-15
0.136789 	97.1503 	1.62465e-06 	7.7455e-15
0.137043 	97.1493 	1.62465e-06 	7.7455e-15
0.137297 	97.1483 	1.62465e-06 	7.7455e-15
0.137552 	97.1473 	1.62465e-06 	7.7455e-15
0.137806 	97.1463 	1.62465e-06 	7.7455e-15
0.13806 	97.1453 	1.62465e-06 	7.7455e-15
0.138314 	97.1444 	1.62465e-06 	7.7455e-15
0.138569 	97.1413 	1.78101e-06 	7.6179e-15
0.138823 	97.1171 	1.78101e-06 	7.6179e-15
0.139077 	97.0929 	1.78101e-06 	7.6179e-15
0.139331 	97.0688 	1.78101e-06 	7.6179e-15
0.139586 	97.0446 	1.78101e-06 	7.61791e-15
0.13984 	97.0204 	1.78101e-06 	7.61791e-15
0.140094 	96.9962 	1.78101e-06 	7.61791e-15
0.140348 	96.9721 	1.78101e-06 	7.61791e-15
0.140603 	96.9479 	1.78101e-06 	7.61791e-15
0.140857 	96.9237 	1.78101e-06 	7.61791e-15
0.141111 	96.8996 	9.67237e-07 	1.89517e-17
0.141365 	96.8544 	1.90637e-06 	7.5247e-15
0.14162 	96.8092 	1.90637e-06 	7.5247e-15
0.141874 	96.764 	1.90637e-06 	7.5247e-15
0.142128 	96.7188 	1.90637e-06 	7.52471e-15
0.142382 	96.6736 	1.90637e-06 	7.52471e-15
0.142637 	96.6284 	1.90637e-06 	7.52471e-15
0.142891 	96.5832 	1.90637e-06 	7.52471e-15
0.143145 	96.538 	1.90637e-06 	7.52472e-15
0.143399 	96.4928 	1.90637e-06 	7.52472e-15
0.143654 	96.4476 	1.90637e-06 	7.52472e-15
0.143908 	96.3852 	2.02361e-06 	7.36478e-15
0.144162 	96.3211 	2.02361e-06 	7.36478e-15
0.144416 	96.257 	2.02361e-06 	7.36479e-15
0.144671 	96.193 	2.02361e-06 	7.36479e-15
0.144925 	96.1289 	2.02361e-06 	7.36479e-15
0.145179 	96.0648 	2.02361e-06 	7.3648e-15
0.145433 	96.0007 	2.02361e-06 	7.3648e-15
0.145688 	95.9366 	2.02361e-06 	7.36481e-15
0.145942 	95.8726 	2.02361e-06 	7.36481e-15
0.146196 	95.8085 	2.02361e-06 	7.36481e-15
0.14645 	95.7306 	2.12962e-06 	7.22927e-15
0.146705 	95.6497 	2.12962e-06 	7.22928e-15
0.146959 	95.5688 	2.12962e-06 	7.22928e-15
0.147213 	95.4878 	2.12962e-06 	7.22929e-15
0.147467 	95.4069 	2.12962e-06 	7.22929e-15
0.147722 	95.326 	2.12962e-06 	7.2293e-15
0.147976 	95.2451 	2.12962e-06 	7.2293e-15
0.14823 	95.1641 	2.12962e-06 	7.22931e-15
0.148484 	95.0832 	2.12962e-06 	7.22931e-15
0.148739 	95.0023 	2.12962e-06 	7.22932e-15
0.148993 	94.9105 	2.23048e-06 	7.13936e-15
0.149247 	94.8146 	2.23048e-06 	7.13937e-15
0.149502 	94.7187 	2.23048e-06 	7.13937e-15
0.149756 	94.6228 	2.23048e-06 	7.13938e-15
0.15001 	94.527 	2.23048e-06 	7.13939e-15
0.150264 	94.4311 	2.23048e-06 	7.13939e-15
0.150519 	94.3352 	2.23048e-06 	7.1394e-15
0.150773 	94.2393 	2.23048e-06 	7.13941e-15
0.151027 	94.1434 	2.23048e-06 	7.13941e-15
0.151281 	94.0475 	2.23048e-06 	7.13942e-15
0.151536 	93.9433 	2.32628e-06 	7.03683e-15
0.15179 	93.8343 	2.32628e-06 	7.03683e-15
0.152044 	93.7253 	2.32628e-06 	7.03684e-15
0.152298 	93.6162 	2.32628e-06 	7.03685e-15
0.152553 	93.5072 	2.32628e-06 	7.03685e-15
0.152807 	93.3982 	2.32628e-06 	7.03686e-15
0.153061 	93.2892 	2.32628e-06 	7.03687e-15
0.153315 	93.1801 	2.32628e-06 	7.03687e-15
0.15357 	93.0711 	2.32628e-06 	7.03688e-15
0.153824 	92.9621 	2.32628e-06 	7.03689e-15
0.154078 	92.8469 	2.4137e-06 	6.93263e-15
0.154332 	92.7265 	2.4137e-06 	6.93263e-15
0.154587 	92.6062 	2.4137e-06 	6.93264e-15
0.154841 	92.4858 	2.4137e-06 	6.93265e-15
0.155095 	92.3654 	2.4137e-06 	6.93266e-15
0.155349 	92.2451 	2.4137e-06 	6.93267e-15
0.155604 	92.1247 	2.4137e-06 	6.93267e-15
0.155858 	92.0044 	2.4137e-06 	6.93268e-15
0.156112 	91.884 	2.4137e-06 	6.93269e-15
0.156366 	91.7636 	2.4137e-06 	6.9327e-15
0.156621 	91.6389 	2.48941e-06 	6.82596e-15
0.156875 	91.5091 	2.48941e-06 	6.82597e-15
0.157129 	91.3792 	2.48941e-06 	6.82598e-15
0.157383 	91.2494 	2.48941e-06 	6.82599e-15
0.157638 	91.1195 	2.48941e-06 	6.826e-15
0.157892 	90.9896 	2.48941e-06 	6.82601e-15
0.158146 	90.8598 	2.48941e-06 	6.82601e-15
0.1584 	90.7299 	2.48941e-06 	6.82602e-15
0.158655 	90.6001 	2.48941e-06 	6.82603e-15
0.158909 	90.4702 	2.48941e-06 	6.82604e-15
0.159163 	90.3376 	2.55124e-06 	6.76659e-15
0.159417 	90.2001 	2.55124e-06 	6.7666e-15
0.159672 	90.0626 	2.55124e-06 	6.76661e-15
0.159926 	89.9251 	2.55124e-06 	6.76662e-15
0.16018 	89.7876 	2.55124e-06 	6.76662e-15
0.160434 	89.6502 	2.55124e-06 	6.76663e-15
0.160689 	89.5127 	2.55124e-06 	6.76664e-15
0.160943 	89.3752 	2.55124e-06 	6.76665e-15
0.161197 	89.2377 	2.55124e-06 	6.76666e-15
0.161451 	89.1002 	2.55124e-06 	6.76667e-15
0.161706 	88.9612 	2.59848e-06 	6.7158e-15
0.16196 	88.818 	2.59848e-06 	6.71581e-15
0.162214 	88.6747 	2.59848e-06 	6.71582e-15
0.162468 	88.5315 	2.59848e-06 	6.71583e-15
0.162723 	88.3883 	2.59848e-06 	6.71584e-15
0.162977 	88.2451 	2.59848e-06 	6.71585e-15
0.163231 	88.1018 	2.59848e-06 	6.71585e-15
0.163485 	87.9586 	2.59848e-06 	6.71586e-15
0.16374 	87.8154 	2.59848e-06 	6.71587e-15
0.163994 	87.6722 	2.59848e-06 	6.71588e-15
0.164248 	87.5282 	2.63155e-06 	6.59007e-15
0.164503 	87.3811 	2.63155e-06 	6.59008e-15
0.164757 	87.2339 	2.63155e-06 	6.59009e-15
0.165011 	87.0867 	2.63155e-06 	6.5901e-15
0.165265 	86.9396 	2.63155e-06 	6.5901e-15
0.16552 	86.7924 	2.63155e-06 	6.59011e-15
0.165774 	86.6452 	2.63155e-06 	6.59012e-15
0.166028 	86.4981 	2.63155e-06 	6.59013e-15
0.166282 	86.3509 	2.63155e-06 	6.59014e-15
0.166537 	86.2038 	2.63155e-06 	6.59015e-15
0.166791 	86.0564 	2.65131e-06 	6.47459e-15
0.167045 	85.907 	2.65131e-06 	6.4746e-15
0.167299 	85.7575 	2.65131e-06 	6.47461e-15
0.167554 	85.6081 	2.65131e-06 	6.47462e-15
0.167808 	85.4587 	2.65131e-06 	6.47463e-15
0.168062 	85.3093 	2.65131e-06 	6.47464e-15
0.168316 	85.1598 	2.65131e-06 	6.47465e-15
0.168571 	85.0104 	2.65131e-06 	6.47466e-15
0.168825 	84.861 	2.65131e-06 	6.47467e-15
0.169079 	84.7116 	2.65131e-06 	6.47468e-15
0.169333 	84.5621 	2.01189e-06 	1.03644e-17