0 	31.9256 	-0.027371 	3.19493e-13
0.000254254 	31.9256 	-0.0273759 	4.99107e-11
0.000508509 	31.9256 	-0.0273808 	9.9502e-11
0.000762763 	31.9289 	-0.0275469 	-7.16375e-06
0.00101702 	31.9346 	-0.0278351 	-1.97463e-05
0.00127127 	31.9404 	-0.0281233 	-3.23288e-05
0.00152553 	31.9462 	-0.0284115 	-2.09134e-05
0.00177978 	31.9519 	-0.0286997 	-8.341e-06
0.00203403 	31.9596 	-0.0290185 	1.03801e-10
0.00228829 	31.9712 	-0.0293977 	5.41733e-11
0.00254254 	31.9827 	-0.0297768 	4.54509e-12
0.0027968 	31.9943 	-0.0295451 	4.50964e-11
0.00305105 	32.0058 	-0.0292517 	9.47393e-11
0.00330531 	32.0187 	-0.0291994 	-4.30981e-06
0.00355956 	32.0329 	-0.0294035 	-1.32049e-05
0.00381381 	32.047 	-0.0296076 	-2.21001e-05
0.00406807 	32.0612 	-0.0298118 	-1.56709e-05
0.00432232 	32.0754 	-0.0300159 	-6.79191e-06
0.00457658 	32.0902 	-0.0303047 	1.08313e-10
0.00483083 	32.107 	-0.0308692 	5.86997e-11
0.00508509 	32.1238 	-0.0314338 	9.08689e-12
0.00533934 	32.1407 	-0.0313764 	4.11265e-11
0.00559359 	32.1576 	-0.0311795 	9.14746e-11
0.00584785 	32.1747 	-0.031237 	-7.60424e-06
0.0061021 	32.1919 	-0.031666 	-2.63139e-05
0.00635636 	32.2092 	-0.032095 	-4.50235e-05
0.00661061 	32.2265 	-0.0325239 	-3.49533e-05
0.00686486 	32.2437 	-0.0329529 	-1.63002e-05
0.00711912 	32.261 	-0.0334245 	1.14412e-10
0.00737337 	32.2786 	-0.0341914 	6.41143e-11
0.00762763 	32.2962 	-0.0349582 	1.3817e-11
0.00788188 	32.314 	-0.0350728 	3.65119e-11
0.00813614 	32.3319 	-0.0349402 	8.6853e-11
0.00839039 	32.3499 	-0.0350613 	-9.12295e-06
0.00864464 	32.3682 	-0.0356835 	-3.62706e-05
0.0088989 	32.3865 	-0.0363057 	-6.34183e-05
0.00915315 	32.4048 	-0.0369279 	-5.38101e-05
0.00940741 	32.4231 	-0.0375501 	-2.67772e-05
0.00966166 	32.4414 	-0.0381755 	1.1895e-10
0.00991592 	32.4601 	-0.0391346 	6.868e-11
0.0101702 	32.4789 	-0.0400937 	1.841e-11
0.0104244 	32.4979 	-0.040369 	3.23464e-11
0.0106787 	32.517 	-0.0402491 	8.3384e-11
0.0109329 	32.5363 	-0.0403718 	-9.15645e-06
0.0111872 	32.5565 	-0.0411394 	-4.26503e-05
0.0114414 	32.5766 	-0.041907 	-7.61442e-05
0.0116957 	32.5968 	-0.0426747 	-7.04558e-05
0.0119499 	32.6169 	-0.0434423 	-3.71437e-05
0.0122042 	32.6371 	-0.0442099 	-3.83167e-06
0.0124585 	32.6582 	-0.0453061 	7.42623e-11
0.0127127 	32.6794 	-0.046445 	2.33172e-11
0.012967 	32.7008 	-0.0468846 	2.80396e-11
0.0132212 	32.7224 	-0.0467341 	7.9744e-11
0.0134755 	32.7443 	-0.0468072 	-8.31751e-06
0.0137297 	32.7674 	-0.04768 	-4.63935e-05
0.013984 	32.7905 	-0.0485528 	-8.44695e-05
0.0142382 	32.8135 	-0.0494257 	-8.50039e-05
0.0144925 	32.8366 	-0.0502985 	-4.71801e-05
0.0147467 	32.8597 	-0.0511713 	-9.35636e-06
0.015001 	32.8839 	-0.0523716 	7.99184e-11
0.0152553 	32.9084 	-0.0536794 	2.83284e-11
0.0155095 	32.9332 	-0.0543017 	2.34163e-11
0.0157638 	32.9582 	-0.0540891 	7.53495e-11
0.016018 	32.9835 	-0.0540754 	-7.08525e-06
0.0162723 	33.0102 	-0.055024 	-4.84498e-05
0.0165265 	33.0369 	-0.0559727 	-8.98144e-05
0.0167808 	33.0636 	-0.0569213 	-9.79915e-05
0.017035 	33.0903 	-0.05787 	-5.69502e-05
0.0172893 	33.117 	-0.0588186 	-1.59089e-05
0.0175435 	33.1447 	-0.0600858 	8.49715e-11
0.0177978 	33.1731 	-0.0615545 	3.31739e-11
0.0180521 	33.2017 	-0.0623886 	1.87358e-11
0.0183063 	33.2306 	-0.062092 	7.08454e-11
0.0185606 	33.2597 	-0.0619672 	-5.7778e-06
0.0188148 	33.2904 	-0.0629721 	-4.95659e-05
0.0190691 	33.3211 	-0.0639771 	-9.3354e-05
0.0193233 	33.3518 	-0.064982 	-0.000110042
0.0195776 	33.3825 	-0.0659869 	-6.66484e-05
0.0198318 	33.4132 	-0.0669918 	-2.32544e-05
0.0200861 	33.4447 	-0.0682845 	8.99678e-11
0.0203403 	33.4772 	-0.0699094 	3.80149e-11
0.0205946 	33.5099 	-0.0709924 	1.4034e-11
0.0208488 	33.5429 	-0.0705975 	6.63457e-11
0.0211031 	33.5761 	-0.0703478 	-4.59102e-06
0.0213574 	33.611 	-0.0713973 	-5.02819e-05
0.0216116 	33.646 	-0.0724468 	-9.59727e-05
0.0218659 	33.6809 	-0.0734963 	-0.000121758
0.0221201 	33.7158 	-0.0745458 	-7.65319e-05
0.0223744 	33.7508 	-0.0755954 	-3.13061e-05
0.0226286 	33.7863 	-0.0768695 	9.50344e-11
0.0228829 	33.8231 	-0.078649 	4.29008e-11
0.0231371 	33.86 	-0.0800243 	9.30776e-12
0.0233914 	33.8973 	-0.0795211 	6.18652e-11
0.0236456 	33.9348 	-0.0791404 	-3.64162e-06
0.0238999 	33.9742 	-0.0802288 	-5.09727e-05
0.0241542 	34.0135 	-0.0813171 	-9.83038e-05
0.0244084 	34.0529 	-0.0824055 	-0.000133677
0.0246627 	34.0922 	-0.0834939 	-8.68826e-05
0.0249169 	34.1316 	-0.0845822 	-4.00886e-05
0.0251712 	34.1712 	-0.085792 	1.00212e-10
0.0254254 	34.2125 	-0.0877278 	4.78542e-11
0.0256797 	34.2539 	-0.0894435 	4.54562e-12
0.0259339 	34.2958 	-0.0888208 	5.73926e-11
0.0261882 	34.3377 	-0.0883055 	-3.00449e-06
0.0264424 	34.3817 	-0.0894323 	-5.19439e-05
0.0266967 	34.4256 	-0.090559 	-0.000100883
0.026951 	34.4696 	-0.0916858 	-0.000146405
0.0272052 	34.5135 	-0.0928126 	-9.80773e-05
0.0274595 	34.5575 	-0.0939393 	-4.975e-05
0.0277137 	34.6014 	-0.0950661 	-1.42269e-06
0.027968 	34.6474 	-0.0971396 	5.28867e-11
0.0282222 	34.6934 	-0.0992419 	2.60913e-13
0.0284765 	34.7399 	-0.0984823 	5.29152e-11
0.0287307 	34.7866 	-0.0978132 	-2.72905e-06
0.028985 	34.8353 	-0.0989806 	-5.33532e-05
0.0292392 	34.884 	-0.100148 	-0.000103977
0.0294935 	34.9328 	-0.101315 	-0.000154601
0.0297477 	34.9815 	-0.102483 	-0.000110377
0.030002 	35.0302 	-0.10365 	-6.04446e-05
0.0302563 	35.079 	-0.104818 	-1.05119e-05
0.0305105 	35.1293 	-0.106881 	5.80079e-11
0.0307648 	35.1802 	-0.109184 	5.07214e-12
0.031019 	35.2316 	-0.108509 	4.89588e-11
0.0312733 	35.2831 	-0.107638 	-2.8521e-06
0.0315275 	35.3368 	-0.108846 	-5.51241e-05
0.0317818 	35.3905 	-0.110055 	-0.000107396
0.032036 	35.4442 	-0.111263 	-0.000159668
0.0322903 	35.4978 	-0.112471 	-0.000123599
0.0325445 	35.5515 	-0.113679 	-7.21007e-05
0.0327988 	35.6052 	-0.114888 	-2.06021e-05
0.0330531 	35.6602 	-0.116911 	6.393e-11
0.0333073 	35.7161 	-0.119477 	1.00512e-11
0.0335616 	35.7725 	-0.118945 	4.39595e-11
0.0338158 	35.8291 	-0.117862 	-3.41141e-06
0.0340701 	35.8879 	-0.119108 	-5.71914e-05
0.0343243 	35.9467 	-0.120355 	-0.000110971
0.0345786 	36.0056 	-0.121602 	-0.000164751
0.0348328 	36.0644 	-0.122848 	-0.000137503
0.0350871 	36.1232 	-0.124095 	-8.45794e-05
0.0353413 	36.1821 	-0.125342 	-3.16555e-05
0.0355956 	36.2418 	-0.127237 	6.86506e-11
0.0358498 	36.3029 	-0.130097 	1.48978e-11
0.0361041 	36.3645 	-0.1298 	3.99023e-11
0.0363584 	36.4264 	-0.128517 	-4.44658e-06
0.0366126 	36.4906 	-0.1298 	-5.96168e-05
0.0368669 	36.5547 	-0.131083 	-0.000114787
0.0371211 	36.6189 	-0.132366 	-0.000169957
0.0373754 	36.6831 	-0.133649 	-0.00015211
0.0376296 	36.7472 	-0.134932 	-9.78791e-05
0.0378839 	36.8114 	-0.136215 	-4.36482e-05
0.0381381 	36.876 	-0.137865 	7.50636e-11
0.0383924 	36.9425 	-0.14103 	2.01769e-11
0.0386466 	37.0095 	-0.141082 	3.56374e-11
0.0389009 	37.0769 	-0.139651 	-5.99239e-06
0.0391552 	37.1467 	-0.140968 	-6.2451e-05
0.0394094 	37.2164 	-0.142285 	-0.00011891
0.0396637 	37.2861 	-0.143602 	-0.000175368
0.0399179 	37.3558 	-0.144919 	-0.000167435
0.0401722 	37.4255 	-0.146236 	-0.000111999
0.0404264 	37.4952 	-0.147554 	-5.65636e-05
0.0406807 	37.5649 	-0.148871 	-1.12766e-06
0.0409349 	37.637 	-0.152278 	2.56491e-11
0.0411892 	37.7096 	-0.152774 	3.11275e-11
0.0414434 	37.7828 	-0.151244 	-8.08429e-06
0.0416977 	37.8583 	-0.152595 	-6.57811e-05
0.041952 	37.9338 	-0.153945 	-0.000123478
0.0422062 	38.0092 	-0.155295 	-0.000181175
0.0424605 	38.0847 	-0.156646 	-0.000183617
0.0427147 	38.1602 	-0.157996 	-0.000127027
0.042969 	38.2357 	-0.159347 	-7.04368e-05
0.0432232 	38.3111 	-0.160697 	-1.38468e-05
0.0434775 	38.3885 	-0.163842 	3.12716e-11
0.0437317 	38.4669 	-0.164873 	2.61881e-11
0.043986 	38.5461 	-0.163297 	-1.07606e-05
0.0442402 	38.6276 	-0.16468 	-6.96904e-05
0.0444945 	38.709 	-0.166064 	-0.00012862
0.0447487 	38.7905 	-0.167448 	-0.00018755
0.045003 	38.872 	-0.168832 	-0.000200809
0.0452573 	38.9534 	-0.170216 	-0.000143071
0.0455115 	39.0349 	-0.1716 	-8.53336e-05
0.0457658 	39.1164 	-0.172984 	-2.75958e-05
0.04602 	39.1992 	-0.175732 	3.67298e-11
0.0462743 	39.2836 	-0.177388 	2.09444e-11
0.0465285 	39.3691 	-0.175822 	-1.40476e-05
0.0467828 	39.4568 	-0.177239 	-7.41671e-05
0.047037 	39.5445 	-0.178655 	-0.000134287
0.0472913 	39.6322 	-0.180072 	-0.000194406
0.0475455 	39.7199 	-0.181489 	-0.000218906
0.0477998 	39.8076 	-0.182905 	-0.000160063
0.0480541 	39.8953 	-0.184322 	-0.000101221
0.0483083 	39.983 	-0.185739 	-4.23789e-05
0.0485626 	40.0715 	-0.187953 	4.18338e-11
0.0488168 	40.1621 	-0.190322 	1.57707e-11
0.0490711 	40.2542 	-0.188828 	-1.79566e-05
0.0493253 	40.3484 	-0.190276 	-7.9172e-05
0.0495796 	40.4425 	-0.191724 	-0.000140387
0.0498338 	40.5367 	-0.193171 	-0.000201603
0.0500881 	40.6309 	-0.194619 	-0.000237713
0.0503423 	40.725 	-0.196067 	-0.000177859
0.0505966 	40.8192 	-0.197514 	-0.000118004
0.0508509 	40.9134 	-0.198962 	-5.81497e-05
0.0511051 	41.0076 	-0.200498 	4.70546e-11
0.0513594 	41.1048 	-0.203667 	1.07196e-11
0.0516136 	41.2037 	-0.202313 	-2.24777e-05
0.0518679 	41.3046 	-0.203789 	-8.46318e-05
0.0521221 	41.4055 	-0.205264 	-0.000146786
0.0523764 	41.5064 	-0.206739 	-0.00020894
0.0526306 	41.6073 	-0.208215 	-0.000256931
0.0528849 	41.7082 	-0.20969 	-0.000196218
0.0531391 	41.8091 	-0.211166 	-0.000135505
0.0533934 	41.91 	-0.212641 	-7.47919e-05
0.0536476 	42.0109 	-0.214116 	-1.40787e-05
0.0539019 	42.1141 	-0.217405 	5.45379e-12
0.0541562 	42.2202 	-0.216262 	-2.75702e-05
0.0544104 	42.3281 	-0.21776 	-9.043e-05
0.0546647 	42.436 	-0.219258 	-0.00015329
0.0549189 	42.5439 	-0.220756 	-0.00021615
0.0551732 	42.6518 	-0.222254 	-0.000276134
0.0554274 	42.7596 	-0.223752 	-0.000214789
0.0556817 	42.8675 	-0.22525 	-0.000153444
0.0559359 	42.9754 	-0.226748 	-9.20987e-05
0.0561902 	43.0833 	-0.228247 	-3.07535e-05
0.0564444 	43.1926 	-0.231497 	2.0015e-13
0.0566987 	43.3062 	-0.230641 	-3.31557e-05
0.056953 	43.4213 	-0.232155 	-9.641e-05
0.0572072 	43.5365 	-0.233669 	-0.000159664
0.0574615 	43.6516 	-0.235184 	-0.000222919
0.0577157 	43.7667 	-0.236698 	-0.000286173
0.05797 	43.8818 	-0.238212 	-0.000233117
0.0582242 	43.9969 	-0.239726 	-0.000171442
0.0584785 	44.1121 	-0.24124 	-0.000109767
0.0587327 	44.2272 	-0.242755 	-4.80915e-05
0.058987 	44.343 	-0.245111 	5.07931e-12
0.0592412 	44.4642 	-0.245405 	-3.92067e-05
0.0594955 	44.5868 	-0.24693 	-0.000102619
0.0597497 	44.7094 	-0.248456 	-0.000166032
0.060004 	44.8321 	-0.249981 	-0.000229444
0.0602583 	44.9547 	-0.251506 	-0.000292856
0.0605125 	45.0773 	-0.253032 	-0.000251255
0.0607668 	45.1999 	-0.254557 	-0.000189477
0.061021 	45.3225 	-0.256083 	-0.0001277
0.0612753 	45.4451 	-0.257608 	-6.5922e-05
0.0615295 	45.5677 	-0.259134 	-4.14434e-06
0.0617838 	45.6967 	-0.260527 	-4.57199e-05
0.062038 	45.8271 	-0.262061 	-0.000109146
0.0622923 	45.9574 	-0.263595 	-0.000172572
0.0625465 	46.0878 	-0.265128 	-0.000235997
0.0628008 	46.2181 	-0.266662 	-0.000299423
0.0630551 	46.3484 	-0.268099 	-0.000268304
0.0633093 	46.4786 	-0.269452 	-0.000204519
0.0635636 	46.6089 	-0.270805 	-0.000140734
0.0638178 	46.7391 	-0.272158 	-7.69483e-05
0.0640721 	46.8693 	-0.27351 	-1.31632e-05
0.0643263 	47.0054 	-0.274935 	-4.14701e-05
0.0645806 	47.1436 	-0.276281 	-0.000102749
0.0648348 	47.2818 	-0.277626 	-0.000164029
0.0650891 	47.42 	-0.278972 	-0.000225308
0.0653433 	47.5582 	-0.280318 	-0.000286588
0.0655976 	47.6964 	-0.281663 	-0.00026561
0.0658519 	47.8346 	-0.283009 	-0.000201916
0.0661061 	47.9728 	-0.284355 	-0.000138222
0.0663604 	48.111 	-0.2857 	-7.45285e-05
0.0666146 	48.2492 	-0.287046 	-1.08347e-05
0.0668689 	48.3927 	-0.288641 	-2.83232e-05
0.0671231 	48.5391 	-0.289993 	-9.00349e-05
0.0673774 	48.6855 	-0.291345 	-0.000151747
0.0676316 	48.8318 	-0.292697 	-0.000213458
0.0678859 	48.9782 	-0.294049 	-0.00027517
0.0681401 	49.1246 	-0.295401 	-0.000265092
0.0683944 	49.271 	-0.296753 	-0.000200892
0.0686486 	49.4174 	-0.298106 	-0.000136691
0.0689029 	49.5638 	-0.299458 	-7.24906e-05
0.0691572 	49.7102 	-0.30081 	-8.29001e-06
0.0694114 	49.8612 	-0.302624 	-1.46498e-05
0.0696657 	50.016 	-0.30398 	-7.66244e-05
0.0699199 	50.1708 	-0.305337 	-0.000138599
0.0701742 	50.3257 	-0.306693 	-0.000200574
0.0704284 	50.4805 	-0.30805 	-0.000262548
0.0706827 	50.6353 	-0.309406 	-0.000263496
0.0709369 	50.7901 	-0.310762 	-0.000198972
0.0711912 	50.9449 	-0.312119 	-0.000134448
0.0714454 	51.0997 	-0.313475 	-6.99234e-05
0.0716997 	51.2545 	-0.314831 	-5.3992e-06
0.071954 	51.4133 	-0.316897 	-5.60937e-07
0.0722082 	51.5767 	-0.318222 	-6.11521e-05
0.0724625 	51.7401 	-0.319546 	-0.000121743
0.0727167 	51.9035 	-0.320871 	-0.000182334
0.072971 	52.067 	-0.322195 	-0.000242925
0.0732252 	52.2304 	-0.32352 	-0.000254648
0.0734795 	52.3938 	-0.324844 	-0.000191524
0.0737337 	52.5572 	-0.326169 	-0.000128399
0.073988 	52.7206 	-0.327493 	-6.52748e-05
0.0742422 	52.884 	-0.328817 	-2.15029e-06
0.0744965 	53.0515 	-0.33102 	6.28206e-05
0.0747508 	53.2229 	-0.332409 	-4.48495e-05
0.075005 	53.395 	-0.333668 	-0.000102504
0.0752593 	53.5671 	-0.334927 	-0.000160159
0.0755135 	53.7392 	-0.336186 	-0.000217813
0.0757678 	53.9113 	-0.337445 	-0.000239218
0.076022 	54.0835 	-0.338704 	-0.000179123
0.0762763 	54.2556 	-0.339963 	-0.000119028
0.0765305 	54.4277 	-0.341222 	-5.89333e-05
0.0767848 	54.5999 	-0.342487 	6.09653e-06
0.077039 	54.7761 	-0.344388 	0.000139716
0.0772933 	54.9554 	-0.346281 	-2.85905e-05
0.0775475 	55.1362 	-0.347431 	-8.12714e-05
0.0778018 	55.3171 	-0.348581 	-0.000133952
0.0780561 	55.4979 	-0.349731 	-0.000186633
0.0783103 	55.6787 	-0.350881 	-0.000215539
0.0785646 	55.8596 	-0.352031 	-0.00016061
0.0788188 	56.0404 	-0.353181 	-0.000105681
0.0790731 	56.2212 	-0.354332 	-5.07518e-05
0.0793273 	56.4023 	-0.355416 	2.56204e-05
0.0795816 	56.5871 	-0.356422 	0.000227058
0.0798358 	56.7741 	-0.359406 	-1.46228e-05
0.0800901 	56.9635 	-0.360458 	-6.26965e-05
0.0803443 	57.153 	-0.36151 	-0.00011077
0.0805986 	57.3424 	-0.362562 	-0.000158844
0.0808529 	57.5318 	-0.363614 	-0.000193738
0.0811071 	57.7212 	-0.364667 	-0.000143605
0.0813614 	57.9106 	-0.365719 	-9.34714e-05
0.0816156 	58.1 	-0.366771 	-4.33382e-05
0.0818699 	58.2899 	-0.367537 	4.82403e-05
0.0821241 	58.483 	-0.367169 	0.000323049
0.0823784 	58.6776 	-0.371844 	-2.67164e-06
0.0826326 	58.8754 	-0.372778 	-4.51651e-05
0.0828869 	59.0731 	-0.373711 	-8.76586e-05
0.0831411 	59.2708 	-0.374645 	-0.000130152
0.0833954 	59.4686 	-0.375578 	-0.000168512
0.0836496 	59.6663 	-0.376512 	-0.0001242
0.0839039 	59.8641 	-0.377445 	-7.98877e-05
0.0841582 	60.0618 	-0.378379 	-3.55758e-05
0.0844124 	60.2602 	-0.378628 	7.36299e-05
0.0846667 	60.4614 	-0.376317 	0.000427066
0.0849209 	60.664 	-0.382111 	6.52986e-05
0.0851752 	60.8692 	-0.383753 	-2.72132e-05
0.0854294 	61.075 	-0.38448 	-6.04203e-05
0.0856837 	61.2808 	-0.385207 	-9.36273e-05
0.0859379 	61.4866 	-0.385935 	-0.000126834
0.0861922 	61.6924 	-0.386662 	-9.48517e-05
0.0864464 	61.8982 	-0.387389 	-6.02327e-05
0.0867007 	62.104 	-0.388117 	-2.56136e-05
0.086955 	62.3106 	-0.387633 	9.9945e-05
0.0872092 	62.5198 	-0.383706 	0.000484163
0.0874635 	62.7301 	-0.389431 	0.000158269
0.0877177 	62.9423 	-0.392425 	-1.34752e-05
0.087972 	63.1557 	-0.392933 	-3.69158e-05
0.0882262 	63.3692 	-0.393441 	-6.03564e-05
0.0884805 	63.5827 	-0.39395 	-8.3797e-05
0.0887347 	63.7961 	-0.394458 	-6.53714e-05
0.088989 	64.0096 	-0.394966 	-4.09462e-05
0.0892432 	64.2231 	-0.395475 	-1.65211e-05
0.0894975 	64.4376 	-0.394183 	0.000125736
0.0897518 	64.6543 	-0.389131 	0.000514294
0.090006 	64.8719 	-0.39405 	0.0002524
0.0902603 	65.0905 	-0.398635 	-5.17356e-06
0.0905145 	65.3111 	-0.398969 	-2.08556e-05
0.0907688 	65.5317 	-0.399303 	-3.65376e-05
0.091023 	65.7523 	-0.399637 	-5.22196e-05
0.0912773 	65.9729 	-0.399971 	-4.26729e-05
0.0915315 	66.1935 	-0.400305 	-2.63445e-05
0.0917858 	66.414 	-0.400639 	-1.00162e-05
0.09204 	66.6358 	-0.398545 	0.00015209
0.0922943 	66.8594 	-0.392599 	0.000545525
0.0925485 	67.0836 	-0.39642 	0.000348947
0.0928028 	67.3082 	-0.402723 	-4.44512e-07
0.0930571 	67.5351 	-0.402818 	-5.63348e-06
0.0933113 	67.762 	-0.402914 	-1.08225e-05
0.0935656 	67.9889 	-0.403009 	-1.60114e-05
0.0938198 	68.2158 	-0.403105 	-1.37741e-05
0.0940741 	68.4427 	-0.4032 	-8.3768e-06
0.0943283 	68.6696 	-0.403295 	-2.9795e-06
0.0945826 	68.8977 	-0.400267 	0.00017785
0.0948368 	69.1273 	-0.393388 	0.000574893
0.0950911 	69.3573 	-0.395693 	0.000445862
0.0953453 	69.5875 	-0.402475 	6.03687e-05
0.0955996 	69.8193 	-0.403312 	8.88936e-06
0.0958539 	70.0514 	-0.403046 	1.94291e-05
0.0961081 	70.2836 	-0.40278 	2.99688e-05
0.0963624 	70.5157 	-0.402513 	2.73005e-05
0.0966166 	70.7479 	-0.402247 	1.63521e-05
0.0968709 	70.98 	-0.401981 	5.4036e-06
0.0971251 	71.2133 	-0.397922 	0.000199467
0.0973794 	71.4476 	-0.390169 	0.000593306
0.0976336 	71.6822 	-0.39077 	0.000534269
0.0978879 	71.9169 	-0.397343 	0.000151459
0.0981421 	72.1523 	-0.399555 	1.63144e-05
0.0983964 	72.3883 	-0.398911 	4.33092e-05
0.0986507 	72.6243 	-0.398268 	7.0304e-05
0.0989049 	72.8603 	-0.397624 	6.82885e-05
0.0991592 	73.0962 	-0.39698 	4.02921e-05
0.0994134 	73.3322 	-0.396336 	1.22957e-05
0.0996677 	73.569 	-0.391234 	0.00021591
0.0999219 	73.8064 	-0.382641 	0.000600901
0.100176 	74.0439 	-0.381422 	0.000610795
0.10043 	74.2816 	-0.387765 	0.000236082
0.100685 	74.5193 	-0.391382 	1.6192e-05
0.100939 	74.7573 	-0.390355 	5.99575e-05
0.101193 	74.9953 	-0.389328 	0.000103723
0.101447 	75.2333 	-0.3883 	0.000108292
0.101702 	75.4713 	-0.387273 	6.29903e-05
0.101956 	75.7093 	-0.386246 	1.76883e-05
0.10221 	75.9476 	-0.380122 	0.000224892
0.102464 	76.1861 	-0.370732 	0.000593838
0.102719 	76.4246 	-0.36763 	0.000668342
0.102973 	76.6631 	-0.373801 	0.000308675
0.103227 	76.9016 	-0.378912 	7.93366e-06
0.103481 	77.1394 	-0.377609 	6.38919e-05
0.103736 	77.3773 	-0.376306 	0.00011985
0.10399 	77.6151 	-0.375003 	0.000135748
0.104244 	77.853 	-0.3737 	7.79546e-05
0.104498 	78.0908 	-0.372397 	2.01615e-05
0.104753 	78.3283 	-0.365362 	0.000230855
0.105007 	78.5655 	-0.355256 	0.000585392
0.105261 	78.8028 	-0.350279 	0.000719733
0.105516 	79.04 	-0.356495 	0.000373481
0.10577 	79.2772 	-0.362712 	2.72288e-05
0.106024 	79.5126 	-0.361659 	6.66648e-05
0.106278 	79.7479 	-0.359985 	0.000139019
0.106533 	79.9831 	-0.358312 	0.000172623
0.106787 	80.2184 	-0.356638 	9.80873e-05
0.107041 	80.4537 	-0.354965 	2.35515e-05
0.107295 	80.6878 	-0.346805 	0.000228256
0.10755 	80.9213 	-0.335649 	0.00056195
0.107804 	81.1547 	-0.328342 	0.000747731
0.108058 	81.3881 	-0.334364 	0.000421161
0.108312 	81.6214 	-0.340386 	9.459e-05
0.108567 	81.8524 	-0.340662 	6.37373e-05
0.108821 	82.0826 	-0.338595 	0.000153463
0.109075 	82.3127 	-0.336527 	0.000211374
0.109329 	82.5428 	-0.334459 	0.000119207
0.109584 	82.773 	-0.332392 	2.70413e-05
0.109838 	83.0009 	-0.323342 	0.000214046
0.110092 	83.228 	-0.311392 	0.000516968
0.110346 	83.455 	-0.301856 	0.000739763
0.110601 	83.6817 	-0.307985 	0.000442625
0.110855 	83.9085 	-0.314113 	0.000145487
0.111109 	84.1329 	-0.315934 	5.13915e-05
0.111363 	84.355 	-0.313623 	0.000152085
0.111618 	84.5772 	-0.311312 	0.000235359
0.111872 	84.7993 	-0.309 	0.000132253
0.112126 	85.0215 	-0.306689 	2.91474e-05
0.11238 	85.2405 	-0.2968 	0.000197568
0.112635 	85.4582 	-0.283924 	0.000472998
0.112889 	85.6759 	-0.271865 	0.000725075
0.113143 	85.8931 	-0.278092 	0.000454224
0.113397 	86.1103 	-0.284318 	0.000183372
0.113652 	86.3255 	-0.287664 	3.79912e-05
0.113906 	86.5366 	-0.28497 	0.000155617
0.11416 	86.7477 	-0.282276 	0.000273243
0.114414 	86.9588 	-0.279582 	0.000154283
0.114669 	87.1698 	-0.276888 	3.42526e-05
0.114923 	87.3766 	-0.266087 	0.000173764
0.115177 	87.5817 	-0.252048 	0.000416915
0.115431 	87.7868 	-0.23801 	0.000660065
0.115686 	87.9913 	-0.24338 	0.000443639
0.11594 	88.1957 	-0.249736 	0.00020388
0.116194 	88.399 	-0.254686 	1.99116e-05
0.116448 	88.5957 	-0.251643 	0.000152968
0.116703 	88.7923 	-0.2486 	0.000286024
0.116957 	88.989 	-0.245557 	0.000176239
0.117211 	89.1857 	-0.242514 	4.09615e-05
0.117465 	89.3771 	-0.230965 	0.000147391
0.11772 	89.5661 	-0.21572 	0.000358792
0.117974 	89.7552 	-0.200476 	0.000570194
0.118228 	89.9435 	-0.204022 	0.000419852
0.118482 	90.1316 	-0.210618 	0.000210796
0.118737 	90.3198 	-0.217214 	1.74087e-06
0.118991 	90.4987 	-0.21406 	0.000140384
0.119245 	90.6775 	-0.210826 	0.000281946
0.119499 	90.8563 	-0.207591 	0.000191566
0.119754 	91.0351 	-0.204356 	4.81993e-05
0.120008 	91.2078 	-0.192487 	0.00012472
0.120262 	91.3774 	-0.176246 	0.000312606
0.120517 	91.5469 	-0.160005 	0.000500492
0.120771 	91.7156 	-0.161597 	0.000400653
0.121025 	91.8841 	-0.168553 	0.000214289
0.121279 	92.0525 	-0.175508 	2.79244e-05
0.121534 	92.2117 	-0.173698 	0.000124815
0.121788 	92.3693 	-0.170343 	0.000271627
0.122042 	92.5269 	-0.166988 	0.000205325
0.122296 	92.6844 	-0.163633 	5.72421e-05
0.122551 	92.8353 	-0.151917 	0.000101951
0.122805 	92.9821 	-0.134934 	0.000268143
0.123059 	93.1288 	-0.117951 	0.000434336
0.123313 	93.2747 	-0.117492 	0.000376047
0.123568 	93.4202 	-0.124916 	0.000210686
0.123822 	93.5657 	-0.132339 	4.53246e-05
0.124076 	93.7024 	-0.131966 	0.000105299
0.12433 	93.8357 	-0.128649 	0.000250357
0.124585 	93.969 	-0.125332 	0.000211932
0.124839 	94.1023 	-0.122015 	6.62186e-05
0.125093 	94.229 	-0.111037 	8.03294e-05
0.125347 	94.3502 	-0.093679 	0.000227572
0.125602 	94.4713 	-0.0763207 	0.000374814
0.125856 	94.5917 	-0.0738562 	0.000349907
0.12611 	94.7116 	-0.0819498 	0.000202968
0.126364 	94.8315 	-0.0900433 	5.60276e-05
0.126619 	94.9432 	-0.0912133 	8.36919e-05
0.126873 	95.05 	-0.0881164 	0.000218961
0.127127 	95.1568 	-0.0850196 	0.000208298
0.127381 	95.2636 	-0.0819227 	7.29124e-05
0.127636 	95.3643 	-0.0722074 	6.18732e-05
0.12789 	95.458 	-0.0547678 	0.000195957
0.128144 	95.5517 	-0.0373281 	0.000330041
0.128398 	95.6448 	-0.0328775 	0.000331852
0.128653 	95.7372 	-0.0417735 	0.000197748
0.128907 	95.8296 	-0.0506696 	6.3644e-05
0.129161 	95.915 	-0.0534371 	6.34438e-05
0.129415 	95.994 	-0.0506692 	0.000184193
0.12967 	96.073 	-0.0479012 	0.000197004
0.129924 	96.152 	-0.0451332 	7.64067e-05
0.130178 	96.2261 	-0.0370476 	4.56602e-05
0.130432 	96.2916 	-0.0197677 	0.000170267
0.130687 	96.3571 	-0.00248778 	0.000294874
0.130941 	96.4222 	0.00394364 	0.000319416
0.131195 	96.4866 	-0.00581545 	0.00019462
0.131449 	96.551 	-0.0155745 	6.98228e-05
0.131704 	96.6095 	-0.0199897 	4.55047e-05
0.131958 	96.6607 	-0.0176177 	0.000148804
0.132212 	96.7118 	-0.0152457 	0.000178805
0.132466 	96.763 	-0.0128737 	7.57877e-05
0.132721 	96.8106 	-0.00664806 	3.10832e-05
0.132975 	96.8485 	0.0103033 	0.000148678
0.133229 	96.8863 	0.0272547 	0.000266273
0.133483 	96.9238 	0.0356999 	0.000311049
0.133738 	96.9607 	0.0251423 	0.000193147
0.133992 	96.9976 	0.0145848 	7.5245e-05
0.134246 	97.0299 	0.008564 	3.11438e-05
0.134501 	97.0542 	0.0105459 	0.000117223
0.134755 	97.0784 	0.0125279 	0.000158063
0.135009 	97.1027 	0.0145098 	7.23381e-05
0.135263 	97.125 	0.0187585 	1.71029e-05
0.135518 	97.1365 	0.0352555 	0.000126618
0.135772 	97.148 	0.0517525 	0.000236133
0.136026 	97.1594 	0.0622013 	0.000297987
0.13628 	97.1702 	0.050853 	0.000188071
0.136535 	97.1811 	0.0395047 	7.81551e-05
0.136789 	97.1885 	0.0319074 	2.04e-05
0.137043 	97.1875 	0.0335398 	9.09976e-05
0.137297 	97.1865 	0.0351723 	0.000137464
0.137552 	97.1855 	0.0368048 	6.72513e-05
0.137806 	97.1841 	0.0390501 	4.2355e-06
0.13806 	97.1713 	0.0552121 	0.000104647
0.138314 	97.1584 	0.071374 	0.000205058
0.138569 	97.1456 	0.0840124 	0.000280267
0.138823 	97.1322 	0.0720314 	0.000179385
0.139077 	97.1189 	0.0600504 	7.85042e-05
0.139331 	97.1031 	0.0510261 	1.28536e-05
0.139586 	97.079 	0.0523744 	7.07991e-05
0.13984 	97.0548 	0.0537226 	0.000119566
0.140094 	97.0306 	0.0550709 	6.20118e-05
0.140348 	97.0065 	0.0564192 	4.45814e-06
0.140603 	96.9723 	0.0712446 	8.671e-05
0.140857 	96.9374 	0.0872015 	0.0001807
0.141111 	96.9024 	0.102216 	0.000268429
0.141365 	96.867 	0.0898048 	0.000173906
0.14162 	96.8316 	0.0773934 	7.93829e-05
0.141874 	96.7946 	0.0671602 	8.12109e-06
0.142128 	96.7495 	0.0683479 	5.8821e-05
0.142382 	96.7043 	0.0695357 	0.000109521
0.142637 	96.6591 	0.0707235 	6.04783e-05
0.142891 	96.6139 	0.0719112 	1.01851e-05
0.143145 	96.5609 	0.0848275 	7.05712e-05
0.143399 	96.506 	0.100722 	0.000159062
0.143654 	96.451 	0.116616 	0.000247553
0.143908 	96.3957 	0.10563 	0.00016891
0.144162 	96.3405 	0.0929646 	7.98328e-05
0.144416 	96.2843 	0.0817288 	4.86684e-06
0.144671 	96.2202 	0.0828345 	5.17593e-05
0.144925 	96.1562 	0.0839402 	9.86517e-05
0.145179 	96.0921 	0.0850459 	6.19177e-05
0.145433 	96.028 	0.0861516 	1.54579e-05
0.145688 	95.9581 	0.0971169 	5.54571e-05
0.145942 	95.8853 	0.112998 	0.000138565
0.146196 	95.8125 	0.128879 	0.000221672
0.14645 	95.7394 	0.120355 	0.000163083
0.146705 	95.6664 	0.1075 	7.93498e-05
0.146959 	95.5929 	0.0953726 	2.31544e-06
0.147213 	95.512 	0.0964221 	4.65359e-05
0.147467 	95.4311 	0.0974716 	9.07564e-05
0.147722 	95.3501 	0.0985211 	6.42321e-05
0.147976 	95.2692 	0.0995706 	2.04701e-05
0.14823 	95.1842 	0.10852 	4.15721e-05
0.148484 	95.0954 	0.124412 	0.000119679
0.148739 	95.0067 	0.140304 	0.000197785
0.148993 	94.9178 	0.134312 	0.000157084
0.149247 	94.8289 	0.121309 	7.83226e-05
0.149502 	94.74 	0.108385 	2.34849e-07
0.149756 	94.6441 	0.10939 	4.22767e-05
0.15001 	94.5482 	0.110394 	8.43185e-05
0.150264 	94.4523 	0.111398 	6.68012e-05
0.150519 	94.3565 	0.112403 	2.52404e-05
0.150773 	94.2578 	0.119247 	2.85333e-05
0.151027 	94.155 	0.135123 	0.000101193
0.151281 	94.0522 	0.150999 	0.000173853
0.151536 	93.9493 	0.147552 	0.000149361
0.15179 	93.8464 	0.134391 	7.60331e-05
0.152044 	93.7435 	0.121231 	2.70514e-06
0.152298 	93.6347 	0.121651 	3.75855e-05
0.152553 	93.5257 	0.122591 	7.66103e-05
0.152807 	93.4166 	0.123531 	6.74827e-05
0.153061 	93.3076 	0.124471 	2.89435e-05
0.153315 	93.1971 	0.129114 	1.66244e-05
0.15357 	93.0819 	0.144926 	8.33898e-05
0.153824 	92.9668 	0.160738 	0.000150155
0.154078 	92.8517 	0.159821 	0.000139944
0.154332 	92.7366 	0.14647 	7.25146e-05
0.154587 	92.6214 	0.133118 	5.08516e-06
0.154841 	92.5014 	0.132895 	3.21684e-05
0.155095 	92.3811 	0.133743 	6.69602e-05
0.155349 	92.2607 	0.134591 	6.5169e-05
0.155604 	92.1403 	0.135439 	3.08421e-05
0.155858 	92.0194 	0.137796 	6.17834e-06
0.156112 	91.8938 	0.153501 	6.70307e-05
0.156366 	91.7682 	0.169206 	0.000127883
0.156621 	91.6426 	0.170807 	0.000129787
0.156875 	91.5171 	0.157237 	6.82875e-05
0.157129 	91.3915 	0.143666 	6.78798e-06
0.157383 	91.2621 	0.142822 	2.63592e-05
0.157638 	91.1323 	0.143557 	5.59883e-05
0.157892 	91.0024 	0.144292 	5.98572e-05
0.158146 	90.8725 	0.145026 	3.06489e-05
0.1584 	90.7426 	0.145761 	1.44065e-06
0.158655 	90.6086 	0.160599 	5.25957e-05
0.158909 	90.4744 	0.176169 	0.000107919
0.159163 	90.3402 	0.180285 	0.000119847
0.159417 	90.2062 	0.166485 	6.39001e-05
0.159672 	90.0721 	0.152686 	7.95343e-06
0.159926 	89.9351 	0.151249 	2.06226e-05
0.16018 	89.7976 	0.15186 	4.46625e-05
0.160434 	89.6601 	0.152472 	5.21706e-05
0.160689 	89.5226 	0.153083 	2.84905e-05
0.160943 	89.3851 	0.153694 	4.81032e-06
0.161197 	89.2448 	0.166107 	4.01861e-05
0.161451 	89.1039 	0.181528 	9.06157e-05
0.161706 	88.963 	0.188168 	0.000110785
0.16196 	88.8223 	0.174148 	5.97597e-05
0.162214 	88.6816 	0.160128 	8.73414e-06
0.162468 	88.5387 	0.158133 	1.53109e-05
0.162723 	88.3955 	0.158621 	3.37834e-05
0.162977 	88.2523 	0.15911 	4.29049e-05
0.163231 	88.109 	0.159598 	2.47211e-05
0.163485 	87.9658 	0.160086 	6.53736e-06
0.16374 	87.8209 	0.17004 	2.96223e-05
0.163994 	87.6751 	0.185308 	7.58711e-05
0.164248 	87.5294 	0.194485 	0.000102897
0.164503 	87.3839 	0.180265 	5.6079e-05
0.164757 	87.2383 	0.166045 	9.26084e-06
0.165011 	87.0915 	0.163531 	1.05762e-05
0.165265 	86.9443 	0.163902 	2.37599e-05
0.16552 	86.7971 	0.164273 	3.26589e-05
0.165774 	86.6499 	0.164644 	1.9689e-05
0.166028 	86.5027 	0.165015 	6.7191e-06
0.166282 	86.3547 	0.17249 	2.05943e-05
0.166537 	86.2059 	0.187601 	6.33239e-05
0.166791 	86.057 	0.199323 	9.61743e-05
0.167045 	85.9085 	0.184932 	5.29004e-05
0.167299 	85.7599 	0.170541 	9.62652e-06
0.167554 	85.6107 	0.167543 	6.4049e-06
0.167808 	85.4612 	0.167804 	1.46419e-05
0.168062 	85.3118 	0.168066 	2.16928e-05
0.168316 	85.1623 	0.168327 	1.35935e-05
0.168571 	85.0129 	0.168589 	5.49418e-06
0.168825 	84.8632 	0.173574 	1.2785e-05
0.169079 	84.7128 	0.188522 	5.25297e-05
0.169333 	84.5624 	0.202784 	9.0416e-05
0.169588 	84.4124 	0.188253 	5.01508e-05
0.169842 	84.2624 	0.173721 	9.88565e-06
0.170096 	84.1123 	0.170274 	2.7728e-06
0.17035 	83.9621 	0.170434 	6.44761e-06
0.170605 	83.8119 	0.170594 	1.01224e-05
0.170859 	83.6617 	0.170753 	6.64591e-06
0.171113 	83.5115 	0.170913 	3.03407e-06
0.171367 	83.3613 	0.173412 	5.94874e-06
0.171622 	83.2108 	0.18819 	4.31225e-05
0.171876 	83.0604 	0.202967 	8.02962e-05
0.17213 	82.9103 	0.190344 	4.77432e-05
0.172384 	82.7603 	0.175709 	1.00718e-05
0.172639 	82.6106 	0.171845 	-3.90817e-07
0.172893 	82.4609 	0.171911 	-9.24509e-07
0.173147 	82.3113 	0.171977 	-1.4582e-06
0.173401 	82.1616 	0.172043 	-1.04993e-06
0.173656 	82.012 	0.172109 	-5.25555e-07
0.17391 	81.8623 	0.172175 	-1.18356e-09
0.174164 	81.713 	0.186728 	3.48185e-05
0.174418 	81.5637 	0.201319 	6.97281e-05
0.174673 	81.4148 	0.191304 	4.55883e-05
0.174927 	81.2659 	0.176603 	1.02035e-05
0.175181 	81.1177 	0.17235 	-3.06366e-06
0.175435 	80.9697 	0.172332 	-7.36896e-06
0.17569 	80.8217 	0.172313 	-1.16743e-05
0.175944 	80.6738 	0.172294 	-9.15937e-06
0.176198 	80.5258 	0.172276 	-4.93031e-06
0.176452 	80.3778 	0.172257 	-7.01257e-07
0.176707 	80.2305 	0.184262 	2.73459e-05
0.176961 	80.0834 	0.198659 	6.0129e-05
0.177215 	79.9366 	0.191265 	4.34997e-05
0.177469 	79.7899 	0.176548 	1.02651e-05
0.177724 	79.6441 	0.171938 	-5.28522e-06
0.177978 	79.4986 	0.171844 	-1.29326e-05
0.178232 	79.3532 	0.17175 	-2.058e-05
0.178486 	79.2078 	0.171655 	-1.74951e-05
0.178741 	79.0624 	0.171561 	-9.98435e-06