0 	27.8739 	-0.0239213 	4.74226e-14
0.000254254 	27.8739 	-0.0238908 	2.11374e-12
0.000508509 	27.8739 	-0.0238603 	4.18006e-12
0.000762763 	27.8769 	-0.0239935 	-6.39184e-06
0.00101702 	27.8822 	-0.0242507 	-1.76184e-05
0.00127127 	27.8875 	-0.0245078 	-2.88449e-05
0.00152553 	27.8928 	-0.024765 	-1.86597e-05
0.00177978 	27.8982 	-0.0250221 	-7.44222e-06
0.00203403 	27.9053 	-0.0253183 	4.33629e-12
0.00228829 	27.9159 	-0.0256915 	2.26306e-12
0.00254254 	27.9265 	-0.0260647 	1.89829e-13
0.0027968 	27.9372 	-0.0258319 	1.87129e-12
0.00305105 	27.9478 	-0.025538 	3.93129e-12
0.00330531 	27.9596 	-0.0254766 	-3.9243e-06
0.00355956 	27.9724 	-0.0256625 	-1.20236e-05
0.00381381 	27.9853 	-0.0258484 	-2.01228e-05
0.00406807 	27.9982 	-0.0260343 	-1.42689e-05
0.00432232 	28.0111 	-0.0262202 	-6.18432e-06
0.00457658 	28.0245 	-0.0264895 	4.49453e-12
0.00483083 	28.0396 	-0.0270303 	2.43578e-12
0.00508509 	28.0547 	-0.027571 	3.77029e-13
0.00533934 	28.0699 	-0.0275042 	2.36563e-12
0.00559359 	28.0851 	-0.0273012 	5.26174e-12
0.00584785 	28.1004 	-0.0273386 	-6.88944e-06
0.0061021 	28.1158 	-0.0277273 	-2.38401e-05
0.00635636 	28.1312 	-0.028116 	-4.07907e-05
0.00661061 	28.1466 	-0.0285047 	-3.16672e-05
0.00686486 	28.1619 	-0.0288934 	-1.47678e-05
0.00711912 	28.1774 	-0.0293238 	6.58113e-12
0.00737337 	28.1929 	-0.0300433 	3.68793e-12
0.00762763 	28.2085 	-0.0307628 	7.94736e-13
0.00788188 	28.2242 	-0.0308556 	2.02755e-12
0.00813614 	28.24 	-0.0307112 	4.8231e-12
0.00839039 	28.2559 	-0.0308027 	-8.17459e-06
0.00864464 	28.2721 	-0.0313603 	-3.24999e-05
0.0088989 	28.2883 	-0.0319179 	-5.68252e-05
0.00915315 	28.3044 	-0.0324755 	-4.82159e-05
0.00940741 	28.3206 	-0.0330331 	-2.39934e-05
0.00966166 	28.3368 	-0.0335938 	6.60552e-12
0.00991592 	28.3533 	-0.0344788 	3.81392e-12
0.0101702 	28.3699 	-0.0353638 	1.02231e-12
0.0104244 	28.3866 	-0.0356025 	2.27247e-12
0.0106787 	28.4035 	-0.0354678 	5.85815e-12
0.0109329 	28.4206 	-0.0355559 	-8.11746e-06
0.0111872 	28.4384 	-0.0362366 	-3.78104e-05
0.0114414 	28.4563 	-0.0369172 	-6.75033e-05
0.0116957 	28.4741 	-0.0375978 	-6.24604e-05
0.0119499 	28.4919 	-0.0382785 	-3.29287e-05
0.0122042 	28.5097 	-0.0389591 	-3.39694e-06
0.0124585 	28.5284 	-0.039956 	5.21729e-12
0.0127127 	28.5472 	-0.0409941 	1.63812e-12
0.012967 	28.5662 	-0.0413805 	2.3219e-12
0.0132212 	28.5854 	-0.041217 	6.60351e-12
0.0134755 	28.6048 	-0.0412569 	-7.31604e-06
0.0137297 	28.6253 	-0.0420248 	-4.08071e-05
0.013984 	28.6458 	-0.0427927 	-7.42981e-05
0.0142382 	28.6663 	-0.0435606 	-7.47681e-05
0.0144925 	28.6868 	-0.0443285 	-4.1499e-05
0.0147467 	28.7073 	-0.0450964 	-8.22979e-06
0.015001 	28.7288 	-0.0461755 	6.61795e-12
0.0152553 	28.7507 	-0.0473569 	2.34581e-12
0.0155095 	28.7727 	-0.047907 	1.90239e-12
0.0157638 	28.7949 	-0.0476881 	6.12166e-12
0.016018 	28.8174 	-0.047649 	-6.20035e-06
0.0162723 	28.8412 	-0.0484794 	-4.23982e-05
0.0165265 	28.865 	-0.0493097 	-7.85961e-05
0.0167808 	28.8887 	-0.0501401 	-8.57518e-05
0.017035 	28.9125 	-0.0509704 	-4.98369e-05
0.0172893 	28.9362 	-0.0518008 	-1.39219e-05
0.0175435 	28.9609 	-0.0529298 	6.90339e-12
0.0177978 	28.9862 	-0.0542477 	2.69514e-12
0.0180521 	29.0116 	-0.0549869 	1.50475e-12
0.0183063 	29.0373 	-0.0546949 	5.69e-12
0.0185606 	29.0631 	-0.0545572 	-5.03951e-06
0.0188148 	29.0904 	-0.0554339 	-4.32316e-05
0.0190691 	29.1177 	-0.0563106 	-8.14237e-05
0.0193233 	29.145 	-0.0571873 	-9.59794e-05
0.0195776 	29.1723 	-0.058064 	-5.8131e-05
0.0198318 	29.1996 	-0.0589408 	-2.02826e-05
0.0200861 	29.2276 	-0.0600838 	7.22584e-12
0.0203403 	29.2565 	-0.0615342 	3.05318e-12
0.0205946 	29.2855 	-0.0624944 	1.10965e-12
0.0208488 	29.3148 	-0.0621176 	5.24605e-12
0.0211031 	29.3443 	-0.0618704 	-3.99515e-06
0.0213574 	29.3753 	-0.0627839 	-4.37548e-05
0.0216116 	29.4062 	-0.0636975 	-8.35145e-05
0.0218659 	29.4372 	-0.064611 	-0.000105952
0.0221201 	29.4682 	-0.0655245 	-6.65973e-05
0.0223744 	29.4992 	-0.0664381 	-2.72423e-05
0.0226286 	29.5307 	-0.0675572 	7.51452e-12
0.0228829 	29.5633 	-0.0691388 	3.39221e-12
0.0231371 	29.596 	-0.0703569 	7.25931e-13
0.0233914 	29.6291 	-0.0698862 	4.82525e-12
0.0236456 	29.6624 	-0.0695245 	-3.16429e-06
0.0238999 	29.6972 	-0.0704704 	-4.42903e-05
0.0241542 	29.732 	-0.0714164 	-8.54163e-05
0.0244084 	29.7669 	-0.0723623 	-0.000116152
0.0246627 	29.8017 	-0.0733083 	-7.54923e-05
0.0249169 	29.8365 	-0.0742543 	-3.4833e-05
0.0251712 	29.8716 	-0.0753105 	7.81619e-12
0.0254254 	29.9081 	-0.0770259 	3.73243e-12
0.0256797 	29.9447 	-0.078544 	3.50242e-13
0.0259339 	29.9817 	-0.0779651 	4.42263e-12
0.0261882 	30.0189 	-0.0774819 	-2.6101e-06
0.0264424 	30.0577 	-0.078461 	-4.51241e-05
0.0266967 	30.0965 	-0.0794402 	-8.7638e-05
0.026951 	30.1354 	-0.0804194 	-0.000127183
0.0272052 	30.1742 	-0.0813986 	-8.52004e-05
0.0274595 	30.213 	-0.0823778 	-4.32182e-05
0.0277137 	30.2518 	-0.083357 	-1.23598e-06
0.027968 	30.2924 	-0.085195 	4.0754e-12
0.0282222 	30.333 	-0.087059 	2.00569e-14
0.0284765 	30.374 	-0.0863439 	4.03348e-12
0.0287307 	30.4152 	-0.08571 	-2.37379e-06
0.028985 	30.4582 	-0.086726 	-4.64063e-05
0.0292392 	30.5012 	-0.087742 	-9.04389e-05
0.0294935 	30.5441 	-0.088758 	-0.000134471
0.0297477 	30.5871 	-0.089774 	-9.60056e-05
0.030002 	30.63 	-0.09079 	-5.25744e-05
0.0302563 	30.673 	-0.091806 	-9.14324e-06
0.0305105 	30.7174 	-0.093644 	4.42168e-12
0.0307648 	30.7622 	-0.0957011 	3.8658e-13
0.031019 	30.8074 	-0.0950312 	4.3304e-12
0.0312733 	30.8528 	-0.0941822 	-2.48243e-06
0.0315275 	30.9001 	-0.0952349 	-4.7978e-05
0.0317818 	30.9473 	-0.0962876 	-9.34736e-05
0.032036 	30.9945 	-0.0973403 	-0.000138969
0.0322903 	31.0418 	-0.098393 	-0.000107576
0.0325445 	31.089 	-0.0994457 	-6.27538e-05
0.0327988 	31.1362 	-0.100498 	-1.79313e-05
0.0330531 	31.1846 	-0.102317 	5.65462e-12
0.0333073 	31.2337 	-0.104647 	8.88988e-13
0.0335616 	31.2833 	-0.104084 	3.19733e-12
0.0338158 	31.3331 	-0.103005 	-2.96401e-06
0.0340701 	31.3848 	-0.10409 	-4.96897e-05
0.0343243 	31.4364 	-0.105175 	-9.64154e-05
0.0345786 	31.4881 	-0.10626 	-0.000143141
0.0348328 	31.5397 	-0.107345 	-0.000119467
0.0350871 	31.5914 	-0.108429 	-7.34852e-05
0.0353413 	31.6431 	-0.109514 	-2.75033e-05
0.0355956 	31.6955 	-0.111221 	4.99322e-12
0.0358498 	31.7491 	-0.113852 	1.08353e-12
0.0361041 	31.8032 	-0.113533 	3.42018e-12
0.0363584 	31.8575 	-0.112289 	-3.84894e-06
0.0366126 	31.9138 	-0.113401 	-5.16031e-05
0.0368669 	31.97 	-0.114513 	-9.93573e-05
0.0371211 	32.0263 	-0.115626 	-0.000147111
0.0373754 	32.0826 	-0.116738 	-0.000131663
0.0376296 	32.1388 	-0.117851 	-8.47222e-05
0.0378839 	32.1951 	-0.118963 	-3.7781e-05
0.0381381 	32.2517 	-0.120421 	6.43405e-12
0.0383924 	32.31 	-0.123306 	1.72942e-12
0.0386466 	32.3687 	-0.123328 	3.55439e-12
0.0389009 	32.4278 	-0.121981 	-5.1784e-06
0.0391552 	32.4888 	-0.123121 	-5.39672e-05
0.0394094 	32.5498 	-0.124261 	-0.000102756
0.0396637 	32.6108 	-0.125401 	-0.000151545
0.0399179 	32.6719 	-0.126541 	-0.00014469
0.0401722 	32.7329 	-0.127681 	-9.67846e-05
0.0404264 	32.7939 	-0.128821 	-4.88796e-05
0.0406807 	32.8549 	-0.12996 	-9.74533e-07
0.0409349 	32.918 	-0.133024 	2.55816e-12
0.0411892 	32.9815 	-0.133458 	3.46838e-12
0.0414434 	33.0455 	-0.132056 	-6.99971e-06
0.0416977 	33.1115 	-0.133227 	-5.69555e-05
0.041952 	33.1774 	-0.134397 	-0.000106911
0.0422062 	33.2434 	-0.135568 	-0.000156867
0.0424605 	33.3094 	-0.136738 	-0.000158982
0.0427147 	33.3754 	-0.137909 	-0.000109984
0.042969 	33.4413 	-0.139079 	-6.09866e-05
0.0432232 	33.5073 	-0.14025 	-1.19891e-05
0.0434775 	33.5749 	-0.143041 	3.48444e-12
0.0437317 	33.6433 	-0.143953 	2.93121e-12
0.043986 	33.7125 	-0.142535 	-9.34227e-06
0.0442402 	33.7836 	-0.143737 	-6.05042e-05
0.0444945 	33.8547 	-0.14494 	-0.000111666
0.0447487 	33.9259 	-0.146142 	-0.000162828
0.045003 	33.997 	-0.147345 	-0.000174339
0.0452573 	34.0681 	-0.148547 	-0.000124212
0.0455115 	34.1392 	-0.149749 	-7.40854e-05
0.0457658 	34.2103 	-0.150952 	-2.39583e-05
0.04602 	34.2825 	-0.15337 	4.11116e-12
0.0462743 	34.3561 	-0.154829 	2.13352e-12
0.0465285 	34.4307 	-0.153435 	-1.22289e-05
0.0467828 	34.5072 	-0.154669 	-6.45645e-05
0.047037 	34.5836 	-0.155903 	-0.0001169
0.0472913 	34.66 	-0.157137 	-0.000169236
0.0475455 	34.7365 	-0.158371 	-0.000190564
0.0477998 	34.8129 	-0.159605 	-0.00013934
0.0480541 	34.8894 	-0.160839 	-8.81159e-05
0.0483083 	34.9658 	-0.162073 	-3.6892e-05
0.0485626 	35.0429 	-0.164012 	4.26151e-12
0.0488168 	35.1218 	-0.166093 	1.39946e-12
0.0490711 	35.202 	-0.164767 	-1.56701e-05
0.0493253 	35.284 	-0.166031 	-6.90905e-05
0.0495796 	35.366 	-0.167295 	-0.000122511
0.0498338 	35.4479 	-0.168559 	-0.000175931
0.0500881 	35.5299 	-0.169822 	-0.000207444
0.0503423 	35.6119 	-0.171086 	-0.000155211
0.0505966 	35.6939 	-0.17235 	-0.000102978
0.0508509 	35.7758 	-0.173614 	-5.07451e-05
0.0511051 	35.8579 	-0.174955 	4.17565e-12
0.0513594 	35.9424 	-0.17774 	9.66668e-13
0.0516136 	36.0284 	-0.176532 	-1.96585e-05
0.0518679 	36.1161 	-0.177823 	-7.40169e-05
0.0521221 	36.2039 	-0.179114 	-0.000128375
0.0523764 	36.2916 	-0.180405 	-0.000182734
0.0526306 	36.3793 	-0.181696 	-0.000224706
0.0528849 	36.467 	-0.182987 	-0.000171608
0.0531391 	36.5547 	-0.184278 	-0.000118509
0.0533934 	36.6424 	-0.185569 	-6.54112e-05
0.0536476 	36.7301 	-0.18686 	-1.2313e-05
0.0539019 	36.8198 	-0.189756 	4.41026e-13
0.0541562 	36.9119 	-0.188724 	-2.4161e-05
0.0544104 	37.0056 	-0.190038 	-7.92476e-05
0.0546647 	37.0992 	-0.191352 	-0.000134334
0.0549189 	37.1929 	-0.192666 	-0.000189421
0.0551732 	37.2865 	-0.193979 	-0.000241988
0.0554274 	37.3802 	-0.195293 	-0.000188229
0.0556817 	37.4738 	-0.196607 	-0.000134469
0.0559359 	37.5675 	-0.197921 	-8.07099e-05
0.0561902 	37.6611 	-0.199235 	-2.69506e-05
0.0564444 	37.756 	-0.20211 	1.59455e-14
0.0566987 	37.8545 	-0.201321 	-2.9102e-05
0.056953 	37.9543 	-0.202651 	-8.46225e-05
0.0572072 	38.0541 	-0.203982 	-0.000140143
0.0574615 	38.1539 	-0.205313 	-0.000195664
0.0577157 	38.2537 	-0.206643 	-0.000251184
0.05797 	38.3535 	-0.207974 	-0.000204615
0.0582242 	38.4532 	-0.209304 	-0.000150481
0.0584785 	38.553 	-0.210635 	-9.63463e-05
0.0587327 	38.6528 	-0.211966 	-4.22116e-05
0.058987 	38.7532 	-0.214053 	4.06185e-13
0.0592412 	38.8581 	-0.214283 	-3.43879e-05
0.0594955 	38.9642 	-0.215623 	-9.00065e-05
0.0597497 	39.0703 	-0.216963 	-0.000145625
0.060004 	39.1764 	-0.218304 	-0.000201244
0.0602583 	39.2825 	-0.219644 	-0.000256862
0.0605125 	39.3886 	-0.220984 	-0.000220374
0.0607668 	39.4947 	-0.222325 	-0.000166189
0.061021 	39.6008 	-0.223665 	-0.000112004
0.0612753 	39.7069 	-0.225005 	-5.78197e-05
0.0615295 	39.8131 	-0.226346 	-3.63497e-06
0.0617838 	39.9245 	-0.227563 	-3.99597e-05
0.062038 	40.0371 	-0.228907 	-9.53946e-05
0.0622923 	40.1497 	-0.230251 	-0.00015083
0.0625465 	40.2623 	-0.231595 	-0.000206264
0.0628008 	40.3749 	-0.23294 	-0.000261699
0.0630551 	40.4874 	-0.234199 	-0.000234501
0.0633093 	40.5999 	-0.235383 	-0.000178752
0.0635636 	40.7124 	-0.236568 	-0.000123003
0.0638178 	40.8249 	-0.237753 	-6.72537e-05
0.0640721 	40.9374 	-0.238938 	-1.15048e-05
0.0643263 	41.0547 	-0.240184 	-3.60396e-05
0.0645806 	41.1738 	-0.241356 	-8.92945e-05
0.0648348 	41.293 	-0.242528 	-0.000142549
0.0650891 	41.4121 	-0.2437 	-0.000195804
0.0653433 	41.5312 	-0.244873 	-0.000249059
0.0655976 	41.6503 	-0.246045 	-0.000230829
0.0658519 	41.7694 	-0.247217 	-0.000175476
0.0661061 	41.8885 	-0.248389 	-0.000120122
0.0663604 	42.0077 	-0.249561 	-6.47691e-05
0.0666146 	42.1268 	-0.250733 	-9.41588e-06
0.0668689 	42.2503 	-0.252131 	-2.45956e-05
0.0671231 	42.3761 	-0.253308 	-7.81856e-05
0.0673774 	42.502 	-0.254486 	-0.000131776
0.0676316 	42.6279 	-0.255663 	-0.000185366
0.0678859 	42.7538 	-0.256841 	-0.000238955
0.0681401 	42.8797 	-0.258018 	-0.000230204
0.0683944 	43.0056 	-0.259196 	-0.000174453
0.0686486 	43.1315 	-0.260373 	-0.000118702
0.0689029 	43.2574 	-0.261551 	-6.29503e-05
0.0691572 	43.3832 	-0.262729 	-7.199e-06
0.0694114 	43.513 	-0.264331 	-1.25568e-05
0.0696657 	43.6458 	-0.265497 	-6.56775e-05
0.0699199 	43.7786 	-0.266663 	-0.000118798
0.0701742 	43.9114 	-0.26783 	-0.000171919
0.0704284 	44.0442 	-0.268996 	-0.00022504
0.0706827 	44.177 	-0.270162 	-0.000225852
0.0709369 	44.3098 	-0.271328 	-0.000170546
0.0711912 	44.4426 	-0.272495 	-0.00011524
0.0714454 	44.5755 	-0.273661 	-5.99339e-05
0.0716997 	44.7083 	-0.274827 	-4.62787e-06
0.071954 	44.8444 	-0.276638 	-4.58681e-07
0.0722082 	44.9842 	-0.277724 	-5.0002e-05
0.0724625 	45.124 	-0.278809 	-9.95454e-05
0.0727167 	45.2638 	-0.279894 	-0.000149089
0.072971 	45.4037 	-0.280979 	-0.000198632
0.0732252 	45.5435 	-0.282065 	-0.000208217
0.0734795 	45.6833 	-0.28315 	-0.000156603
0.0737337 	45.8231 	-0.284235 	-0.000104988
0.073988 	45.963 	-0.28532 	-5.33731e-05
0.0742422 	46.1028 	-0.286405 	-1.75825e-06
0.0744965 	46.2459 	-0.288106 	5.70112e-05
0.0747508 	46.3921 	-0.289468 	-3.74641e-05
0.075005 	46.5388 	-0.290525 	-8.56246e-05
0.0752593 	46.6856 	-0.291583 	-0.000133785
0.0755135 	46.8324 	-0.29264 	-0.000181945
0.0757678 	46.9792 	-0.293697 	-0.000199826
0.076022 	47.1259 	-0.294755 	-0.000149627
0.0762763 	47.2727 	-0.295812 	-9.94277e-05
0.0765305 	47.4195 	-0.296869 	-4.92287e-05
0.0767848 	47.5663 	-0.297915 	5.41624e-06
0.077039 	47.7163 	-0.29925 	0.000124126
0.0772933 	47.8686 	-0.301376 	-2.6118e-05
0.0775475 	48.0222 	-0.30244 	-7.4243e-05
0.0778018 	48.1758 	-0.303504 	-0.000122368
0.0780561 	48.3293 	-0.304569 	-0.000170493
0.0783103 	48.4829 	-0.305633 	-0.000196899
0.0785646 	48.6364 	-0.306698 	-0.000146721
0.0788188 	48.79 	-0.307762 	-9.65417e-05
0.0790731 	48.9435 	-0.308826 	-4.63628e-05
0.0793273 	49.0973 	-0.309764 	2.28949e-05
0.0795816 	49.2538 	-0.310172 	0.000202903
0.0798358 	49.4122 	-0.313499 	-1.32929e-05
0.0800901 	49.5723 	-0.314469 	-5.69946e-05
0.0803443 	49.7324 	-0.315438 	-0.000100696
0.0805986 	49.8924 	-0.316408 	-0.000144398
0.0808529 	50.0525 	-0.317378 	-0.000176118
0.0811071 	50.2126 	-0.318348 	-0.000130544
0.0813614 	50.3727 	-0.319318 	-8.49706e-05
0.0816156 	50.5328 	-0.320287 	-3.93968e-05
0.0818699 	50.6932 	-0.320871 	4.34422e-05
0.0821241 	50.856 	-0.319817 	0.000290918
0.0823784 	51.0201 	-0.324778 	-2.19869e-06
0.0826326 	51.1864 	-0.325554 	-3.71688e-05
0.0828869 	51.3527 	-0.32633 	-7.2139e-05
0.0831411 	51.519 	-0.327106 	-0.000107109
0.0833954 	51.6853 	-0.327882 	-0.000138677
0.0836496 	51.8515 	-0.328658 	-0.000102211
0.0839039 	52.0178 	-0.329434 	-6.57439e-05
0.0841582 	52.1841 	-0.330209 	-2.92772e-05
0.0844124 	52.3509 	-0.330196 	6.55173e-05
0.0846667 	52.5197 	-0.327215 	0.000380012
0.0849209 	52.6895 	-0.333089 	5.81039e-05
0.0851752 	52.8612 	-0.334618 	-2.11933e-05
0.0854294 	53.0333 	-0.33519 	-4.70546e-05
0.0856837 	53.2054 	-0.335763 	-7.29158e-05
0.0859379 	53.3775 	-0.336335 	-9.87771e-05
0.0861922 	53.5496 	-0.336907 	-7.38693e-05
0.0864464 	53.7217 	-0.33748 	-4.69085e-05
0.0867007 	53.8938 	-0.338052 	-1.99476e-05
0.086955 	54.0665 	-0.337328 	8.82297e-05
0.0872092 	54.2409 	-0.332917 	0.000427411
0.0874635 	54.4162 	-0.338511 	0.000139717
0.0877177 	54.5928 	-0.341417 	-1.13294e-05
0.087972 	54.7702 	-0.341851 	-3.10372e-05
0.0882262 	54.9476 	-0.342286 	-5.07451e-05
0.0884805 	55.125 	-0.34272 	-7.04529e-05
0.0887347 	55.3024 	-0.343155 	-5.49614e-05
0.088989 	55.4798 	-0.343589 	-3.44259e-05
0.0892432 	55.6572 	-0.344024 	-1.38903e-05
0.0894975 	55.8353 	-0.342609 	0.000112692
0.0897518 	56.0148 	-0.337326 	0.00046094
0.090006 	56.195 	-0.342105 	0.000226215
0.0902603 	56.3759 	-0.346582 	-3.95275e-06
0.0905145 	56.5578 	-0.346841 	-1.5934e-05
0.0907688 	56.7398 	-0.3471 	-2.79153e-05
0.091023 	56.9218 	-0.347359 	-3.98966e-05
0.0912773 	57.1038 	-0.347619 	-3.26028e-05
0.0915315 	57.2858 	-0.347878 	-2.01277e-05
0.0917858 	57.4678 	-0.348137 	-7.65258e-06
0.09204 	57.6505 	-0.345947 	0.0001369
0.0922943 	57.8343 	-0.33987 	0.000491042
0.0925485 	58.0186 	-0.343536 	0.000314097
0.0928028 	58.2031 	-0.349683 	-9.71696e-08
0.0930571 	58.3888 	-0.349695 	-1.2314e-06
0.0933113 	58.5744 	-0.349706 	-2.36563e-06
0.0935656 	58.7601 	-0.349718 	-3.49987e-06
0.0938198 	58.9457 	-0.349729 	-3.01082e-06
0.0940741 	59.1314 	-0.349741 	-1.83105e-06
0.0943283 	59.317 	-0.349752 	-6.51281e-07
0.0945826 	59.5033 	-0.346684 	0.000158066
0.0948368 	59.6903 	-0.339819 	0.000510943
0.0950911 	59.8776 	-0.342043 	0.000396265
0.0953453 	60.0651 	-0.348698 	5.36533e-05
0.0955996 	60.253 	-0.349514 	9.33656e-06
0.0958539 	60.4412 	-0.349246 	2.04067e-05
0.0961081 	60.6293 	-0.348978 	3.14768e-05
0.0963624 	60.8174 	-0.34871 	2.86742e-05
0.0966166 	61.0055 	-0.348442 	1.71748e-05
0.0968709 	61.1936 	-0.348174 	5.67539e-06
0.0971251 	61.3821 	-0.34418 	0.000177007
0.0973794 	61.571 	-0.336556 	0.000526501
0.0976336 	61.76 	-0.33714 	0.000474111
0.0978879 	61.9492 	-0.34359 	0.000134405
0.0981421 	62.1383 	-0.345779 	1.54332e-05
0.0983964 	62.3273 	-0.345179 	4.097e-05
0.0986507 	62.5164 	-0.344579 	6.65068e-05
0.0989049 	62.7054 	-0.343978 	6.46001e-05
0.0991592 	62.8944 	-0.343378 	3.81158e-05
0.0994134 	63.0835 	-0.342777 	1.16315e-05
0.0996677 	63.2725 	-0.337837 	0.000191298
0.0999219 	63.4616 	-0.329497 	0.000532404
0.100176 	63.6507 	-0.328375 	0.00054117
0.10043 	63.8399 	-0.334654 	0.000209171
0.100685 	64.0288 	-0.338262 	1.49495e-05
0.100939 	64.2169 	-0.337322 	5.53573e-05
0.101193 	64.4051 	-0.336382 	9.5765e-05
0.101447 	64.5932 	-0.335441 	9.99837e-05
0.101702 	64.7814 	-0.334501 	5.81574e-05
0.101956 	64.9695 	-0.333561 	1.63311e-05
0.10221 	65.1571 	-0.327675 	0.000198308
0.102464 	65.3444 	-0.31862 	0.000523643
0.102719 	65.5316 	-0.315713 	0.00058934
0.102973 	65.7189 	-0.321871 	0.000272188
0.103227 	65.9058 	-0.326983 	7.48694e-06
0.103481 	66.091 	-0.325762 	6.02954e-05
0.103736 	66.2762 	-0.324541 	0.000113104
0.10399 	66.4614 	-0.32332 	0.000128107
0.104244 	66.6466 	-0.322099 	7.35665e-05
0.104498 	66.8319 	-0.320878 	1.90265e-05
0.104753 	67.0158 	-0.314098 	0.000200328
0.105007 	67.1991 	-0.304339 	0.000507983
0.105261 	67.3823 	-0.299571 	0.00062456
0.105516 	67.5655 	-0.305695 	0.000324094
0.10577 	67.7486 	-0.311819 	2.36281e-05
0.106024 	67.9289 	-0.310912 	6.03763e-05
0.106278 	68.109 	-0.309403 	0.000125906
0.106533 	68.2891 	-0.307895 	0.00015634
0.106787 	68.4691 	-0.306387 	8.88347e-05
0.107041 	68.6492 	-0.304879 	2.13297e-05
0.107295 	68.8272 	-0.297204 	0.00019571
0.10755 	69.0043 	-0.286681 	0.000481825
0.107804 	69.1813 	-0.279876 	0.000641117
0.108058 	69.3581 	-0.285953 	0.00036111
0.108312 	69.5349 	-0.29203 	8.11028e-05
0.108567 	69.7088 	-0.292552 	5.39724e-05
0.108821 	69.8814 	-0.290809 	0.000129952
0.109075 	70.054 	-0.289066 	0.00017899
0.109329 	70.2267 	-0.287323 	0.000100944
0.109584 	70.3993 	-0.28558 	2.28983e-05
0.109838 	70.5691 	-0.277161 	0.000186782
0.110092 	70.7376 	-0.265971 	0.00045112
0.110346 	70.9061 	-0.257101 	0.000645536
0.110601 	71.0742 	-0.263285 	0.000386246
0.110855 	71.2424 	-0.26947 	0.000126956
0.111109 	71.4078 	-0.271475 	4.47249e-05
0.111363 	71.5706 	-0.26947 	0.000132357
0.111618 	71.7333 	-0.267464 	0.000204829
0.111872 	71.8961 	-0.265459 	0.000115097
0.112126 	72.0588 	-0.263454 	2.53663e-05
0.11238 	72.2178 	-0.254202 	0.000174222
0.112635 	72.3753 	-0.242093 	0.000417104
0.112889 	72.5328 	-0.23077 	0.000639393
0.113143 	72.6897 	-0.237037 	0.000400548
0.113397 	72.8466 	-0.243305 	0.000161703
0.113652 	73.0014 	-0.246793 	3.30284e-05
0.113906 	73.1518 	-0.244456 	0.000135289
0.11416 	73.3021 	-0.242119 	0.00023755
0.114414 	73.4524 	-0.239782 	0.00013413
0.114669 	73.6027 	-0.237445 	2.97782e-05
0.114923 	73.7484 	-0.227352 	0.000157699
0.115177 	73.8922 	-0.214161 	0.000378369
0.115431 	74.036 	-0.200971 	0.000599039
0.115686 	74.1791 	-0.206366 	0.000402622
0.11594 	74.3221 	-0.212705 	0.00018503
0.116194 	74.464 	-0.217712 	1.68089e-05
0.116448 	74.5993 	-0.215146 	0.000129133
0.116703 	74.7345 	-0.212581 	0.000241457
0.116957 	74.8698 	-0.210016 	0.000148778
0.117211 	75.005 	-0.20745 	3.45789e-05
0.117465 	75.1349 	-0.196851 	0.00014258
0.11772 	75.2625 	-0.182762 	0.000347082
0.117974 	75.39 	-0.168674 	0.000551583
0.118228 	75.5168 	-0.172303 	0.000406148
0.118482 	75.6433 	-0.178807 	0.000203916
0.118737 	75.7699 	-0.185311 	1.68384e-06
0.118991 	75.8877 	-0.182666 	0.000118152
0.119245 	76.0054 	-0.179945 	0.000237295
0.119499 	76.1231 	-0.177224 	0.000161229
0.119754 	76.2407 	-0.174502 	4.0566e-05
0.120008 	76.3526 	-0.163796 	0.000126159
0.120262 	76.4614 	-0.149046 	0.000316212
0.120517 	76.5703 	-0.134296 	0.000506265
0.120771 	76.6783 	-0.136128 	0.000405274
0.121025 	76.7861 	-0.142945 	0.00021676
0.121279 	76.8939 	-0.149763 	2.82463e-05
0.121534 	76.9933 	-0.148404 	0.000104211
0.121788 	77.0913 	-0.145603 	0.000226787
0.122042 	77.1893 	-0.142803 	0.000171431
0.122296 	77.2873 	-0.140002 	4.77926e-05
0.122551 	77.3792 	-0.129576 	0.000106434
0.122805 	77.4675 	-0.114344 	0.000279936
0.123059 	77.5557 	-0.0991124 	0.000453438
0.123313 	77.6431 	-0.0990848 	0.000392585
0.123568 	77.7302 	-0.106309 	0.000219952
0.123822 	77.8173 	-0.113533 	4.73178e-05
0.124076 	77.8969 	-0.113506 	8.77966e-05
0.12433 	77.9737 	-0.110741 	0.000208744
0.124585 	78.0504 	-0.107975 	0.000176706
0.124839 	78.1271 	-0.10521 	5.52119e-05
0.125093 	78.1982 	-0.0955169 	8.48853e-05
0.125347 	78.2646 	-0.0800537 	0.000240479
0.125602 	78.331 	-0.0645905 	0.000396073
0.125856 	78.3967 	-0.0627057 	0.000369754
0.12611 	78.462 	-0.0704464 	0.000214479
0.126364 	78.5273 	-0.078187 	5.92052e-05
0.126619 	78.5861 	-0.0795412 	6.97698e-05
0.126873 	78.6409 	-0.0769596 	0.000182537
0.127127 	78.6957 	-0.074378 	0.000173648
0.127381 	78.7505 	-0.0717964 	6.07835e-05
0.127636 	78.8004 	-0.0632973 	6.4149e-05
0.12789 	78.8447 	-0.0478922 	0.000203165
0.128144 	78.889 	-0.032487 	0.000342182
0.128398 	78.9327 	-0.0288315 	0.000344059
0.128653 	78.976 	-0.0372492 	0.000205022
0.128907 	79.0193 	-0.0456669 	6.5985e-05
0.129161 	79.0572 	-0.0484716 	5.1913e-05
0.129415 	79.0904 	-0.0462065 	0.000150717
0.12967 	79.1235 	-0.0439414 	0.000161199
0.129924 	79.1566 	-0.0416763 	6.25199e-05
0.130178 	79.186 	-0.0346844 	4.62912e-05
0.130432 	79.2089 	-0.0195195 	0.000172621
0.130687 	79.2319 	-0.00435459 	0.000298951
0.130941 	79.2545 	0.00104868 	0.000323832
0.131195 	79.2765 	-0.00811647 	0.00019731
0.131449 	79.2986 	-0.0172816 	7.07878e-05
0.131704 	79.3165 	-0.0215718 	3.64673e-05
0.131958 	79.3292 	-0.0196702 	0.000119252
0.132212 	79.3418 	-0.0177686 	0.000143294
0.132466 	79.3545 	-0.015867 	6.07362e-05
0.132721 	79.3647 	-0.0105427 	3.10084e-05
0.132975 	79.3679 	0.00430813 	0.000148321
0.133229 	79.3711 	0.0191589 	0.000265633
0.133483 	79.3741 	0.0263678 	0.000310302
0.133738 	79.3766 	0.0165044 	0.000192683
0.133992 	79.3791 	0.00664109 	7.50642e-05
0.134246 	79.3785 	0.000913854 	2.46292e-05
0.134501 	79.3726 	0.00248248 	9.27027e-05
0.134755 	79.3667 	0.00405111 	0.000125001
0.135009 	79.3608 	0.00561974 	5.72068e-05
0.135263 	79.3535 	0.00921384 	1.71768e-05
0.135518 	79.3392 	0.0237523 	0.000127167
0.135772 	79.3248 	0.0382909 	0.000237156
0.136026 	79.3102 	0.0474002 	0.000299278
0.13628 	79.2953 	0.036943 	0.000188886
0.136535 	79.2803 	0.0264859 	7.84935e-05
0.136789 	79.2632 	0.0194263 	1.6236e-05
0.137043 	79.2409 	0.0207272 	7.24242e-05
0.137297 	79.2185 	0.0220281 	0.000109406
0.137552 	79.1962 	0.0233289 	5.35247e-05
0.137806 	79.1735 	0.0251782 	4.36278e-06
0.13806 	79.1438 	0.0394816 	0.000107797
0.138314 	79.114 	0.053785 	0.000211231
0.138569 	79.0842 	0.0649295 	0.000288704
0.138823 	79.054 	0.0540032 	0.000184786
0.139077 	79.0238 	0.0430769 	8.08673e-05
0.139331 	78.9922 	0.0348223 	1.06503e-05
0.139586 	78.9556 	0.0359407 	5.86641e-05
0.13984 	78.9191 	0.037059 	9.90721e-05
0.140094 	78.8825 	0.0381774 	5.1383e-05
0.140348 	78.846 	0.0392957 	3.69384e-06
0.140603 	78.8036 	0.0524884 	8.99902e-05
0.140857 	78.7606 	0.0666949 	0.000187536
0.141111 	78.7177 	0.0800557 	0.000278584
0.141365 	78.6745 	0.0687997 	0.000180485
0.14162 	78.6312 	0.0575438 	8.23859e-05
0.141874 	78.5871 	0.0482526 	6.9046e-06
0.142128 	78.5383 	0.0492633 	5.00111e-05
0.142382 	78.4896 	0.0502739 	9.31177e-05
0.142637 	78.4409 	0.0512846 	5.14202e-05
0.142891 	78.3922 	0.0522952 	8.65945e-06
0.143145 	78.3392 	0.06382 	7.33362e-05
0.143399 	78.285 	0.0780147 	0.000165295
0.143654 	78.2309 	0.0922094 	0.000257253
0.143908 	78.1764 	0.0822326 	0.000175528
0.144162 	78.122 	0.0707468 	8.29608e-05
0.144416 	78.0671 	0.060551 	4.15271e-06
0.144671 	78.0079 	0.0614954 	4.41662e-05
0.144925 	77.9488 	0.0624398 	8.41797e-05
0.145179 	77.8897 	0.0633842 	5.28344e-05
0.145433 	77.8305 	0.0643286 	1.31901e-05
0.145688 	77.7683 	0.0741269 	5.78466e-05
0.145942 	77.7044 	0.0883398 	0.000144535
0.146196 	77.6406 	0.102553 	0.000231224
0.14645 	77.5766 	0.0948008 	0.00017011
0.146705 	77.5125 	0.0831512 	8.27688e-05
0.146959 	77.4482 	0.0721586 	1.9847e-06
0.147213 	77.38 	0.0730592 	3.98921e-05
0.147467 	77.3119 	0.0739597 	7.77994e-05
0.147722 	77.2437 	0.0748603 	5.50619e-05
0.147976 	77.1755 	0.0757609 	1.75475e-05
0.14823 	77.1052 	0.083753 	4.3239e-05
0.148484 	77.0329 	0.0979772 	0.000124478
0.148739 	76.9607 	0.112201 	0.000205716
0.148993 	76.8883 	0.106715 	0.000163384
0.149247 	76.8158 	0.0949139 	8.14632e-05
0.149502 	76.7433 	0.0831835 	1.98341e-07
0.149756 	76.6673 	0.0840342 	3.57364e-05
0.15001 	76.5912 	0.0848849 	7.12744e-05
0.150264 	76.5152 	0.0857357 	5.6467e-05
0.150519 	76.4392 	0.0865864 	2.13356e-05
0.150773 	76.3617 	0.0926806 	2.96662e-05
0.151027 	76.2821 	0.106884 	0.000105211
0.151281 	76.2024 	0.121087 	0.000180757
0.151536 	76.1227 	0.117875 	0.000155292
0.15179 	76.043 	0.105907 	7.90524e-05
0.152044 	75.9632 	0.09394 	2.81235e-06
0.152298 	75.8804 	0.094253 	3.12094e-05
0.152553 	75.7976 	0.0950364 	6.36141e-05
0.152807 	75.7147 	0.0958198 	5.6035e-05
0.153061 	75.6318 	0.0966032 	2.40334e-05
0.153315 	75.5482 	0.100715 	1.74008e-05
0.15357 	75.4622 	0.114865 	8.72848e-05
0.153824 	75.3762 	0.129015 	0.000157169
0.154078 	75.2902 	0.128081 	0.000146481
0.154332 	75.2041 	0.115933 	7.59016e-05
0.154587 	75.118 	0.103784 	5.32247e-06
0.154841 	75.0295 	0.103518 	2.65015e-05
0.155095 	74.9409 	0.10422 	5.51645e-05
0.155349 	74.8522 	0.104922 	5.36888e-05
0.155604 	74.7635 	0.105624 	2.54088e-05
0.155858 	74.6745 	0.107684 	6.54948e-06
0.156112 	74.5832 	0.121758 	7.10595e-05
0.156366 	74.4919 	0.135833 	0.00013557
0.156621 	74.4005 	0.137186 	0.000137588
0.156875 	74.3092 	0.124855 	7.23919e-05
0.157129 	74.2178 	0.112524 	7.19577e-06
0.157383 	74.1245 	0.111709 	2.19058e-05
0.157638 	74.031 	0.112323 	4.65292e-05
0.157892 	73.9375 	0.112937 	4.97445e-05
0.158146 	73.844 	0.113551 	2.54708e-05
0.1584 	73.7505 	0.114165 	1.1971e-06
0.158655 	73.655 	0.127489 	5.66061e-05
0.158909 	73.5593 	0.141472 	0.000116148
0.159163 	73.4637 	0.145125 	0.000128985
0.159417 	73.368 	0.13262 	6.87725e-05
0.159672 	73.2724 	0.120115 	8.55969e-06
0.159926 	73.1753 	0.118786 	1.75896e-05
0.16018 	73.078 	0.11931 	3.80939e-05
0.160434 	72.9807 	0.119833 	4.44979e-05
0.160689 	72.8834 	0.120357 	2.43003e-05
0.160943 	72.7861 	0.120881 	4.10272e-06
0.161197 	72.6875 	0.132046 	4.38112e-05
0.161451 	72.5885 	0.145924 	9.879e-05
0.161706 	72.4895 	0.151886 	0.000120779
0.16196 	72.3906 	0.139224 	6.51505e-05
0.162214 	72.2917 	0.126561 	9.52184e-06
0.162468 	72.1918 	0.124754 	1.36295e-05
0.162723 	72.0917 	0.125189 	3.00737e-05
0.162977 	71.9915 	0.125623 	3.81936e-05
0.163231 	71.8914 	0.126057 	2.20065e-05
0.163485 	71.7913 	0.126492 	5.81937e-06
0.16374 	71.6904 	0.13546 	3.25145e-05
0.163994 	71.5891 	0.149219 	8.3279e-05
0.164248 	71.4877 	0.157492 	0.000112944
0.164503 	71.3865 	0.144698 	6.15544e-05
0.164757 	71.2853 	0.131904 	1.01649e-05
0.165011 	71.1834 	0.129652 	1.00662e-05
0.165265 	71.0814 	0.130001 	2.26144e-05
0.16552 	70.9794 	0.13035 	3.10844e-05
0.165774 	70.8774 	0.130698 	1.87397e-05
0.166028 	70.7754 	0.131047 	6.39503e-06
0.166282 	70.673 	0.137793 	2.25386e-05
0.166537 	70.5702 	0.151415 	6.93028e-05
0.166791 	70.4675 	0.161992 	0.000105255
0.167045 	70.3648 	0.149099 	5.78951e-05
0.167299 	70.2622 	0.136206 	1.05353e-05
0.167554 	70.1592 	0.133546 	6.9087e-06
0.167808 	70.0562 	0.133814 	1.57939e-05
0.168062 	69.9532 	0.134081 	2.33996e-05
0.168316 	69.8501 	0.134349 	1.4663e-05
0.168571 	69.7471 	0.134617 	5.92632e-06
0.168825 	69.644 	0.139129 	1.37395e-05
0.169079 	69.5405 	0.152592 	5.64521e-05
0.169333 	69.4371 	0.165442 	9.71675e-05
0.169588 	69.3339 	0.152495 	5.38956e-05
0.169842 	69.2306 	0.139549 	1.06237e-05
0.170096 	69.1274 	0.136515 	4.11205e-06
0.17035 	69.0241 	0.136706 	9.56213e-06
0.170605 	68.9208 	0.136897 	1.50122e-05
0.170859 	68.8176 	0.137089 	9.85623e-06
0.171113 	68.7143 	0.13728 	4.49954e-06
0.171367 	68.611 	0.139564 	6.14022e-06
0.171622 	68.5077 	0.152834 	4.45116e-05
0.171876 	68.4044 	0.166103 	8.28831e-05
0.17213 	68.3013 	0.154947 	4.92812e-05
0.172384 	68.1982 	0.141998 	1.03961e-05
0.172639 	68.0953 	0.138624 	1.65125e-06
0.172893 	67.9924 	0.138744 	3.90505e-06
0.173147 	67.8896 	0.138864 	6.15885e-06
0.173401 	67.7868 	0.138984 	4.43469e-06
0.173656 	67.684 	0.139104 	2.22025e-06
0.17391 	67.5812 	0.139224 	5.80917e-09
0.174164 	67.4786 	0.152229 	3.35133e-05
0.174418 	67.3761 	0.165267 	6.71143e-05
0.174673 	67.2737 	0.156524 	4.38793e-05
0.174927 	67.1713 	0.143634 	9.82091e-06
0.175181 	67.0694 	0.139956 	-4.47198e-07
0.175435 	66.9676 	0.140011 	-1.07563e-06
0.17569 	66.8658 	0.140067 	-1.70405e-06
0.175944 	66.7641 	0.140122 	-1.33697e-06
0.176198 	66.6623 	0.140177 	-7.19666e-07
0.176452 	66.5605 	0.140233 	-1.02366e-07
0.176707 	66.4592 	0.150891 	2.36254e-05
0.176961 	66.358 	0.163657 	5.19485e-05
0.177215 	66.2569 	0.157324 	3.75816e-05
0.177469 	66.1559 	0.144574 	8.86842e-06
0.177724 	66.0554 	0.140633 	-2.20757e-06
0.177978 	65.9552 	0.14063 	-5.40171e-06
0.178232 	65.855 	0.140628 	-8.59585e-06
0.178486 	65.7548 	0.140625 	-7.30734e-06