# Force          
# CofR           : (0.0000000000e+00 0.0000000000e+00 0.0000000000e+00)
#                
# Time           	(total_x total_y total_z)	(pressure_x pressure_y pressure_z)	(viscous_x viscous_y viscous_z)
1.0000000000e+00	(2.8271917404e+03 5.5879167659e+03 -4.8276616970e-16)	(2.8271660541e+03 5.5879183391e+03 -4.8275339505e-16)	(2.5686223932e-02 -1.5731584716e-03 -1.2774648919e-20)
2.0000000000e+00	(-8.7655789822e+02 -1.7497421029e+03 1.4725271935e-16)	(-8.7653123485e+02 -1.7496565999e+03 1.4679178519e-16)	(-2.6663364451e-02 -8.5503032640e-02 4.6093416120e-19)
3.0000000000e+00	(2.6346566671e+02 5.3851749552e+02 -4.0443319544e-17)	(2.6343893106e+02 5.3852984158e+02 -4.0026605584e-17)	(2.6735645843e-02 -1.2346055044e-02 -4.1671395994e-19)
4.0000000000e+00	(-8.7867820155e+01 -1.7781824850e+02 1.3825378320e-17)	(-8.7888309796e+01 -1.7779952944e+02 1.3881254780e-17)	(2.0489641323e-02 -1.8719059744e-02 -5.5876460103e-20)
5.0000000000e+00	(2.8608921863e+01 5.9653071829e+01 -4.4711572167e-18)	(2.8585208609e+01 5.9664553307e+01 -4.5104398701e-18)	(2.3713253972e-02 -1.1481477487e-02 3.9282653462e-20)
6.0000000000e+00	(-9.9667867914e+00 -2.0241084246e+01 1.4999371963e-18)	(-9.9908415590e+00 -2.0231844841e+01 1.5026124052e-18)	(2.4054767531e-02 -9.2394057137e-03 -2.6752088757e-21)
7.0000000000e+00	(3.0106729718e+00 6.2604746697e+00 -6.0911777187e-19)	(2.9859080918e+00 6.2675630610e+00 -6.1240084707e-19)	(2.4764879944e-02 -7.0883912397e-03 3.2830752013e-21)
8.0000000000e+00	(-1.1738027800e+00 -2.4405656945e+00 2.9121072404e-20)	(-1.1988441445e+00 -2.4346512903e+00 2.7328063698e-20)	(2.5041364536e-02 -5.9144041603e-03 1.7930087061e-21)
9.0000000000e+00	(3.5332702574e-01 6.5943638523e-01 -2.0768949100e-19)	(3.2812057657e-01 6.6456402446e-01 -2.0852468635e-19)	(2.5206449172e-02 -5.1276392293e-03 8.3519534582e-22)
1.0000000000e+01	(-6.4196000697e-02 -1.9471976968e-01 -1.4389671642e-19)	(-8.9435150056e-02 -1.9009897201e-01 -1.4413383401e-19)	(2.5239149359e-02 -4.6207976761e-03 2.3711759087e-22)
1.1000000000e+01	(1.3118504715e-01 1.3600893996e-01 -1.5942689643e-19)	(1.0600864038e-01 1.4028847310e-01 -1.5933517711e-19)	(2.5176406767e-02 -4.2795331445e-03 -9.1719317067e-23)
1.2000000000e+01	(1.1457470970e-01 1.0231446812e-01 -1.3943290555e-19)	(8.9545652727e-02 1.0635969550e-01 -1.3914976858e-19)	(2.5029056976e-02 -4.0452273728e-03 -2.8313696930e-22)
1.3000000000e+01	(1.5311199337e-01 1.9201889465e-01 -1.3050746538e-19)	(1.2827376974e-01 1.9590421565e-01 -1.2987082615e-19)	(2.4838223632e-02 -3.8853210043e-03 -6.3663922714e-22)
1.4000000000e+01	(1.6051043762e-01 2.3017925454e-01 -1.1556628796e-19)	(1.3589318243e-01 2.3395028774e-01 -1.1497506317e-19)	(2.4617255185e-02 -3.7710332004e-03 -5.9122479326e-22)
1.5000000000e+01	(1.7183616529e-01 2.6841567150e-01 -1.0289238142e-19)	(1.4745832575e-01 2.7209877811e-01 -1.0230974843e-19)	(2.4377839540e-02 -3.6831066039e-03 -5.8263299393e-22)
1.6000000000e+01	(1.7064150631e-01 2.7912959660e-01 -8.8442734982e-20)	(1.4651799504e-01 2.8274668781e-01 -8.7890409825e-20)	(2.4123511265e-02 -3.6170912079e-03 -5.5232515716e-22)
1.7000000000e+01	(1.7121407603e-01 2.9276036734e-01 -7.8063140021e-20)	(1.4735305667e-01 2.9632505045e-01 -7.7541229781e-20)	(2.3861019354e-02 -3.5646831058e-03 -5.2191024018e-22)
1.8000000000e+01	(1.7354305357e-01 3.1388510751e-01 -7.1581469480e-20)	(1.4994772988e-01 3.1740719691e-01 -7.1044842844e-20)	(2.3595323692e-02 -3.5220894009e-03 -5.3662663632e-22)
1.9000000000e+01	(1.7625568107e-01 3.2564524899e-01 -6.6861753472e-20)	(1.5292371413e-01 3.2913399311e-01 -6.6379800338e-20)	(2.3331966944e-02 -3.4887441221e-03 -4.8195313339e-22)
2.0000000000e+01	(1.7752072970e-01 3.2587099846e-01 -6.2119819546e-20)	(1.5444859912e-01 3.2933214160e-01 -6.1675257456e-20)	(2.3072130582e-02 -3.4611431443e-03 -4.4456209055e-22)
2.1000000000e+01	(1.7945628545e-01 3.3233826007e-01 -5.7553540354e-20)	(1.5663957152e-01 3.3577576267e-01 -5.7125508366e-20)	(2.2816713931e-02 -3.4375025978e-03 -4.2803198845e-22)
2.2000000000e+01	(1.7996026854e-01 3.3057415811e-01 -5.3536269364e-20)	(1.5739387818e-01 3.3399198067e-01 -5.3184399990e-20)	(2.2566390361e-02 -3.4178225642e-03 -3.5186937396e-22)
2.3000000000e+01	(1.7933759771e-01 3.3181149767e-01 -4.9368558858e-20)	(1.5701618263e-01 3.3521158391e-01 -4.9043186542e-20)	(2.2321415082e-02 -3.4000862358e-03 -3.2537231613e-22)
2.4000000000e+01	(1.7741988623e-01 3.3655138194e-01 -4.5279057604e-20)	(1.5533794121e-01 3.3993356770e-01 -4.4975732655e-20)	(2.2081945017e-02 -3.3821857517e-03 -3.0332494849e-22)
2.5000000000e+01	(1.7621929441e-01 3.3432649801e-01 -4.1946064556e-20)	(1.5437211953e-01 3.3769142983e-01 -4.1646169842e-20)	(2.1847174884e-02 -3.3649318248e-03 -2.9989471429e-22)
2.6000000000e+01	(1.7474798308e-01 3.3773830830e-01 -3.9052065851e-20)	(1.5312910528e-01 3.4108611908e-01 -3.8759693414e-20)	(2.1618877808e-02 -3.3478107767e-03 -2.9237243778e-22)
2.7000000000e+01	(1.7333968011e-01 3.3849970083e-01 -3.6335695158e-20)	(1.5194410035e-01 3.4182985899e-01 -3.6045537886e-20)	(2.1395579762e-02 -3.3301581531e-03 -2.9015727118e-22)
2.8000000000e+01	(1.7283485882e-01 3.4127031314e-01 -3.4811847573e-20)	(1.5165741313e-01 3.4458234043e-01 -3.4523570986e-20)	(2.1177445697e-02 -3.3120272887e-03 -2.8827658709e-22)
2.9000000000e+01	(1.7205125947e-01 3.4435157747e-01 -3.2531054868e-20)	(1.5108615920e-01 3.4764523058e-01 -3.2239460643e-20)	(2.0965100267e-02 -3.2936531074e-03 -2.9159422425e-22)
3.0000000000e+01	(1.7120951048e-01 3.4701424526e-01 -3.1382307693e-20)	(1.5045033768e-01 3.5028886029e-01 -3.1088126599e-20)	(2.0759172804e-02 -3.2746150264e-03 -2.9418109458e-22)
3.1000000000e+01	(1.7060322038e-01 3.5118499774e-01 -2.9660485054e-20)	(1.5004444743e-01 3.5444008301e-01 -2.9370380577e-20)	(2.0558772944e-02 -3.2550852746e-03 -2.9010447713e-22)
3.2000000000e+01	(1.6987897761e-01 3.5438711372e-01 -2.7868625962e-20)	(1.4951572606e-01 3.5762241470e-01 -2.7574726465e-20)	(2.0363251555e-02 -3.2353009771e-03 -2.9389949706e-22)
3.3000000000e+01	(1.6937638490e-01 3.5743547081e-01 -2.6559282277e-20)	(1.4920304468e-01 3.6065079554e-01 -2.6275084253e-20)	(2.0173340227e-02 -3.2153247287e-03 -2.8419802395e-22)
3.4000000000e+01	(1.6845096610e-01 3.5964736306e-01 -2.5355306916e-20)	(1.4846200083e-01 3.6284233175e-01 -2.5083432725e-20)	(1.9988965272e-02 -3.1949686875e-03 -2.7187419163e-22)
3.5000000000e+01	(1.6820742191e-01 3.6129593399e-01 -2.4916159007e-20)	(1.4839745869e-01 3.6447054416e-01 -2.4655880666e-20)	(1.9809963212e-02 -3.1746101676e-03 -2.6027834138e-22)
3.6000000000e+01	(1.6727733587e-01 3.6345061483e-01 -2.3833115341e-20)	(1.4764113232e-01 3.6660481397e-01 -2.3592084412e-20)	(1.9636203553e-02 -3.1541991429e-03 -2.4103092972e-22)
3.7000000000e+01	(1.6677398091e-01 3.6518344358e-01 -2.3005559948e-20)	(1.4730603528e-01 3.6831745904e-01 -2.2771999856e-20)	(1.9467945631e-02 -3.1340154599e-03 -2.3356009202e-22)
3.8000000000e+01	(1.6579226727e-01 3.6718437711e-01 -2.2073096018e-20)	(1.4648745442e-01 3.7029815024e-01 -2.1849791833e-20)	(1.9304812845e-02 -3.1137731311e-03 -2.2330418504e-22)
3.9000000000e+01	(1.6551018688e-01 3.6867511257e-01 -2.1327512123e-20)	(1.4636383881e-01 3.7176843358e-01 -2.1112832230e-20)	(1.9146348066e-02 -3.0933210068e-03 -2.1467989303e-22)
4.0000000000e+01	(1.6508339882e-01 3.7047647792e-01 -2.0681284962e-20)	(1.4609148679e-01 3.7354966240e-01 -2.0479001721e-20)	(1.8991912033e-02 -3.0731844839e-03 -2.0228324088e-22)
4.1000000000e+01	(1.6478650487e-01 3.7214305624e-01 -2.0235462866e-20)	(1.4594473569e-01 3.7519638202e-01 -2.0047877893e-20)	(1.8841769187e-02 -3.0533257834e-03 -1.8758497313e-22)
4.2000000000e+01	(1.6442239662e-01 3.7391001093e-01 -1.9740505531e-20)	(1.4572692259e-01 3.7694376147e-01 -1.9562478236e-20)	(1.8695474034e-02 -3.0337505442e-03 -1.7802729518e-22)
4.3000000000e+01	(1.6401812132e-01 3.7516864250e-01 -1.9238100384e-20)	(1.4546573677e-01 3.7818331442e-01 -1.9066433862e-20)	(1.8552384553e-02 -3.0146719234e-03 -1.7166652189e-22)
4.4000000000e+01	(1.6374929909e-01 3.7611216021e-01 -1.8884322845e-20)	(1.4533665680e-01 3.7910796102e-01 -1.8723035931e-20)	(1.8412642290e-02 -2.9958008164e-03 -1.6128691397e-22)
4.5000000000e+01	(1.6346180216e-01 3.7780554304e-01 -1.8561670022e-20)	(1.4518546127e-01 3.8078274975e-01 -1.8412147104e-20)	(1.8276340885e-02 -2.9772067128e-03 -1.4952291730e-22)
4.6000000000e+01	(1.6326408881e-01 3.7938562176e-01 -1.8229805213e-20)	(1.4512047871e-01 3.8234441623e-01 -1.8093265823e-20)	(1.8143610100e-02 -2.9587944730e-03 -1.3653939077e-22)
4.7000000000e+01	(1.6304745644e-01 3.8059742839e-01 -1.7973122533e-20)	(1.4503306438e-01 3.8353817305e-01 -1.7848513733e-20)	(1.8014392065e-02 -2.9407446666e-03 -1.2460880045e-22)
4.8000000000e+01	(1.6297320963e-01 3.8228941497e-01 -1.7866972256e-20)	(1.4508465225e-01 3.8521245892e-01 -1.7757582765e-20)	(1.7888557376e-02 -2.9230439555e-03 -1.0938949104e-22)
4.9000000000e+01	(1.6251870312e-01 3.8279378269e-01 -1.7854739993e-20)	(1.4475294154e-01 3.8569969857e-01 -1.7742513143e-20)	(1.7765761584e-02 -2.9059158761e-03 -1.1222685059e-22)
5.0000000000e+01	(1.6270997454e-01 3.8518316050e-01 -1.7837337811e-20)	(1.4506406650e-01 3.8807242882e-01 -1.7726567289e-20)	(1.7645908043e-02 -2.8892683258e-03 -1.1077052247e-22)
5.1000000000e+01	(1.6250381851e-01 3.8605272030e-01 -1.7886066951e-20)	(1.4497479665e-01 3.8892584770e-01 -1.7777107457e-20)	(1.7529021857e-02 -2.8731274053e-03 -1.0895949473e-22)
5.2000000000e+01	(1.6227323478e-01 3.8709767306e-01 -1.7941868154e-20)	(1.4485839608e-01 3.8995525198e-01 -1.7836990575e-20)	(1.7414838700e-02 -2.8575789194e-03 -1.0487757875e-22)
5.3000000000e+01	(1.6229543860e-01 3.8872713418e-01 -1.8011893552e-20)	(1.4499204038e-01 3.9156977840e-01 -1.7910503986e-20)	(1.7303398225e-02 -2.8426442223e-03 -1.0138956642e-22)
5.4000000000e+01	(1.6224052077e-01 3.9016554200e-01 -1.8174373071e-20)	(1.4504592689e-01 3.9299388268e-01 -1.8077450835e-20)	(1.7194593879e-02 -2.8283406842e-03 -9.6922236546e-23)
5.5000000000e+01	(1.6223429288e-01 3.9168607528e-01 -1.8284176070e-20)	(1.4514590908e-01 3.9450071495e-01 -1.8192351043e-20)	(1.7088383804e-02 -2.8146396690e-03 -9.1825027051e-23)
5.6000000000e+01	(1.6223038048e-01 3.9286151851e-01 -1.8570564925e-20)	(1.4524568892e-01 3.9566318312e-01 -1.8465793100e-20)	(1.6984691558e-02 -2.8016646045e-03 -1.0477182503e-22)
5.7000000000e+01	(1.6212196842e-01 3.9343062157e-01 -1.8788935789e-20)	(1.4523847048e-01 3.9621998867e-01 -1.8672526254e-20)	(1.6883497942e-02 -2.7893671004e-03 -1.1640953450e-22)
5.8000000000e+01	(1.6199008387e-01 3.9442385474e-01 -1.9069917229e-20)	(1.4520539919e-01 3.9720142022e-01 -1.8944061005e-20)	(1.6784684678e-02 -2.7775654817e-03 -1.2585622403e-22)
5.9000000000e+01	(1.6193042107e-01 3.9524082703e-01 -1.9369739859e-20)	(1.4524224772e-01 3.9800702956e-01 -1.9234226113e-20)	(1.6688173351e-02 -2.7662025258e-03 -1.3551374619e-22)
6.0000000000e+01	(1.6181406357e-01 3.9597506176e-01 -1.9628637500e-20)	(1.4522017990e-01 3.9873019532e-01 -1.9484377442e-20)	(1.6593883670e-02 -2.7551335531e-03 -1.4426005805e-22)
6.1000000000e+01	(1.6172855591e-01 3.9685984955e-01 -1.9907542526e-20)	(1.4522685961e-01 3.9960422675e-01 -1.9754910031e-20)	(1.6501696306e-02 -2.7443771992e-03 -1.5263249468e-22)
6.2000000000e+01	(1.6165676870e-01 3.9759288784e-01 -2.0196895642e-20)	(1.4524524403e-01 4.0032686777e-01 -2.0036213605e-20)	(1.6411524671e-02 -2.7339799334e-03 -1.6068203683e-22)
6.3000000000e+01	(1.6180697964e-01 3.9887423681e-01 -2.0497266787e-20)	(1.4548369994e-01 4.0159819313e-01 -2.0328897268e-20)	(1.6323279704e-02 -2.7239563180e-03 -1.6836951858e-22)
6.4000000000e+01	(1.6158239267e-01 3.9896099881e-01 -2.0768566865e-20)	(1.4534544445e-01 4.0167530208e-01 -2.0593011170e-20)	(1.6236948226e-02 -2.7143032752e-03 -1.7555569451e-22)
6.5000000000e+01	(1.6156243181e-01 3.9975877792e-01 -2.1066618934e-20)	(1.4541000230e-01 4.0246378421e-01 -2.0883996438e-20)	(1.6152429519e-02 -2.7050062945e-03 -1.8262249537e-22)
6.6000000000e+01	(1.6162548482e-01 4.0049563136e-01 -2.1296967371e-20)	(1.4555580389e-01 4.0319168281e-01 -2.1107756960e-20)	(1.6069680936e-02 -2.6960514463e-03 -1.8921041110e-22)
6.7000000000e+01	(1.6154305577e-01 4.0135929977e-01 -2.1542198148e-20)	(1.4555443092e-01 4.0404675034e-01 -2.1346824688e-20)	(1.5988624850e-02 -2.6874505740e-03 -1.9537346018e-22)
6.8000000000e+01	(1.6156760758e-01 4.0175677131e-01 -2.1789072580e-20)	(1.4565839506e-01 4.0443593589e-01 -2.1588664491e-20)	(1.5909212515e-02 -2.6791645804e-03 -2.0040808857e-22)
6.9000000000e+01	(1.6154518733e-01 4.0243378421e-01 -2.2024309695e-20)	(1.4571379729e-01 4.0510494212e-01 -2.1819825261e-20)	(1.5831390042e-02 -2.6711579157e-03 -2.0448443381e-22)
7.0000000000e+01	(1.6149001317e-01 4.0271266872e-01 -2.2256831500e-20)	(1.4573487054e-01 4.0537602309e-01 -2.2049830520e-20)	(1.5755142627e-02 -2.6633543683e-03 -2.0700097951e-22)
7.1000000000e+01	(1.6139756045e-01 4.0317864537e-01 -2.2502904623e-20)	(1.4571709992e-01 4.0583443568e-01 -2.2285915803e-20)	(1.5680460526e-02 -2.6557903105e-03 -2.1698881989e-22)
7.2000000000e+01	(1.6143684040e-01 4.0372218053e-01 -2.2651158642e-20)	(1.4582963627e-01 4.0637055026e-01 -2.2423913812e-20)	(1.5607204128e-02 -2.6483697232e-03 -2.2724482926e-22)
7.3000000000e+01	(1.6137849675e-01 4.0415055974e-01 -2.2847196673e-20)	(1.4584308339e-01 4.0679169954e-01 -2.2610642553e-20)	(1.5535413364e-02 -2.6411398061e-03 -2.3655412029e-22)
7.4000000000e+01	(1.6145319300e-01 4.0478064014e-01 -2.3003659336e-20)	(1.4598820143e-01 4.0741465980e-01 -2.2758350262e-20)	(1.5464991577e-02 -2.6340196590e-03 -2.4530907342e-22)
7.5000000000e+01	(1.6130775275e-01 4.0477958286e-01 -2.3159761729e-20)	(1.4591177367e-01 4.0740663900e-01 -2.2906545495e-20)	(1.5395979076e-02 -2.6270561455e-03 -2.5321623436e-22)
7.6000000000e+01	(1.6127347519e-01 4.0504209393e-01 -2.3330370778e-20)	(1.4594514076e-01 4.0766230341e-01 -2.3069668186e-20)	(1.5328334424e-02 -2.6202094808e-03 -2.6070259208e-22)
7.7000000000e+01	(1.6122232001e-01 4.0532093884e-01 -2.3462464456e-20)	(1.4596030419e-01 4.0793439899e-01 -2.3197622337e-20)	(1.5262015814e-02 -2.6134601502e-03 -2.6484211954e-22)
7.8000000000e+01	(1.6114477079e-01 4.0545400927e-01 -2.3534472441e-20)	(1.4594779590e-01 4.0806083932e-01 -2.3270297955e-20)	(1.5196974892e-02 -2.6068300488e-03 -2.6417448615e-22)
7.9000000000e+01	(1.6105975969e-01 4.0566493687e-01 -2.3638715137e-20)	(1.4592658554e-01 4.0826523794e-01 -2.3375138415e-20)	(1.5133174155e-02 -2.6003010671e-03 -2.6357672224e-22)
8.0000000000e+01	(1.6098590786e-01 4.0580170708e-01 -2.3717033383e-20)	(1.4591535905e-01 4.0839561498e-01 -2.3453926898e-20)	(1.5070548808e-02 -2.5939078977e-03 -2.6310648540e-22)
8.1000000000e+01	(1.6090555036e-01 4.0595852056e-01 -2.3810200630e-20)	(1.4589645058e-01 4.0854614206e-01 -2.3547788663e-20)	(1.5009099787e-02 -2.5876215033e-03 -2.6241196716e-22)
8.2000000000e+01	(1.6086183773e-01 4.0613642802e-01 -2.3867106011e-20)	(1.4591306549e-01 4.0871785218e-01 -2.3605264363e-20)	(1.4948772236e-02 -2.5814241649e-03 -2.6184164801e-22)
8.3000000000e+01	(1.6082089546e-01 4.0640548895e-01 -2.3938390254e-20)	(1.4593134885e-01 4.0898081167e-01 -2.3677324719e-20)	(1.4889546611e-02 -2.5753227230e-03 -2.6106553526e-22)
8.4000000000e+01	(1.6070087327e-01 4.0653748948e-01 -2.3964488360e-20)	(1.4586947233e-01 4.0910681363e-01 -2.3704209320e-20)	(1.4831400937e-02 -2.5693241507e-03 -2.6027903991e-22)
8.5000000000e+01	(1.6071273847e-01 4.0694704560e-01 -2.4002283191e-20)	(1.4593844780e-01 4.0951046260e-01 -2.3742953881e-20)	(1.4774290667e-02 -2.5634169952e-03 -2.5932930993e-22)
8.6000000000e+01	(1.6069706506e-01 4.0722846142e-01 -2.4045731831e-20)	(1.4597890002e-01 4.0978606206e-01 -2.3787245516e-20)	(1.4718165042e-02 -2.5576006426e-03 -2.5848631534e-22)
8.7000000000e+01	(1.6069440064e-01 4.0769541338e-01 -2.4048447419e-20)	(1.4603138634e-01 4.1024729472e-01 -2.3790965159e-20)	(1.4663014299e-02 -2.5518813457e-03 -2.5748225958e-22)
8.8000000000e+01	(1.6063971756e-01 4.0779969512e-01 -2.4029870200e-20)	(1.4603089500e-01 4.1034594076e-01 -2.3773252948e-20)	(1.4608822557e-02 -2.5462456351e-03 -2.5661725279e-22)
8.9000000000e+01	(1.6065791622e-01 4.0828835484e-01 -2.4041406673e-20)	(1.4610237304e-01 4.1082906516e-01 -2.3785878197e-20)	(1.4555543181e-02 -2.5407103237e-03 -2.5552847594e-22)
9.0000000000e+01	(1.6072304710e-01 4.0888765248e-01 -2.4025308833e-20)	(1.4621989552e-01 4.1142291754e-01 -2.3770808656e-20)	(1.4503151583e-02 -2.5352650565e-03 -2.5450017694e-22)
9.1000000000e+01	(1.6062562399e-01 4.0900556304e-01 -2.4021247850e-20)	(1.4617385281e-01 4.1153545933e-01 -2.3767856238e-20)	(1.4451771183e-02 -2.5298962908e-03 -2.5339161225e-22)
9.2000000000e+01	(1.6062255867e-01 4.0928945752e-01 -2.4033190264e-20)	(1.4622155826e-01 4.1181384154e-01 -2.3780967397e-20)	(1.4401000409e-02 -2.5243840214e-03 -2.5222286732e-22)
9.3000000000e+01	(1.6056508976e-01 4.0954890855e-01 -2.4043111435e-20)	(1.4621407876e-01 4.1206769143e-01 -2.3792166581e-20)	(1.4351011004e-02 -2.5187828794e-03 -2.5094485395e-22)
9.4000000000e+01	(1.6055370489e-01 4.0991098565e-01 -2.4021611884e-20)	(1.4625190383e-01 4.1242411078e-01 -2.3771647066e-20)	(1.4301801060e-02 -2.5131251260e-03 -2.4996481841e-22)
9.5000000000e+01	(1.6054058775e-01 4.1016025141e-01 -2.4014542063e-20)	(1.4628720868e-01 4.1266768733e-01 -2.3765430351e-20)	(1.4253379069e-02 -2.5074359197e-03 -2.4911171198e-22)
9.6000000000e+01	(1.6050554286e-01 4.1044247897e-01 -2.3996296206e-20)	(1.4629980689e-01 4.1294421051e-01 -2.3748001747e-20)	(1.4205735968e-02 -2.5017315334e-03 -2.4829445874e-22)
9.7000000000e+01	(1.6053804551e-01 4.1093965358e-01 -2.3979948592e-20)	(1.4637922239e-01 4.1343567439e-01 -2.3732402975e-20)	(1.4158823122e-02 -2.4960208174e-03 -2.4754561784e-22)
9.8000000000e+01	(1.6059465979e-01 4.1148985362e-01 -2.3959559329e-20)	(1.4648205032e-01 4.1398016725e-01 -2.3712665088e-20)	(1.4112609462e-02 -2.4903136225e-03 -2.4689424056e-22)
9.9000000000e+01	(1.6067471685e-01 4.1214415289e-01 -2.3941791164e-20)	(1.4660768309e-01 4.1462877441e-01 -2.3695519997e-20)	(1.4067033754e-02 -2.4846215164e-03 -2.4627116752e-22)
1.0000000000e+02	(1.6073276321e-01 4.1265293387e-01 -2.3919213024e-20)	(1.4671068368e-01 4.1513190644e-01 -2.3673496344e-20)	(1.4022079528e-02 -2.4789725710e-03 -2.4571668055e-22)
1.0100000000e+02	(1.6078904346e-01 4.1317222021e-01 -2.3881110944e-20)	(1.4681132117e-01 4.1564557259e-01 -2.3635678839e-20)	(1.3977722290e-02 -2.4733523754e-03 -2.4543210503e-22)
1.0200000000e+02	(1.6086469882e-01 4.1374414604e-01 -2.3849806158e-20)	(1.4693064239e-01 4.1621189079e-01 -2.3604755033e-20)	(1.3934056431e-02 -2.4677447468e-03 -2.4505112509e-22)
1.0300000000e+02	(1.6085951842e-01 4.1396254609e-01 -2.3848153904e-20)	(1.4696866089e-01 4.1642460513e-01 -2.3603278158e-20)	(1.3890857533e-02 -2.4620590406e-03 -2.4487574560e-22)
1.0400000000e+02	(1.6088100005e-01 4.1432948807e-01 -2.3852003200e-20)	(1.4703278923e-01 4.1678585637e-01 -2.3607322792e-20)	(1.3848210828e-02 -2.4563683037e-03 -2.4468040820e-22)
1.0500000000e+02	(1.6089308027e-01 4.1465940039e-01 -2.3842992639e-20)	(1.4708695170e-01 4.1711005211e-01 -2.3598379866e-20)	(1.3806128573e-02 -2.4506517212e-03 -2.4461277301e-22)
1.0600000000e+02	(1.6095550697e-01 4.1514200675e-01 -2.3820660193e-20)	(1.4719090743e-01 4.1758692118e-01 -2.3576041228e-20)	(1.3764599541e-02 -2.4449144335e-03 -2.4461896502e-22)
1.0700000000e+02	(1.6097447790e-01 4.1549330202e-01 -2.3812512108e-20)	(1.4725086825e-01 4.1793245634e-01 -2.3567909822e-20)	(1.3723609647e-02 -2.4391543201e-03 -2.4460228530e-22)
1.0800000000e+02	(1.6106252346e-01 4.1599085560e-01 -2.3827445266e-20)	(1.4737935478e-01 4.1842425080e-01 -2.3582698054e-20)	(1.3683168676e-02 -2.4333952029e-03 -2.4474721215e-22)
1.0900000000e+02	(1.6113741089e-01 4.1656161041e-01 -2.3829940772e-20)	(1.4749416810e-01 4.1898923235e-01 -2.3585056383e-20)	(1.3643242790e-02 -2.4276219410e-03 -2.4488438928e-22)
1.1000000000e+02	(1.6112399868e-01 4.1686381574e-01 -2.3833971084e-20)	(1.4752019388e-01 4.1928566989e-01 -2.3588808429e-20)	(1.3603804802e-02 -2.4218541517e-03 -2.4516265542e-22)
1.1100000000e+02	(1.6121975692e-01 4.1743802270e-01 -2.3845043447e-20)	(1.4765494942e-01 4.1985410663e-01 -2.3599671238e-20)	(1.3564807491e-02 -2.4160839251e-03 -2.4537220992e-22)
1.1200000000e+02	(1.6127790160e-01 4.1799980805e-01 -2.3864626697e-20)	(1.4775156999e-01 4.2041012715e-01 -2.3618697803e-20)	(1.3526331607e-02 -2.4103190979e-03 -2.4592889454e-22)
1.1300000000e+02	(1.6132974879e-01 4.1842862200e-01 -2.3898945091e-20)	(1.4784143288e-01 4.2083312927e-01 -2.3653718386e-20)	(1.3488315912e-02 -2.4045072637e-03 -2.4522670480e-22)
1.1400000000e+02	(1.6138106156e-01 4.1870783297e-01 -2.3931878875e-20)	(1.4793032181e-01 4.2110647370e-01 -2.3686795803e-20)	(1.3450739746e-02 -2.3986407239e-03 -2.4508307192e-22)
1.1500000000e+02	(1.6144689171e-01 4.1920691736e-01 -2.3957026739e-20)	(1.4803327544e-01 4.2159967434e-01 -2.3712014661e-20)	(1.3413616272e-02 -2.3927569813e-03 -2.4501207723e-22)
1.1600000000e+02	(1.6152384950e-01 4.1969539090e-01 -2.3979433876e-20)	(1.4814691256e-01 4.2208224700e-01 -2.3734336495e-20)	(1.3376936939e-02 -2.3868560977e-03 -2.4509738095e-22)
1.1700000000e+02	(1.6156226173e-01 4.2010361570e-01 -2.4027085078e-20)	(1.4822157023e-01 4.2248456920e-01 -2.3781771043e-20)	(1.3340691495e-02 -2.3809535073e-03 -2.4531403507e-22)
1.1800000000e+02	(1.6166249686e-01 4.2068557471e-01 -2.4056739785e-20)	(1.4835763279e-01 4.2306063374e-01 -2.3811205822e-20)	(1.3304864075e-02 -2.3750590304e-03 -2.4553396234e-22)
1.1900000000e+02	(1.6172858929e-01 4.2118942918e-01 -2.4101786585e-20)	(1.4845914886e-01 4.2355860655e-01 -2.3855963445e-20)	(1.3269440429e-02 -2.3691773767e-03 -2.4582313990e-22)
1.2000000000e+02	(1.6181862069e-01 4.2179660196e-01 -2.4144968539e-20)	(1.4858421155e-01 4.2415990700e-01 -2.3898941384e-20)	(1.3234409145e-02 -2.3633050376e-03 -2.4602715526e-22)
1.2100000000e+02	(1.6188874887e-01 4.2231595791e-01 -2.4188069612e-20)	(1.4868898052e-01 4.2467339986e-01 -2.3941763289e-20)	(1.3199768348e-02 -2.3574419528e-03 -2.4630632257e-22)
1.2200000000e+02	(1.6194825547e-01 4.2277133408e-01 -2.4231668572e-20)	(1.4878274677e-01 4.2512292442e-01 -2.3985106023e-20)	(1.3165508703e-02 -2.3515903477e-03 -2.4656254901e-22)
1.2300000000e+02	(1.6203992981e-01 4.2336783082e-01 -2.4285432491e-20)	(1.4890830520e-01 4.2571358600e-01 -2.4038638560e-20)	(1.3131624608e-02 -2.3457551885e-03 -2.4679393043e-22)
1.2400000000e+02	(1.6210861670e-01 4.2384682484e-01 -2.4344602862e-20)	(1.4901051369e-01 4.2618676396e-01 -2.4097607917e-20)	(1.3098103016e-02 -2.3399391215e-03 -2.4699494558e-22)
1.2500000000e+02	(1.6220008650e-01 4.2444291769e-01 -2.4395920251e-20)	(1.4913514450e-01 4.2677705685e-01 -2.4148739075e-20)	(1.3064941997e-02 -2.3341391640e-03 -2.4718117605e-22)
1.2600000000e+02	(1.6230245011e-01 4.2504745046e-01 -2.4464765724e-20)	(1.4927031915e-01 4.2737581071e-01 -2.4217464182e-20)	(1.3032130954e-02 -2.3283602514e-03 -2.4730154248e-22)
1.2700000000e+02	(1.6237977553e-01 4.2556472386e-01 -2.4533241166e-20)	(1.4938010839e-01 4.2788733009e-01 -2.4285750627e-20)	(1.2999667140e-02 -2.3226062374e-03 -2.4749053913e-22)
1.2800000000e+02	(1.6244106372e-01 4.2602701771e-01 -2.4599301221e-20)	(1.4947351439e-01 4.2834389757e-01 -2.4351621235e-20)	(1.2967549328e-02 -2.3168798621e-03 -2.4767998625e-22)
1.2900000000e+02	(1.6251377911e-01 4.2655326927e-01 -2.4670479603e-20)	(1.4957800416e-01 4.2886444473e-01 -2.4422647626e-20)	(1.2935774945e-02 -2.3111754621e-03 -2.4783197653e-22)
1.3000000000e+02	(1.6257405527e-01 4.2700830289e-01 -2.4743806678e-20)	(1.4966971794e-01 4.2931379554e-01 -2.4495786870e-20)	(1.2904337329e-02 -2.3054926565e-03 -2.4801980775e-22)
1.3100000000e+02	(1.6265428432e-01 4.2753814726e-01 -2.4825531960e-20)	(1.4978105683e-01 4.2983797924e-01 -2.4577369655e-20)	(1.2873227488e-02 -2.2998319832e-03 -2.4816230472e-22)
1.3200000000e+02	(1.6274482256e-01 4.2808382477e-01 -2.4897764993e-20)	(1.4990237845e-01 4.3037801516e-01 -2.4649487095e-20)	(1.2842444106e-02 -2.2941903851e-03 -2.4827789824e-22)
1.3300000000e+02	(1.6280472698e-01 4.2861390677e-01 -2.4975672105e-20)	(1.4999274237e-01 4.3090247688e-01 -2.4727279034e-20)	(1.2811984607e-02 -2.2885701096e-03 -2.4839307177e-22)
1.3400000000e+02	(1.6288386405e-01 4.2912965789e-01 -2.5047778979e-20)	(1.5010202251e-01 4.3141262973e-01 -2.4799216352e-20)	(1.2781841547e-02 -2.2829718475e-03 -2.4856262699e-22)
1.3500000000e+02	(1.6294335689e-01 4.2963027959e-01 -2.5121451073e-20)	(1.5019134456e-01 4.3190768189e-01 -2.4872797180e-20)	(1.2752012323e-02 -2.2774023030e-03 -2.4865389289e-22)
1.3600000000e+02	(1.6302936653e-01 4.3020205977e-01 -2.5195335424e-20)	(1.5030687292e-01 4.3247392048e-01 -2.4946537418e-20)	(1.2722493603e-02 -2.2718607032e-03 -2.4879800645e-22)
1.3700000000e+02	(1.6309504374e-01 4.3071890339e-01 -2.5279246190e-20)	(1.5040176633e-01 4.3298525029e-01 -2.5030354867e-20)	(1.2693277412e-02 -2.2663468947e-03 -2.4889132298e-22)
1.3800000000e+02	(1.6318857473e-01 4.3131094454e-01 -2.5363152728e-20)	(1.5052421706e-01 4.3357180436e-01 -2.5114154405e-20)	(1.2664357671e-02 -2.2608598178e-03 -2.4899832224e-22)
1.3900000000e+02	(1.6326488937e-01 4.3183656611e-01 -2.5437962391e-20)	(1.5062915693e-01 4.3409195929e-01 -2.5188824739e-20)	(1.2635732441e-02 -2.2553931825e-03 -2.4913765117e-22)
1.4000000000e+02	(1.6334159650e-01 4.3237304978e-01 -2.5527328812e-20)	(1.5073420036e-01 4.3462300073e-01 -2.5278078603e-20)	(1.2607396134e-02 -2.2499509498e-03 -2.4925020871e-22)
1.4100000000e+02	(1.6342022093e-01 4.3291255320e-01 -2.5607791361e-20)	(1.5084087725e-01 4.3515708593e-01 -2.5358443317e-20)	(1.2579343681e-02 -2.2445327309e-03 -2.4934804351e-22)
1.4200000000e+02	(1.6350726462e-01 4.3348452980e-01 -2.5695536751e-20)	(1.5095569532e-01 4.3572367305e-01 -2.5446054001e-20)	(1.2551569299e-02 -2.2391432525e-03 -2.4948275008e-22)
1.4300000000e+02	(1.6360306226e-01 4.3407461986e-01 -2.5780019129e-20)	(1.5107899287e-01 4.3630839875e-01 -2.5530426938e-20)	(1.2524069392e-02 -2.2337788841e-03 -2.4959219034e-22)
1.4400000000e+02	(1.6367629633e-01 4.3460998421e-01 -2.5867504779e-20)	(1.5117945249e-01 4.3683841905e-01 -2.5617830342e-20)	(1.2496843845e-02 -2.2284348389e-03 -2.4967443711e-22)
1.4500000000e+02	(1.6376675527e-01 4.3519061586e-01 -2.5954546186e-20)	(1.5129686674e-01 4.3741373169e-01 -2.5704747554e-20)	(1.2469888530e-02 -2.2231158268e-03 -2.4979863197e-22)
1.4600000000e+02	(1.6384811154e-01 4.3573898238e-01 -2.6046748301e-20)	(1.5140491157e-01 4.3795680227e-01 -2.5796859583e-20)	(1.2443199968e-02 -2.2178198952e-03 -2.4988871865e-22)
1.4700000000e+02	(1.6392926849e-01 4.3628350266e-01 -2.6133214651e-20)	(1.5151249474e-01 4.3849605033e-01 -2.5883218566e-20)	(1.2416773750e-02 -2.2125476696e-03 -2.4999608560e-22)
1.4800000000e+02	(1.6401573842e-01 4.3682153570e-01 -2.6220862020e-20)	(1.5162513037e-01 4.3902883504e-01 -2.5970765969e-20)	(1.2390608051e-02 -2.2072993445e-03 -2.5009605137e-22)
1.4900000000e+02	(1.6409141311e-01 4.3737782461e-01 -2.6315117626e-20)	(1.5172671589e-01 4.3957990057e-01 -2.6064907161e-20)	(1.2364697222e-02 -2.2020759562e-03 -2.5021046505e-22)
1.5000000000e+02	(1.6417892649e-01 4.3792475434e-01 -2.6402528060e-20)	(1.5183988768e-01 4.4012163382e-01 -2.6152217779e-20)	(1.2339038811e-02 -2.1968794849e-03 -2.5031028071e-22)
1.5100000000e+02	(1.6426830441e-01 4.3847507032e-01 -2.6492986842e-20)	(1.5195467378e-01 4.4066677845e-01 -2.6242613246e-20)	(1.2313630625e-02 -2.1917081282e-03 -2.5037359578e-22)
1.5200000000e+02	(1.6435447933e-01 4.3902469176e-01 -2.6582885340e-20)	(1.5206600849e-01 4.4121125463e-01 -2.6332412509e-20)	(1.2288470843e-02 -2.1865628667e-03 -2.5047283071e-22)
1.5300000000e+02	(1.6441987213e-01 4.3951672337e-01 -2.6676033799e-20)	(1.5215629548e-01 4.4169817854e-01 -2.6425505148e-20)	(1.2263576651e-02 -2.1814551794e-03 -2.5052865159e-22)
1.5400000000e+02	(1.6451342910e-01 4.4005750679e-01 -2.6758943304e-20)	(1.5227447310e-01 4.4223390192e-01 -2.6508348908e-20)	(1.2238955998e-02 -2.1763951303e-03 -2.5059439584e-22)
1.5500000000e+02	(1.6458191131e-01 4.4054764838e-01 -2.6857302700e-20)	(1.5236734124e-01 4.4271901274e-01 -2.6606674084e-20)	(1.2214570075e-02 -2.1713643542e-03 -2.5062861565e-22)
1.5600000000e+02	(1.6465979004e-01 4.4104380229e-01 -2.6942878818e-20)	(1.5246937467e-01 4.4321016286e-01 -2.6692169487e-20)	(1.2190415377e-02 -2.1663605755e-03 -2.5070933012e-22)
1.5700000000e+02	(1.6473642338e-01 4.4157326356e-01 -2.7029715221e-20)	(1.5256993400e-01 4.4373464583e-01 -2.6779014987e-20)	(1.2166489379e-02 -2.1613822706e-03 -2.5070023371e-22)
1.5800000000e+02	(1.6479970268e-01 4.4201794891e-01 -2.7114050082e-20)	(1.5265691454e-01 4.4417438048e-01 -2.6863244156e-20)	(1.2142788138e-02 -2.1564315773e-03 -2.5080592554e-22)
1.5900000000e+02	(1.6487823816e-01 4.4251060589e-01 -2.7202466366e-20)	(1.5275893331e-01 4.4466210645e-01 -2.6951478212e-20)	(1.2119304845e-02 -2.1515005597e-03 -2.5098815345e-22)
1.6000000000e+02	(1.6494110234e-01 4.4298099858e-01 -2.7284017489e-20)	(1.5284506251e-01 4.4512758682e-01 -2.7032789481e-20)	(1.2096039829e-02 -2.1465882405e-03 -2.5122800782e-22)
1.6100000000e+02	(1.6499108118e-01 4.4339458177e-01 -2.7371771519e-20)	(1.5291808752e-01 4.4553628219e-01 -2.7120349185e-20)	(1.2072993659e-02 -2.1417004242e-03 -2.5142233415e-22)
1.6200000000e+02	(1.6504733258e-01 4.4382630195e-01 -2.7454680908e-20)	(1.5299716910e-01 4.4596314011e-01 -2.7203086908e-20)	(1.2050163482e-02 -2.1368381519e-03 -2.5159399986e-22)
1.6300000000e+02	(1.6511640635e-01 4.4431352428e-01 -2.7541362993e-20)	(1.5308886341e-01 4.4644552322e-01 -2.7289621054e-20)	(1.2027542937e-02 -2.1319989449e-03 -2.5174193902e-22)
1.6400000000e+02	(1.6517776597e-01 4.4474987267e-01 -2.7622953170e-20)	(1.5317263460e-01 4.4687705387e-01 -2.7371089466e-20)	(1.2005131363e-02 -2.1271811974e-03 -2.5186370420e-22)
1.6500000000e+02	(1.6521743880e-01 4.4515246550e-01 -2.7706255636e-20)	(1.5323451425e-01 4.4727485649e-01 -2.7454257038e-20)	(1.1982924556e-02 -2.1223909945e-03 -2.5199859743e-22)