# Moment         
# CofR           : (0.0000000000e+00 0.0000000000e+00 0.0000000000e+00)
#                
# Time           	(total_x total_y total_z)	(pressure_x pressure_y pressure_z)	(viscous_x viscous_y viscous_z)
1.0000000000e+00	(-2.7939583830e+01 1.4135958702e+01 2.2140854784e+03)	(-2.7939591695e+01 1.4135830271e+01 2.2140855706e+03)	(7.8657923581e-06 1.2843111966e-04 -9.2175768743e-05)
2.0000000000e+00	(8.7487105145e+00 -4.3827894911e+00 -6.9074334951e+02)	(8.7482829993e+00 -4.3826561743e+00 -6.9070961446e+02)	(4.2751516320e-04 -1.3331682225e-04 -3.3735056120e-02)
3.0000000000e+00	(-2.6925874776e+00 1.3173283335e+00 2.1186697824e+02)	(-2.6926492079e+00 1.3171946553e+00 2.1187096264e+02)	(6.1730275221e-05 1.3367822921e-04 -3.9843983900e-03)
4.0000000000e+00	(8.8909124250e-01 -4.3933910078e-01 -6.9982277004e+01)	(8.8899764720e-01 -4.3944154898e-01 -6.9975650240e+01)	(9.3595298720e-05 1.0244820662e-04 -6.6267636644e-03)
5.0000000000e+00	(-2.9826535915e-01 1.4304460932e-01 2.3091891164e+01)	(-2.9832276653e-01 1.4292604305e-01 2.3095614840e+01)	(5.7407387437e-05 1.1856626986e-04 -3.7236754089e-03)
6.0000000000e+00	(1.0120542123e-01 -4.9833933957e-02 -7.9427732140e+00)	(1.0115922420e-01 -4.9954207795e-02 -7.9398224086e+00)	(4.6197028568e-05 1.2027383766e-04 -2.9508054520e-03)
7.0000000000e+00	(-3.1302373349e-02 1.5053364859e-02 2.3092653420e+00)	(-3.1337815305e-02 1.4929540459e-02 2.3114189100e+00)	(3.5441956199e-05 1.2382439972e-04 -2.1535680339e-03)
8.0000000000e+00	(1.2202828472e-02 -5.8690138998e-03 -1.0130237651e+00)	(1.2173256451e-02 -5.9942207224e-03 -1.0112954436e+00)	(2.9572020802e-05 1.2520682268e-04 -1.7283214482e-03)
9.0000000000e+00	(-3.2971819262e-03 1.7666351287e-03 1.7992311205e-01)	(-3.3228201223e-03 1.6406028829e-03 1.8136037660e-01)	(2.5638196146e-05 1.2603224586e-04 -1.4372645535e-03)
1.0000000000e+01	(9.7359884841e-04 -3.2098000349e-04 -1.4073982251e-01)	(9.5049486003e-04 -4.4717575028e-04 -1.3948826488e-01)	(2.3103988380e-05 1.2619574679e-04 -1.2515576260e-03)
1.1000000000e+01	(-6.8004469979e-04 6.5592523575e-04 -7.8408277171e-03)	(-7.0144236551e-04 5.3004320191e-04 -6.7136046599e-03)	(2.1397665723e-05 1.2588203383e-04 -1.1272230572e-03)
1.2000000000e+01	(-5.1157234062e-04 5.7287354852e-04 -2.5360509591e-02)	(-5.3179847749e-04 4.4772826364e-04 -2.4313709007e-02)	(2.0226136864e-05 1.2514528488e-04 -1.0468005839e-03)
1.3000000000e+01	(-9.6009447323e-04 7.6555996687e-04 6.4449315749e-03)	(-9.7952107826e-04 6.4136884871e-04 7.4402384803e-03)	(1.9426605022e-05 1.2419111816e-04 -9.9530690539e-04)
1.4000000000e+01	(-1.1508962727e-03 8.0255218808e-04 2.2907315905e-02)	(-1.1697514387e-03 6.7946591216e-04 2.3867106534e-02)	(1.8855166002e-05 1.2308627593e-04 -9.5979062922e-04)
1.5000000000e+01	(-1.3420783575e-03 8.5918082644e-04 3.7807737252e-02)	(-1.3604938905e-03 7.3729162874e-04 3.8741524311e-02)	(1.8415533019e-05 1.2188919770e-04 -9.3378705911e-04)
1.6000000000e+01	(-1.3956479830e-03 8.5320753153e-04 4.2467389551e-02)	(-1.4137334390e-03 7.3258997520e-04 4.3381963191e-02)	(1.8085456040e-05 1.2061755633e-04 -9.1457364040e-04)
1.7000000000e+01	(-1.4638018367e-03 8.5607038013e-04 4.7880464311e-02)	(-1.4816252522e-03 7.3676528336e-04 4.8779773938e-02)	(1.7823415529e-05 1.1930509677e-04 -8.9930962663e-04)
1.8000000000e+01	(-1.5694255376e-03 8.6771526787e-04 5.5675091358e-02)	(-1.5870359846e-03 7.4973864941e-04 5.6561691001e-02)	(1.7610447005e-05 1.1797661846e-04 -8.8659964325e-04)
1.9000000000e+01	(-1.6282262450e-03 8.8127840536e-04 6.1309978983e-02)	(-1.6456699656e-03 7.6461857064e-04 6.2186358091e-02)	(1.7443720610e-05 1.1665983472e-04 -8.7637910807e-04)
2.0000000000e+01	(-1.6293549923e-03 8.8760364850e-04 6.3823614791e-02)	(-1.6466607080e-03 7.7224299559e-04 6.4691730201e-02)	(1.7305715722e-05 1.1536065291e-04 -8.6811540971e-04)
2.1000000000e+01	(-1.6616913004e-03 8.9728142725e-04 6.8298020116e-02)	(-1.6788788134e-03 7.8319785760e-04 6.9159322560e-02)	(1.7187512989e-05 1.1408356965e-04 -8.6130244396e-04)
2.2000000000e+01	(-1.6528707905e-03 8.9980134271e-04 6.9737198016e-02)	(-1.6699599034e-03 7.8696939091e-04 7.0593114113e-02)	(1.7089112821e-05 1.1283195180e-04 -8.5591609699e-04)
2.3000000000e+01	(-1.6590574884e-03 8.9668798857e-04 7.1822446947e-02)	(-1.6760579196e-03 7.8508091316e-04 7.2673779902e-02)	(1.7000431179e-05 1.1160707541e-04 -8.5133295419e-04)
2.4000000000e+01	(-1.6827569097e-03 8.8709943113e-04 7.3357435233e-02)	(-1.6996678385e-03 7.7668970605e-04 7.4204402624e-02)	(1.6910928758e-05 1.1040972509e-04 -8.4696739081e-04)
2.5000000000e+01	(-1.6716324900e-03 8.8109647207e-04 7.3960578034e-02)	(-1.6884571492e-03 7.7186059764e-04 7.4804002512e-02)	(1.6824659124e-05 1.0923587442e-04 -8.4342447807e-04)
2.6000000000e+01	(-1.6886915415e-03 8.7373991542e-04 7.5120985480e-02)	(-1.7054305954e-03 7.6564552638e-04 7.5961374042e-02)	(1.6739053884e-05 1.0809438904e-04 -8.4038856256e-04)
2.7000000000e+01	(-1.6924985042e-03 8.6669840054e-04 7.5886951148e-02)	(-1.7091492949e-03 7.5972050173e-04 7.6724517243e-02)	(1.6650790766e-05 1.0697789881e-04 -8.3756609562e-04)
2.8000000000e+01	(-1.7063515657e-03 8.6417429412e-04 7.7263351966e-02)	(-1.7229117021e-03 7.5828706564e-04 7.8098343707e-02)	(1.6560136443e-05 1.0588722849e-04 -8.3499174057e-04)
2.9000000000e+01	(-1.7217578873e-03 8.6025629735e-04 7.8752608647e-02)	(-1.7382261529e-03 7.5543079602e-04 7.9585207833e-02)	(1.6468265537e-05 1.0482550133e-04 -8.3259918643e-04)
3.0000000000e+01	(-1.7350712263e-03 8.5604755242e-04 7.9894425110e-02)	(-1.7514443014e-03 7.5225168840e-04 8.0724545940e-02)	(1.6373075132e-05 1.0379586402e-04 -8.3012083061e-04)
3.1000000000e+01	(-1.7559249887e-03 8.5301610189e-04 8.1368569852e-02)	(-1.7722004151e-03 7.5022223717e-04 8.2196197166e-02)	(1.6275426373e-05 1.0279386472e-04 -8.2762731427e-04)
3.2000000000e+01	(-1.7719355686e-03 8.4939488807e-04 8.2781874444e-02)	(-1.7881120735e-03 7.4757863030e-04 8.3606996130e-02)	(1.6176504885e-05 1.0181625777e-04 -8.2512168626e-04)
3.3000000000e+01	(-1.7871773541e-03 8.4688192452e-04 8.4074361001e-02)	(-1.8032539777e-03 7.4601522339e-04 8.4896820373e-02)	(1.6076623643e-05 1.0086670113e-04 -8.2245937204e-04)
3.4000000000e+01	(-1.7982368153e-03 8.4225483052e-04 8.4834678300e-02)	(-1.8142116587e-03 7.4231000416e-04 8.5654298082e-02)	(1.5974843437e-05 9.9944826360e-05 -8.1961978158e-04)
3.5000000000e+01	(-1.8064796699e-03 8.4103710953e-04 8.5753602995e-02)	(-1.8223527208e-03 7.4198729347e-04 8.6570183595e-02)	(1.5873050838e-05 9.9049816059e-05 -8.1658059970e-04)
3.6000000000e+01	(-1.8172530741e-03 8.3638667937e-04 8.6292174592e-02)	(-1.8330240699e-03 7.3820566160e-04 8.7105582717e-02)	(1.5770995714e-05 9.8181017763e-05 -8.1340812551e-04)
3.7000000000e+01	(-1.8259172179e-03 8.3386990453e-04 8.7048124664e-02)	(-1.8415872952e-03 7.3653017638e-04 8.7858324898e-02)	(1.5670077300e-05 9.7339728154e-05 -8.1020023386e-04)
3.8000000000e+01	(-1.8359218856e-03 8.2896133633e-04 8.7402454561e-02)	(-1.8514907512e-03 7.3243727210e-04 8.8209305279e-02)	(1.5568865655e-05 9.6524064226e-05 -8.0685071800e-04)
3.9000000000e+01	(-1.8433755629e-03 8.2755093438e-04 8.8154539992e-02)	(-1.8588421679e-03 7.3181919404e-04 8.8957840819e-02)	(1.5466605034e-05 9.5731740332e-05 -8.0330082762e-04)
4.0000000000e+01	(-1.8523823896e-03 8.2541699409e-04 8.8852255315e-02)	(-1.8677483120e-03 7.3045743393e-04 8.9651997068e-02)	(1.5365922420e-05 9.4959560163e-05 -7.9974175266e-04)
4.1000000000e+01	(-1.8607152812e-03 8.2393252437e-04 8.9545217138e-02)	(-1.8759819101e-03 7.2972367843e-04 9.0341379913e-02)	(1.5266628917e-05 9.4208845937e-05 -7.9616277448e-04)
4.2000000000e+01	(-1.8695500546e-03 8.2211198310e-04 9.0180096235e-02)	(-1.8847188074e-03 7.2863461293e-04 9.0972670963e-02)	(1.5168752721e-05 9.3477370169e-05 -7.9257472798e-04)
4.3000000000e+01	(-1.8758432125e-03 8.2009060662e-04 9.0708302916e-02)	(-1.8909165721e-03 7.2732868386e-04 9.1497358369e-02)	(1.5073359617e-05 9.2761922763e-05 -7.8905545301e-04)
4.4000000000e+01	(-1.8805608010e-03 8.1874649544e-04 9.1166629800e-02)	(-1.8955398051e-03 7.2668328399e-04 9.1952131222e-02)	(1.4979004082e-05 9.2063211448e-05 -7.8550142198e-04)
4.5000000000e+01	(-1.8890277152e-03 8.1730901079e-04 9.1784063953e-02)	(-1.9039137488e-03 7.2592730637e-04 9.2565982000e-02)	(1.4886033564e-05 9.1381704424e-05 -7.8191804662e-04)
4.6000000000e+01	(-1.8969281088e-03 8.1632044407e-04 9.2302468267e-02)	(-1.9117220812e-03 7.2560239357e-04 9.3080725652e-02)	(1.4793972365e-05 9.0718050500e-05 -7.7825738464e-04)
4.7000000000e+01	(-1.9029871419e-03 8.1523728220e-04 9.2859389024e-02)	(-1.9176908653e-03 7.2516532188e-04 9.3633964944e-02)	(1.4703723333e-05 9.0071960326e-05 -7.7457592048e-04)
4.8000000000e+01	(-1.9114470748e-03 8.1486604813e-04 9.3510038923e-02)	(-1.9260622946e-03 7.2542326125e-04 9.4280911087e-02)	(1.4615219778e-05 8.9442786878e-05 -7.7087216473e-04)
4.9000000000e+01	(-1.9139689135e-03 8.1259351561e-04 9.3743569905e-02)	(-1.9284984928e-03 7.2376470769e-04 9.4510802739e-02)	(1.4529579380e-05 8.8828807921e-05 -7.6723283414e-04)
5.0000000000e+01	(-1.9259158025e-03 8.1354987270e-04 9.4646233846e-02)	(-1.9403621441e-03 7.2532033249e-04 9.5409857354e-02)	(1.4446341629e-05 8.8229540215e-05 -7.6362350776e-04)
5.1000000000e+01	(-1.9302636015e-03 8.1251909256e-04 9.5091562039e-02)	(-1.9446292385e-03 7.2487398327e-04 9.5851616611e-02)	(1.4365637026e-05 8.7645109283e-05 -7.6005457124e-04)
5.2000000000e+01	(-1.9354883653e-03 8.1136617390e-04 9.5468705638e-02)	(-1.9497762599e-03 7.2429198040e-04 9.6225280422e-02)	(1.4287894597e-05 8.7074193500e-05 -7.5657478404e-04)
5.3000000000e+01	(-1.9436356709e-03 8.1147719301e-04 9.6100896917e-02)	(-1.9578488920e-03 7.2496020188e-04 9.6854097999e-02)	(1.4213221111e-05 8.6516991123e-05 -7.5320108244e-04)
5.4000000000e+01	(-1.9508277100e-03 8.1120260386e-04 9.6679154298e-02)	(-1.9649694134e-03 7.2522963446e-04 9.7429091455e-02)	(1.4141703421e-05 8.5972969397e-05 -7.4993715764e-04)
5.5000000000e+01	(-1.9584303764e-03 8.1117146440e-04 9.7227454045e-02)	(-1.9725035747e-03 7.2572954539e-04 9.7974242872e-02)	(1.4073198345e-05 8.5441919018e-05 -7.4678882725e-04)
5.6000000000e+01	(-1.9643075926e-03 8.1115190241e-04 9.7695712983e-02)	(-1.9783159156e-03 7.2622844462e-04 9.8439518878e-02)	(1.4008323023e-05 8.4923457788e-05 -7.4380589508e-04)
5.7000000000e+01	(-1.9671531079e-03 8.1060984209e-04 9.7989946755e-02)	(-1.9810999434e-03 7.2619235238e-04 9.8730901351e-02)	(1.3946835502e-05 8.4417489709e-05 -7.4095459571e-04)
5.8000000000e+01	(-1.9721192737e-03 8.0995041933e-04 9.8377600233e-02)	(-1.9860071011e-03 7.2602699594e-04 9.9115794193e-02)	(1.3887827409e-05 8.3923423392e-05 -7.3819395953e-04)
5.9000000000e+01	(-1.9762041352e-03 8.0965210535e-04 9.8739474273e-02)	(-1.9900351478e-03 7.2621123860e-04 9.9474981976e-02)	(1.3831012629e-05 8.3440866753e-05 -7.3550770267e-04)
6.0000000000e+01	(-1.9798753088e-03 8.0907031783e-04 9.9049661025e-02)	(-1.9936509766e-03 7.2610089949e-04 9.9782511079e-02)	(1.3775667765e-05 8.2969418348e-05 -7.3285005471e-04)
6.1000000000e+01	(-1.9842992478e-03 8.0864277956e-04 9.9444330741e-02)	(-1.9980211338e-03 7.2613429803e-04 1.0017456866e-01)	(1.3721885996e-05 8.2508481530e-05 -7.3023791792e-04)
6.2000000000e+01	(-1.9879644392e-03 8.0828384349e-04 9.9752561000e-02)	(-2.0016343389e-03 7.2622622013e-04 1.0048025578e-01)	(1.3669899667e-05 8.2057623355e-05 -7.2769478336e-04)
6.3000000000e+01	(-1.9943711841e-03 8.0903489822e-04 1.0033747381e-01)	(-2.0079909657e-03 7.2741849970e-04 1.0106270279e-01)	(1.3619781590e-05 8.1616398520e-05 -7.2522898373e-04)
6.4000000000e+01	(-1.9948049940e-03 8.0791196337e-04 1.0043352736e-01)	(-2.0083765104e-03 7.2672722224e-04 1.0115637010e-01)	(1.3571516376e-05 8.1184741132e-05 -7.2284274308e-04)
6.5000000000e+01	(-1.9987938896e-03 8.0781215907e-04 1.0082447252e-01)	(-2.0123189211e-03 7.2705001148e-04 1.0154501485e-01)	(1.3525031473e-05 8.0762147596e-05 -7.2054232948e-04)
6.6000000000e+01	(-2.0024781568e-03 8.0812742412e-04 1.0122355203e-01)	(-2.0159584141e-03 7.2777901944e-04 1.0194188503e-01)	(1.3480257232e-05 8.0348404680e-05 -7.1833300350e-04)
6.7000000000e+01	(-2.0067964988e-03 8.0771527887e-04 1.0160006989e-01)	(-2.0202337517e-03 7.2777215462e-04 1.0231629622e-01)	(1.3437252870e-05 7.9943124252e-05 -7.1622632635e-04)
6.8000000000e+01	(-2.0087838566e-03 8.0783803788e-04 1.0188343221e-01)	(-2.0221796795e-03 7.2829197530e-04 1.0259764341e-01)	(1.3395822902e-05 7.9546062577e-05 -7.1421120000e-04)
6.9000000000e+01	(-2.0121689210e-03 8.0772593666e-04 1.0228069274e-01)	(-2.0255247106e-03 7.2856898645e-04 1.0299297463e-01)	(1.3355789578e-05 7.9156950212e-05 -7.1228188973e-04)
7.0000000000e+01	(-2.0135633436e-03 8.0745006583e-04 1.0251229261e-01)	(-2.0268801154e-03 7.2867435269e-04 1.0322269970e-01)	(1.3316771842e-05 7.8775713137e-05 -7.1040708913e-04)
7.1000000000e+01	(-2.0158932268e-03 8.0698780224e-04 1.0276277652e-01)	(-2.0291721784e-03 7.2858549961e-04 1.0347138446e-01)	(1.3278951552e-05 7.8402302632e-05 -7.0860794257e-04)
7.2000000000e+01	(-2.0186109027e-03 8.0718420198e-04 1.0313147569e-01)	(-2.0318527513e-03 7.2914818134e-04 1.0383832622e-01)	(1.3241848616e-05 7.8036020639e-05 -7.0685053539e-04)
7.3000000000e+01	(-2.0207527987e-03 8.0689248377e-04 1.0340256070e-01)	(-2.0339584977e-03 7.2921541695e-04 1.0410772028e-01)	(1.3205699030e-05 7.7677066822e-05 -7.0515957354e-04)
7.4000000000e+01	(-2.0239032007e-03 8.0726596502e-04 1.0379793606e-01)	(-2.0370732990e-03 7.2994100713e-04 1.0450144256e-01)	(1.3170098295e-05 7.7324957886e-05 -7.0350649945e-04)
7.5000000000e+01	(-2.0238979143e-03 8.0653876374e-04 1.0393660928e-01)	(-2.0370331950e-03 7.2955886836e-04 1.0463851881e-01)	(1.3135280727e-05 7.6979895382e-05 -7.0190952903e-04)
7.6000000000e+01	(-2.0252104696e-03 8.0636737593e-04 1.0421030418e-01)	(-2.0383115171e-03 7.2972570381e-04 1.0491066056e-01)	(1.3101047404e-05 7.6641672121e-05 -7.0035637605e-04)
7.7000000000e+01	(-2.0266046942e-03 8.0611160003e-04 1.0448308727e-01)	(-2.0396719950e-03 7.2980152096e-04 1.0518193202e-01)	(1.3067300751e-05 7.6310079072e-05 -6.9884474374e-04)
7.8000000000e+01	(-2.0272700463e-03 8.0572385395e-04 1.0469328160e-01)	(-2.0403041966e-03 7.2973897949e-04 1.0539066055e-01)	(1.3034150244e-05 7.5984874461e-05 -6.9737894681e-04)
7.9000000000e+01	(-2.0283246844e-03 8.0529879846e-04 1.0492464022e-01)	(-2.0413261897e-03 7.2963292769e-04 1.0562059275e-01)	(1.3001505336e-05 7.5665870776e-05 -6.9595252527e-04)
8.0000000000e+01	(-2.0290085354e-03 8.0492953929e-04 1.0516137114e-01)	(-2.0419780749e-03 7.2957679525e-04 1.0585594904e-01)	(1.2969539489e-05 7.5352744039e-05 -6.9457789653e-04)
8.1000000000e+01	(-2.0297926028e-03 8.0452775182e-04 1.0539276474e-01)	(-2.0427307103e-03 7.2948225289e-04 1.0608601118e-01)	(1.2938107517e-05 7.5045498935e-05 -6.9324644232e-04)
8.2000000000e+01	(-2.0306821401e-03 8.0430918864e-04 1.0564144651e-01)	(-2.0435892609e-03 7.2956532746e-04 1.0633340083e-01)	(1.2907120824e-05 7.4743861182e-05 -6.9195432358e-04)
8.3000000000e+01	(-2.0320274447e-03 8.0410447730e-04 1.0591620336e-01)	(-2.0449040584e-03 7.2965674424e-04 1.0660690605e-01)	(1.2876613615e-05 7.4447733055e-05 -6.9070269716e-04)
8.4000000000e+01	(-2.0326874474e-03 8.0350436635e-04 1.0610657771e-01)	(-2.0455340682e-03 7.2934736166e-04 1.0679607153e-01)	(1.2846620754e-05 7.4157004686e-05 -6.8949381539e-04)
8.5000000000e+01	(-2.0347352280e-03 8.0356369236e-04 1.0643742236e-01)	(-2.0475523130e-03 7.2969223902e-04 1.0712574418e-01)	(1.2817084976e-05 7.3871453335e-05 -6.8832182115e-04)
8.6000000000e+01	(-2.0361423071e-03 8.0348532530e-04 1.0672723886e-01)	(-2.0489303103e-03 7.2989450009e-04 1.0741442827e-01)	(1.2788003213e-05 7.3590825209e-05 -6.8718941915e-04)
8.7000000000e+01	(-2.0384770669e-03 8.0347200322e-04 1.0704946377e-01)	(-2.0512364736e-03 7.3015693172e-04 1.0773556313e-01)	(1.2759406728e-05 7.3315071496e-05 -6.8609936171e-04)
8.8000000000e+01	(-2.0389984756e-03 8.0319858779e-04 1.0728587672e-01)	(-2.0517297038e-03 7.3015447501e-04 1.0797092266e-01)	(1.2731228176e-05 7.3044112784e-05 -6.8504594068e-04)
8.9000000000e+01	(-2.0414417742e-03 8.0328958109e-04 1.0764333001e-01)	(-2.0541453258e-03 7.3051186518e-04 1.0832736712e-01)	(1.2703551619e-05 7.2777715905e-05 -6.8403710814e-04)
9.0000000000e+01	(-2.0444382624e-03 8.0361523549e-04 1.0804459008e-01)	(-2.0571145877e-03 7.3109947758e-04 1.0872765440e-01)	(1.2676325283e-05 7.2515757913e-05 -6.8306432765e-04)
9.1000000000e+01	(-2.0450278152e-03 8.0312811996e-04 1.0825281564e-01)	(-2.0576772967e-03 7.3086926405e-04 1.0893492610e-01)	(1.2649481454e-05 7.2258855916e-05 -6.8211045529e-04)
9.2000000000e+01	(-2.0464472876e-03 8.0311279334e-04 1.0850503075e-01)	(-2.0590692077e-03 7.3110779130e-04 1.0918612648e-01)	(1.2621920107e-05 7.2005002047e-05 -6.8109572887e-04)
9.3000000000e+01	(-2.0477445428e-03 8.0282544881e-04 1.0871899443e-01)	(-2.0603384572e-03 7.3107039379e-04 1.0939902510e-01)	(1.2593914397e-05 7.1755055019e-05 -6.8003067710e-04)
9.4000000000e+01	(-2.0495549283e-03 8.0276852446e-04 1.0899640806e-01)	(-2.0621205539e-03 7.3125951916e-04 1.0967533820e-01)	(1.2565625630e-05 7.1509005298e-05 -6.7893014115e-04)
9.5000000000e+01	(-2.0508012570e-03 8.0270293875e-04 1.0923000384e-01)	(-2.0633384366e-03 7.3143604340e-04 1.0990781132e-01)	(1.2537179599e-05 7.1266895344e-05 -6.7780748359e-04)
9.6000000000e+01	(-2.0522123949e-03 8.0252771428e-04 1.0947216274e-01)	(-2.0647210525e-03 7.3149903444e-04 1.1014883129e-01)	(1.2508657667e-05 7.1028679839e-05 -6.7666855427e-04)
9.7000000000e+01	(-2.0546982679e-03 8.0269022755e-04 1.0977926204e-01)	(-2.0671783720e-03 7.3189611193e-04 1.1045478221e-01)	(1.2480104087e-05 7.0794115612e-05 -6.7552016538e-04)
9.8000000000e+01	(-2.0574492681e-03 8.0297329893e-04 1.1011139252e-01)	(-2.0699008362e-03 7.3241025162e-04 1.1078576134e-01)	(1.2451568113e-05 7.0563047311e-05 -6.7436882001e-04)
9.9000000000e+01	(-2.0607207644e-03 8.0337358423e-04 1.1048730072e-01)	(-2.0731438720e-03 7.3303841547e-04 1.1116052242e-01)	(1.2423107582e-05 7.0335168768e-05 -6.7322169281e-04)
1.0000000000e+02	(-2.0632646693e-03 8.0366381604e-04 1.1083309357e-01)	(-2.0756595322e-03 7.3355341840e-04 1.1150518143e-01)	(1.2394862855e-05 7.0110397641e-05 -6.7208785688e-04)
1.0100000000e+02	(-2.0658611011e-03 8.0394521729e-04 1.1115853121e-01)	(-2.0782278629e-03 7.3405660584e-04 1.1182949390e-01)	(1.2366761877e-05 6.9888611452e-05 -6.7096268597e-04)
1.0200000000e+02	(-2.0687207302e-03 8.0432349410e-04 1.1151161892e-01)	(-2.0810594539e-03 7.3465321195e-04 1.1218144841e-01)	(1.2338723734e-05 6.9670282153e-05 -6.6982949038e-04)
1.0300000000e+02	(-2.0698127304e-03 8.0429759211e-04 1.1172452892e-01)	(-2.0821230256e-03 7.3484330445e-04 1.1239319500e-01)	(1.2310295203e-05 6.9454287665e-05 -6.6866608516e-04)
1.0400000000e+02	(-2.0716474403e-03 8.0440500027e-04 1.1194537461e-01)	(-2.0839292819e-03 7.3516394613e-04 1.1261287142e-01)	(1.2281841519e-05 6.9241054140e-05 -6.6749681719e-04)
1.0500000000e+02	(-2.0732970020e-03 8.0446540134e-04 1.1219420105e-01)	(-2.0855502606e-03 7.3543475848e-04 1.1286050969e-01)	(1.2253258606e-05 6.9030642865e-05 -6.6630864582e-04)
1.0600000000e+02	(-2.0757100337e-03 8.0477753487e-04 1.1247372579e-01)	(-2.0879346059e-03 7.3595453716e-04 1.1313882721e-01)	(1.2224572167e-05 6.8822997703e-05 -6.6510142334e-04)
1.0700000000e+02	(-2.0774665101e-03 8.0487238951e-04 1.1271223350e-01)	(-2.0896622817e-03 7.3625434127e-04 1.1337610990e-01)	(1.2195771600e-05 6.8618048235e-05 -6.6387639726e-04)
1.0800000000e+02	(-2.0799542780e-03 8.0531261728e-04 1.1300063209e-01)	(-2.0921212540e-03 7.3689677390e-04 1.1366327735e-01)	(1.2166976015e-05 6.8415843380e-05 -6.6264525740e-04)
1.0900000000e+02	(-2.0828080521e-03 8.0568705443e-04 1.1330817333e-01)	(-2.0949461618e-03 7.3747084048e-04 1.1396957311e-01)	(1.2138109705e-05 6.8216213952e-05 -6.6139978005e-04)
1.1000000000e+02	(-2.0843190787e-03 8.0561999341e-04 1.1351278690e-01)	(-2.0964283495e-03 7.3760096940e-04 1.1417293604e-01)	(1.2109270759e-05 6.8019024009e-05 -6.6014913879e-04)
1.1100000000e+02	(-2.0871901135e-03 8.0609878458e-04 1.1382326055e-01)	(-2.0992705331e-03 7.3827474712e-04 1.1448215208e-01)	(1.2080419625e-05 6.7824037454e-05 -6.5889152821e-04)
1.1200000000e+02	(-2.0899990403e-03 8.0638950799e-04 1.1411821444e-01)	(-2.1020506358e-03 7.3875784996e-04 1.1477583989e-01)	(1.2051595489e-05 6.7631658033e-05 -6.5762545921e-04)
1.1300000000e+02	(-2.0921431100e-03 8.0664874396e-04 1.1435151557e-01)	(-2.1041656463e-03 7.3920716440e-04 1.1500784342e-01)	(1.2022536319e-05 6.7441579560e-05 -6.5632784341e-04)
1.1400000000e+02	(-2.0935391649e-03 8.0690530778e-04 1.1456805532e-01)	(-2.1055323685e-03 7.3965160905e-04 1.1522305001e-01)	(1.1993203619e-05 6.7253698729e-05 -6.5499468837e-04)
1.1500000000e+02	(-2.0960345868e-03 8.0723445854e-04 1.1482801324e-01)	(-2.1079983717e-03 7.4016637718e-04 1.1548165578e-01)	(1.1963784907e-05 6.7068081359e-05 -6.5364254590e-04)
1.1600000000e+02	(-2.0984769545e-03 8.0761924750e-04 1.1509312209e-01)	(-2.1104112350e-03 7.4073456281e-04 1.1574539570e-01)	(1.1934280488e-05 6.6884684697e-05 -6.5227360680e-04)
1.1700000000e+02	(-2.1005180785e-03 8.0781130865e-04 1.1531553582e-01)	(-2.1124228460e-03 7.4110785117e-04 1.1596643133e-01)	(1.1904767536e-05 6.6703457475e-05 -6.5089551499e-04)
1.1800000000e+02	(-2.1034278735e-03 8.0831248432e-04 1.1561403139e-01)	(-2.1153031687e-03 7.4178816395e-04 1.1626354299e-01)	(1.1875295152e-05 6.6524320377e-05 -6.4951160130e-04)
1.1900000000e+02	(-2.1059471459e-03 8.0864294646e-04 1.1587632842e-01)	(-2.1177930328e-03 7.4229574431e-04 1.1652445144e-01)	(1.1845886883e-05 6.6347202143e-05 -6.4812301053e-04)
1.2000000000e+02	(-2.1089830098e-03 8.0909310346e-04 1.1617676450e-01)	(-2.1207995350e-03 7.4292105773e-04 1.1682349388e-01)	(1.1816525188e-05 6.6172045725e-05 -6.4672937951e-04)
1.2100000000e+02	(-2.1115797896e-03 8.0944374436e-04 1.1643626701e-01)	(-2.1233669993e-03 7.4344490262e-04 1.1708159710e-01)	(1.1787209764e-05 6.5998841742e-05 -6.4533008992e-04)
1.2200000000e+02	(-2.1138566704e-03 8.0974127737e-04 1.1667528849e-01)	(-2.1256146221e-03 7.4391373385e-04 1.1731921485e-01)	(1.1757951738e-05 6.5827543513e-05 -6.4392636450e-04)
1.2300000000e+02	(-2.1168391541e-03 8.1019964903e-04 1.1695519213e-01)	(-2.1285679300e-03 7.4454152599e-04 1.1759771187e-01)	(1.1728775942e-05 6.5658123040e-05 -6.4251973525e-04)
1.2400000000e+02	(-2.1192341242e-03 8.1054308351e-04 1.1720629883e-01)	(-2.1309338198e-03 7.4505256843e-04 1.1784741071e-01)	(1.1699695608e-05 6.5490515082e-05 -6.4111187540e-04)
1.2500000000e+02	(-2.1222145884e-03 8.1100043250e-04 1.1748493934e-01)	(-2.1338852842e-03 7.4567572252e-04 1.1812464135e-01)	(1.1670695820e-05 6.5324709983e-05 -6.3970200552e-04)
1.2600000000e+02	(-2.1252372523e-03 8.1151225054e-04 1.1777303731e-01)	(-2.1368790536e-03 7.4635159577e-04 1.1841133015e-01)	(1.1641801257e-05 6.5160654772e-05 -6.3829284153e-04)
1.2700000000e+02	(-2.1278236193e-03 8.1189887764e-04 1.1802237499e-01)	(-2.1394366505e-03 7.4690054194e-04 1.1865925998e-01)	(1.1613031187e-05 6.4998335698e-05 -6.3688499271e-04)
1.2800000000e+02	(-2.1301350886e-03 8.1220531858e-04 1.1824933634e-01)	(-2.1417194879e-03 7.4736757194e-04 1.1888481590e-01)	(1.1584399310e-05 6.4837746640e-05 -6.3547956598e-04)
1.2900000000e+02	(-2.1327663464e-03 8.1256889553e-04 1.1849278682e-01)	(-2.1443222237e-03 7.4789002081e-04 1.1912686094e-01)	(1.1555877311e-05 6.4678874723e-05 -6.3407411969e-04)
1.3000000000e+02	(-2.1350415144e-03 8.1287027635e-04 1.1871838335e-01)	(-2.1465689777e-03 7.4834858971e-04 1.1935105266e-01)	(1.1527463282e-05 6.4521686645e-05 -6.3266931152e-04)
1.3100000000e+02	(-2.1376907363e-03 8.1327142161e-04 1.1897280530e-01)	(-2.1491898962e-03 7.4890528417e-04 1.1960407087e-01)	(1.1499159916e-05 6.4366137439e-05 -6.3126557099e-04)
1.3200000000e+02	(-2.1404191239e-03 8.1372411278e-04 1.1922792563e-01)	(-2.1518900758e-03 7.4951189225e-04 1.1985778721e-01)	(1.1470951925e-05 6.4212220532e-05 -6.2986157568e-04)
1.3300000000e+02	(-2.1430695339e-03 8.1402363489e-04 1.1946355823e-01)	(-2.1545123844e-03 7.4996371186e-04 1.2009201680e-01)	(1.1442850548e-05 6.4059923033e-05 -6.2845857498e-04)
1.3400000000e+02	(-2.1456482894e-03 8.1441932027e-04 1.1970986124e-01)	(-2.1570631487e-03 7.5051011253e-04 1.2033691847e-01)	(1.1414859238e-05 6.3909207735e-05 -6.2705722711e-04)
1.3500000000e+02	(-2.1481513980e-03 8.1471678444e-04 1.1993796441e-01)	(-2.1595384095e-03 7.5095672282e-04 1.2056362456e-01)	(1.1387011515e-05 6.3760061616e-05 -6.2566015506e-04)
1.3600000000e+02	(-2.1510102989e-03 8.1514683263e-04 1.2018785582e-01)	(-2.1623696024e-03 7.5153436461e-04 1.2081212237e-01)	(1.1359303516e-05 6.3612468015e-05 -6.2426654613e-04)
1.3700000000e+02	(-2.1535945170e-03 8.1547521870e-04 1.2041797421e-01)	(-2.1649262514e-03 7.5200883164e-04 1.2104084976e-01)	(1.1331734473e-05 6.3466387061e-05 -6.2287554946e-04)
1.3800000000e+02	(-2.1565547227e-03 8.1594287366e-04 1.2067866865e-01)	(-2.1678590218e-03 7.5262108530e-04 1.2130015580e-01)	(1.1304299089e-05 6.3321788354e-05 -6.2148715063e-04)
1.3900000000e+02	(-2.1591828305e-03 8.1632444686e-04 1.2091842639e-01)	(-2.1704597965e-03 7.5314578465e-04 1.2153852594e-01)	(1.1276965913e-05 6.3178662203e-05 -6.2009955171e-04)
1.4000000000e+02	(-2.1618652489e-03 8.1670798248e-04 1.2115685030e-01)	(-2.1731150037e-03 7.5367100182e-04 1.2177556480e-01)	(1.1249754749e-05 6.3036980668e-05 -6.1871450311e-04)
1.4100000000e+02	(-2.1645627660e-03 8.1710110466e-04 1.2140121792e-01)	(-2.1757854297e-03 7.5420438626e-04 1.2201855016e-01)	(1.1222663654e-05 6.2896718404e-05 -6.1733224129e-04)
1.4200000000e+02	(-2.1674226490e-03 8.1753632308e-04 1.2164910112e-01)	(-2.1786183653e-03 7.5477847659e-04 1.2226505478e-01)	(1.1195716263e-05 6.2757846495e-05 -6.1595366187e-04)
1.4300000000e+02	(-2.1703730993e-03 8.1801531131e-04 1.2190695497e-01)	(-2.1815419937e-03 7.5539496435e-04 1.2252153263e-01)	(1.1168894421e-05 6.2620346959e-05 -6.1457766760e-04)
1.4400000000e+02	(-2.1730499210e-03 8.1838148165e-04 1.2213954338e-01)	(-2.1841920952e-03 7.5589726243e-04 1.2275274617e-01)	(1.1142174195e-05 6.2484219226e-05 -6.1320278519e-04)
1.4500000000e+02	(-2.1759530793e-03 8.1883377635e-04 1.2238627305e-01)	(-2.1870686584e-03 7.5648433370e-04 1.2299810365e-01)	(1.1115579134e-05 6.2349442652e-05 -6.1183060542e-04)
1.4600000000e+02	(-2.1786949119e-03 8.1924055770e-04 1.2262062995e-01)	(-2.1897840114e-03 7.5702455786e-04 1.2323109059e-01)	(1.1089099476e-05 6.2215999842e-05 -6.1046064063e-04)
1.4700000000e+02	(-2.1814175133e-03 8.1964634247e-04 1.2285787257e-01)	(-2.1924802517e-03 7.5756247372e-04 1.2346696607e-01)	(1.1062738348e-05 6.2083868750e-05 -6.0909350243e-04)
1.4800000000e+02	(-2.1841076785e-03 8.2007869211e-04 1.2309011417e-01)	(-2.1951441752e-03 7.5812565185e-04 1.2369784283e-01)	(1.1036496722e-05 6.1953040257e-05 -6.0772865811e-04)
1.4900000000e+02	(-2.1868891231e-03 8.2045706554e-04 1.2332245239e-01)	(-2.1978995028e-03 7.5863357943e-04 1.2392881945e-01)	(1.1010379781e-05 6.1823486108e-05 -6.0636705903e-04)
1.5000000000e+02	(-2.1896237717e-03 8.2089463246e-04 1.2355775055e-01)	(-2.2006081691e-03 7.5919943840e-04 1.2416276037e-01)	(1.0984397425e-05 6.1695194053e-05 -6.0500982317e-04)
1.5100000000e+02	(-2.1923753516e-03 8.2134152204e-04 1.2379237121e-01)	(-2.2033338923e-03 7.5977336892e-04 1.2439602746e-01)	(1.0958540641e-05 6.1568153123e-05 -6.0365624949e-04)
1.5200000000e+02	(-2.1951234588e-03 8.2177239665e-04 1.2402280029e-01)	(-2.2060562731e-03 7.6033004243e-04 1.2462510665e-01)	(1.0932814333e-05 6.1442354217e-05 -6.0230635728e-04)
1.5300000000e+02	(-2.1975836168e-03 8.2209936066e-04 1.2422819708e-01)	(-2.2084908927e-03 7.6078147740e-04 1.2482916185e-01)	(1.0907275897e-05 6.1317883256e-05 -6.0096476414e-04)
1.5400000000e+02	(-2.2002875339e-03 8.2256714548e-04 1.2446201360e-01)	(-2.2111695096e-03 7.6137236549e-04 1.2506164862e-01)	(1.0881975652e-05 6.1194779992e-05 -5.9963502415e-04)
1.5500000000e+02	(-2.2027382419e-03 8.2290955657e-04 1.2466325466e-01)	(-2.2135950637e-03 7.6183670619e-04 1.2526156592e-01)	(1.0856821771e-05 6.1072850373e-05 -5.9831125781e-04)
1.5600000000e+02	(-2.2052190114e-03 8.2329895022e-04 1.2487411458e-01)	(-2.2160508143e-03 7.6234687333e-04 1.2547110745e-01)	(1.0831802877e-05 6.0952076884e-05 -5.9699286741e-04)
1.5700000000e+02	(-2.2078663178e-03 8.2368211688e-04 1.2508811068e-01)	(-2.2186732291e-03 7.6284966998e-04 1.2568379001e-01)	(1.0806911353e-05 6.0832446896e-05 -5.9567933259e-04)
1.5800000000e+02	(-2.2100897445e-03 8.2399851341e-04 1.2527664869e-01)	(-2.2208719024e-03 7.6328457272e-04 1.2587101966e-01)	(1.0782157887e-05 6.0713940689e-05 -5.9437096457e-04)
1.5900000000e+02	(-2.2125530294e-03 8.2439119078e-04 1.2548009902e-01)	(-2.2233105322e-03 7.6379466655e-04 1.2607316335e-01)	(1.0757502799e-05 6.0596524226e-05 -5.9306433146e-04)
1.6000000000e+02	(-2.2149049929e-03 8.2470551170e-04 1.2567020475e-01)	(-2.2256379341e-03 7.6422531255e-04 1.2626196375e-01)	(1.0732941202e-05 6.0480199147e-05 -5.9175900199e-04)
1.6100000000e+02	(-2.2169729088e-03 8.2495540588e-04 1.2584327442e-01)	(-2.2276814110e-03 7.6459043759e-04 1.2643373165e-01)	(1.0708502121e-05 6.0364968293e-05 -5.9045723758e-04)
1.6200000000e+02	(-2.2191315098e-03 8.2523666290e-04 1.2601827026e-01)	(-2.2298157005e-03 7.6498584549e-04 1.2660743029e-01)	(1.0684190759e-05 6.0250817408e-05 -5.8916003426e-04)
1.6300000000e+02	(-2.2215676214e-03 8.2558203174e-04 1.2621372014e-01)	(-2.2322276161e-03 7.6544431706e-04 1.2680158623e-01)	(1.0659994724e-05 6.0137714685e-05 -5.8786608747e-04)
1.6400000000e+02	(-2.2237493634e-03 8.2588882984e-04 1.2638960254e-01)	(-2.2343852693e-03 7.6586317302e-04 1.2697617762e-01)	(1.0635905987e-05 6.0025656817e-05 -5.8657508177e-04)
1.6500000000e+02	(-2.2257623275e-03 8.2608719401e-04 1.2654880591e-01)	(-2.2363742825e-03 7.6617257123e-04 1.2713409611e-01)	(1.0611954972e-05 5.9914622778e-05 -5.8529020281e-04)
1.6600000000e+02	(-2.2278130352e-03 8.2638282746e-04 1.2671631235e-01)	(-2.2384011857e-03 7.6657821523e-04 1.2730032399e-01)	(1.0588150500e-05 5.9804612228e-05 -5.8401164310e-04)