/*--------------------------------*- C++ -*----------------------------------*\
| =========                 |                                                 |
| \\      /  F ield         | OpenFOAM: The Open Source CFD Toolbox           |
|  \\    /   O peration     | Version:  v3.0+                                 |
|   \\  /    A nd           | Web:      www.OpenFOAM.com                      |
|    \\/     M anipulation  |                                                 |
\*---------------------------------------------------------------------------*/
FoamFile
{
    version     2.0;
    format      ascii;
    class       volVectorField;
    location    "9000";
    object      D;
}
// * * * * * * * * * * * * * * * * * * * * * * * * * * * * * * * * * * * * * //

dimensions      [0 1 0 0 0 0 0];

internalField   nonuniform List<vector> 
24076
(
(4.36258e-06 4.28837e-06 0)
(4.91657e-09 5.46726e-08 0)
(3.84111e-11 7.71031e-10 0)
(3.89472e-11 7.48771e-10 0)
(1.1452e-06 3.34338e-06 0)
(6.28073e-09 6.49521e-08 0)
(4.75099e-09 5.49641e-08 0)
(4.46504e-06 4.31968e-06 0)
(-3.7945e-12 5.72484e-11 0)
(1.01197e-05 3.13833e-05 0)
(-1.34173e-06 2.85765e-06 0)
(1.03189e-05 3.16955e-05 0)
(1.76899e-06 1.83572e-06 0)
(1.0535e-06 3.32649e-06 0)
(1.10081e-05 2.5601e-05 0)
(1.87468e-06 2.40986e-05 0)
(-1.90836e-05 0.000159667 0)
(2.16084e-05 0.000159768 0)
(1.13275e-06 1.32396e-05 0)
(2.1099e-06 2.42325e-05 0)
(1.0731e-05 2.54082e-05 0)
(-1.30209e-06 5.64148e-06 0)
(6.15034e-09 8.77803e-08 0)
(-1.29119e-06 2.788e-06 0)
(3.56326e-07 1.44586e-06 0)
(9.53562e-07 1.31817e-05 0)
(-1.4339e-07 2.29503e-07 0)
(6.13749e-09 6.40373e-08 0)
(1.38712e-07 2.86183e-05 0)
(2.80501e-07 1.42337e-06 0)
(-2.66246e-07 2.85839e-05 0)
(1.31837e-10 1.32813e-08 0)
(3.95928e-06 1.59898e-05 0)
(2.27901e-06 6.55591e-06 0)
(4.15715e-06 1.60507e-05 0)
(7.59397e-06 2.3242e-05 0)
(1.8512e-06 1.91286e-06 0)
(-1.89984e-05 0.000160858 0)
(2.15528e-05 0.000160972 0)
(3.57539e-06 2.12362e-06 0)
(-6.95046e-07 4.2332e-07 0)
(-8.42726e-07 5.86612e-05 0)
(1.63526e-06 2.37399e-06 0)
(2.17625e-06 6.56328e-06 0)
(7.3092e-06 2.31197e-05 0)
(-7.37841e-06 2.17955e-05 0)
(8.43384e-10 5.93073e-08 0)
(3.5463e-06 3.1353e-05 0)
(-1.52522e-07 2.3432e-07 0)
(-5.33831e-06 2.32067e-05 0)
(1.27043e-10 1.98341e-09 0)
(-1.27433e-07 2.08759e-07 0)
(-1.03923e-11 7.39024e-11 0)
(6.03953e-09 7.04695e-08 0)
(-3.79587e-12 6.12879e-11 0)
(1.02951e-05 8.54146e-05 0)
(1.54958e-06 5.77442e-06 0)
(6.4814e-06 9.40477e-06 0)
(4.51097e-06 0.000426298 0)
(1.10749e-05 8.55293e-05 0)
(-7.42594e-06 2.20833e-05 0)
(-1.2371e-09 2.66001e-08 0)
(-5.05952e-06 9.41136e-06 0)
(-5.05684e-06 2.3065e-05 0)
(-8.65486e-07 3.10017e-06 0)
(6.35311e-06 9.40281e-06 0)
(1.96856e-06 5.27304e-06 0)
(-7.80843e-07 3.08973e-06 0)
(2.25675e-09 3.99624e-08 0)
(1.99507e-06 5.18403e-06 0)
(3.13945e-06 0.000423083 0)
(-4.42521e-09 1.15392e-07 0)
(-1.08683e-05 6.12608e-05 0)
(-5.77062e-10 6.22593e-09 0)
(-6.86507e-07 4.17919e-07 0)
(3.24991e-06 3.128e-05 0)
(-1.40269e-06 5.71475e-06 0)
(-1.12675e-05 6.17457e-05 0)
(3.92591e-06 6.42451e-06 0)
(-4.94915e-06 9.26756e-06 0)
(1.26818e-09 5.97377e-08 0)
(4.95568e-06 5.46241e-05 0)
(-3.90058e-07 7.50755e-06 0)
(3.85652e-08 2.3426e-06 0)
(-4.1357e-07 3.53942e-07 0)
(-9.11922e-12 6.37472e-11 0)
(1.31609e-05 0.000265388 0)
(-1.16946e-05 9.06092e-05 0)
(4.86726e-07 0.000422426 0)
(1.10003e-05 0.000265574 0)
(4.5388e-06 5.49726e-05 0)
(2.97614e-06 0.000428685 0)
(-2.0556e-06 9.9998e-06 0)
(1.64174e-06 5.82565e-06 0)
(-3.37955e-10 2.41036e-06 0)
(-1.16301e-06 1.21494e-06 0)
(-2.21461e-06 0.000179923 0)
(8.11627e-06 0.000273966 0)
(3.22114e-11 1.28792e-08 0)
(1.80341e-06 3.94892e-06 0)
(-4.54374e-07 7.64297e-06 0)
(-9.90414e-07 1.98508e-06 0)
(-5.38849e-07 5.92065e-05 0)
(3.85145e-06 6.3178e-06 0)
(-9.83749e-07 4.05237e-05 0)
(-7.53764e-07 5.20582e-07 0)
(-1.73884e-10 2.60043e-09 0)
(-6.3953e-10 1.09711e-07 0)
(-2.97415e-06 7.91327e-06 0)
(-3.14841e-06 4.37109e-05 0)
(-2.49725e-06 0.000181458 0)
(2.80755e-06 3.1757e-05 0)
(-2.92977e-12 1.72084e-10 0)
(-1.37485e-09 2.60484e-08 0)
(1.89743e-05 0.000344659 0)
(1.09035e-10 1.93422e-09 0)
(-1.15976e-06 2.96818e-06 0)
(-2.74214e-06 4.3549e-05 0)
(7.75864e-06 0.000275719 0)
(-3.6139e-06 4.35923e-05 0)
(6.69666e-07 3.55302e-05 0)
(-6.05219e-06 3.51818e-05 0)
(-7.2937e-07 5.32322e-07 0)
(3.4778e-06 2.06652e-06 0)
(7.35202e-06 2.69488e-05 0)
(-1.19396e-05 9.14041e-05 0)
(-3.00798e-06 8.04363e-06 0)
(8.46896e-06 4.47947e-05 0)
(-1.30435e-06 4.02016e-05 0)
(5.11063e-10 9.29342e-09 0)
(-6.03386e-06 3.48151e-05 0)
(-3.85756e-06 4.32731e-05 0)
(-4.25228e-06 8.30346e-05 0)
(5.71208e-09 8.8626e-08 0)
(-2.00155e-06 1.01321e-05 0)
(-1.72194e-07 2.28452e-07 0)
(1.39821e-06 9.54982e-06 0)
(1.5519e-06 2.30854e-06 0)
(3.36535e-06 0.000243426 0)
(1.71513e-06 1.03682e-05 0)
(1.86469e-06 1.03993e-05 0)
(-3.60013e-12 1.62216e-10 0)
(-1.18005e-08 2.82436e-08 0)
(-2.90225e-06 0.000203675 0)
(1.64477e-05 0.000210534 0)
(2.93368e-06 3.14453e-05 0)
(-4.51329e-06 8.37218e-05 0)
(1.07762e-05 0.000123657 0)
(1.32194e-06 1.14006e-05 0)
(1.91613e-10 4.37354e-09 0)
(-5.19772e-06 1.95486e-05 0)
(-3.67319e-13 2.83809e-12 0)
(1.65565e-06 5.75211e-07 0)
(1.67877e-06 3.06207e-06 0)
(4.5674e-06 9.10867e-06 0)
(2.75492e-06 5.60495e-05 0)
(3.68856e-06 2.64323e-06 0)
(-6.89055e-07 3.5832e-05 0)
(1.31135e-06 9.65084e-06 0)
(-2.66229e-11 9.4583e-10 0)
(1.94689e-08 -4.66447e-08 0)
(-3.79837e-12 4.59163e-11 0)
(1.28403e-05 3.34287e-05 0)
(-3.395e-06 6.6871e-06 0)
(1.31504e-06 8.78329e-05 0)
(2.58508e-05 0.000244463 0)
(-2.36128e-05 0.000244468 0)
(-1.9499e-06 1.44444e-05 0)
(-1.33042e-06 4.30222e-06 0)
(-5.35416e-07 2.70622e-07 0)
(3.15047e-06 9.12057e-06 0)
(2.11128e-09 1.05146e-07 0)
(3.1131e-07 1.66296e-05 0)
(3.12059e-06 1.36988e-05 0)
(-3.36896e-06 1.44758e-05 0)
(5.61153e-06 1.44788e-05 0)
(-1.17352e-05 8.56061e-05 0)
(1.39397e-05 8.56113e-05 0)
(1.2233e-05 3.61729e-05 0)
(-5.80692e-06 1.80832e-05 0)
(-4.79255e-06 9.25351e-06 0)
(-9.29601e-10 6.81497e-09 0)
(2.91357e-06 6.25024e-06 0)
(-1.81145e-07 -1.89046e-08 0)
(-1.98505e-07 -8.84275e-09 0)
(-1.04774e-07 4.21901e-06 0)
(-1.35021e-06 4.40946e-06 0)
(-6.1931e-07 5.28252e-07 0)
(-1.74637e-06 3.38833e-06 0)
(1.07538e-06 5.65565e-07 0)
(1.23535e-09 1.67129e-08 0)
(-3.55065e-06 1.97866e-05 0)
(-1.36216e-05 0.000236499 0)
(-7.15636e-06 5.50649e-05 0)
(6.495e-06 5.17692e-05 0)
(7.85877e-06 1.5262e-05 0)
(5.99091e-09 6.71621e-08 0)
(1.25954e-05 8.4634e-05 0)
(-1.03812e-05 8.46209e-05 0)
(-5.62164e-06 1.52599e-05 0)
(2.90986e-06 6.13521e-06 0)
(-5.65764e-07 4.81314e-07 0)
(-2.4043e-05 0.000271329 0)
(2.62845e-05 0.000271329 0)
(3.98717e-06 0.000211651 0)
(1.49089e-06 3.44435e-06 0)
(-6.52894e-06 2.06042e-05 0)
(-1.27852e-05 0.000117732 0)
(3.15542e-06 2.15088e-06 0)
(6.36157e-08 1.67026e-05 0)
(-2.66724e-09 7.08299e-08 0)
(1.68228e-06 1.8921e-05 0)
(-4.89746e-08 1.58308e-07 0)
(-5.30375e-06 1.9244e-05 0)
(-4.03739e-12 4.55508e-11 0)
(5.13016e-07 1.38118e-05 0)
(-1.78604e-07 2.31964e-07 0)
(-5.14863e-06 1.23204e-05 0)
(-2.72404e-05 0.000411706 0)
(2.94821e-05 0.000411706 0)
(-5.47056e-07 0.000151886 0)
(1.13755e-05 2.55109e-05 0)
(5.08912e-06 4.2921e-06 0)
(-1.11547e-06 6.80913e-06 0)
(8.3308e-06 1.79483e-05 0)
(-6.30727e-11 3.96847e-10 0)
(-4.75156e-11 8.67614e-10 0)
(-7.55133e-06 4.62051e-05 0)
(-8.03699e-11 5.47702e-10 0)
(9.53676e-06 0.000262985 0)
(-3.4403e-11 8.82754e-10 0)
(-3.6295e-06 2.00328e-05 0)
(-9.0657e-11 1.57926e-09 0)
(-1.04184e-09 7.76924e-09 0)
(1.67375e-06 7.50347e-06 0)
(6.35422e-06 9.60311e-05 0)
(-8.64288e-07 7.62297e-07 0)
(8.55333e-07 2.00157e-07 0)
(-7.26714e-06 8.61597e-05 0)
(-1.40589e-05 6.16692e-05 0)
(1.63452e-05 6.16867e-05 0)
(-4.27137e-07 3.58451e-07 0)
(-9.45519e-06 0.000109703 0)
(-8.52293e-06 0.00010886 0)
(2.05809e-05 0.000114019 0)
(-1.84409e-05 0.000114047 0)
(-7.19996e-06 6.24873e-05 0)
(8.12537e-06 1.53606e-05 0)
(-5.88875e-06 1.53585e-05 0)
(-1.18139e-06 2.54189e-06 0)
(-1.84224e-05 0.000205367 0)
(5.96472e-06 0.000177225 0)
(6.34576e-08 -5.3031e-08 0)
(5.55677e-06 7.33682e-06 0)
(2.14789e-05 0.000114512 0)
(-1.92381e-05 0.000114513 0)
(2.25795e-09 3.43123e-08 0)
(-5.85812e-11 1.13845e-08 0)
(-7.18587e-08 1.6335e-07 0)
(8.38696e-06 0.000250021 0)
(1.58361e-06 2.99572e-06 0)
(5.88594e-06 5.78508e-06 0)
(6.06234e-06 1.72312e-05 0)
(-2.52819e-12 4.87219e-11 0)
(-1.90918e-06 8.81072e-06 0)
(4.61206e-07 1.41958e-06 0)
(-6.42301e-06 2.03681e-05 0)
(2.12888e-06 5.09869e-05 0)
(-6.82059e-06 5.54168e-05 0)
(3.49559e-11 5.15412e-10 0)
(-1.45262e-05 0.000195162 0)
(1.68664e-05 0.000195201 0)
(5.42531e-06 7.26755e-06 0)
(2.30929e-06 3.24766e-05 0)
(-2.24613e-07 2.71486e-07 0)
(-7.87997e-06 7.70717e-05 0)
(-1.21946e-05 9.34324e-05 0)
(2.22597e-09 1.04199e-07 0)
(-6.1132e-06 2.24306e-05 0)
(1.31017e-05 3.37537e-05 0)
(1.46688e-10 3.18435e-09 0)
(-2.42392e-07 0.000217263 0)
(1.24016e-06 9.25549e-05 0)
(-1.34406e-07 1.97796e-07 0)
(1.02113e-06 8.52423e-06 0)
(-8.3389e-07 7.14243e-07 0)
(-1.29173e-09 1.27558e-08 0)
(6.56199e-06 1.72777e-05 0)
(-2.35754e-06 3.40004e-06 0)
(2.79325e-06 5.42302e-06 0)
(-4.34414e-06 0.000203344 0)
(4.55431e-06 5.21286e-06 0)
(3.04278e-06 1.38608e-05 0)
(1.6573e-06 4.03658e-06 0)
(2.68108e-05 0.0002464 0)
(-2.45691e-05 0.0002464 0)
(-3.90551e-06 2.05016e-05 0)
(1.57556e-11 7.9589e-10 0)
(-2.85716e-10 3.09548e-09 0)
(6.1752e-06 3.74671e-05 0)
(-7.5142e-06 6.31478e-05 0)
(9.8354e-06 6.31931e-05 0)
(-1.06721e-05 0.000125598 0)
(1.29498e-05 0.000125694 0)
(-8.45142e-07 6.93372e-07 0)
(-4.423e-12 1.18152e-10 0)
(-7.11616e-07 0.000154937 0)
(-7.33265e-06 4.57769e-05 0)
(-1.4877e-07 6.73988e-06 0)
(-4.1543e-06 0.000183729 0)
(-1.30278e-06 2.94174e-05 0)
(1.61812e-06 5.08478e-05 0)
(3.24417e-12 9.47228e-11 0)
(-4.92051e-06 2.7895e-05 0)
(-2.26319e-06 1.92331e-05 0)
(6.9556e-06 9.18832e-06 0)
(5.21681e-06 2.78069e-05 0)
(-2.52877e-10 1.49558e-09 0)
(-1.69825e-06 2.04675e-06 0)
(5.76388e-07 1.36252e-05 0)
(1.02858e-05 6.85424e-05 0)
(-6.10192e-06 1.79745e-05 0)
(-4.58066e-06 2.78191e-05 0)
(-1.38275e-09 2.024e-08 0)
(5.61654e-09 7.00191e-08 0)
(5.79032e-06 1.73566e-05 0)
(2.49763e-05 0.000185778 0)
(-2.2742e-05 0.000185769 0)
(3.23971e-06 2.25187e-06 0)
(-1.85458e-07 3.02704e-06 0)
(-3.5974e-07 8.65533e-06 0)
(1.46206e-05 8.50017e-05 0)
(-1.23836e-05 8.50001e-05 0)
(2.13667e-06 9.28647e-05 0)
(6.6862e-06 4.23789e-05 0)
(6.85294e-06 1.61998e-05 0)
(-1.22193e-06 2.93462e-06 0)
(6.838e-09 7.56786e-08 0)
(-3.81514e-06 1.12678e-05 0)
(1.08229e-06 8.42275e-07 0)
(-4.11384e-06 7.36271e-06 0)
(-3.74497e-07 0.000164503 0)
(2.11769e-09 3.15375e-08 0)
(-7.1644e-06 9.42563e-05 0)
(1.11533e-06 3.5583e-05 0)
(-8.8854e-07 7.76035e-07 0)
(-7.46524e-08 1.70253e-07 0)
(1.04485e-07 4.80746e-06 0)
(2.72107e-06 5.68826e-05 0)
(9.38046e-06 3.10697e-05 0)
(-1.12365e-06 4.47056e-06 0)
(4.03765e-07 3.1461e-06 0)
(-7.32722e-06 4.40896e-05 0)
(1.81261e-06 1.42016e-05 0)
(5.21597e-06 6.08598e-06 0)
(6.13135e-06 5.13211e-05 0)
(5.01739e-06 1.53674e-05 0)
(1.54604e-06 1.19229e-05 0)
(-1.53068e-05 0.000235294 0)
(4.93533e-07 1.18247e-06 0)
(1.14052e-06 3.43187e-05 0)
(5.17687e-06 9.14675e-06 0)
(2.28756e-06 5.34485e-06 0)
(-1.29521e-09 3.18249e-08 0)
(-5.09708e-06 1.01476e-05 0)
(7.70922e-08 4.96576e-09 0)
(-9.37223e-07 2.95615e-05 0)
(8.90647e-06 3.10613e-05 0)
(3.66337e-06 6.36727e-06 0)
(1.55603e-06 1.87313e-05 0)
(5.33294e-06 6.13287e-06 0)
(8.86902e-07 1.49089e-06 0)
(1.08452e-05 2.68517e-05 0)
(-2.90364e-08 1.34011e-07 0)
(7.78551e-06 1.50328e-05 0)
(-5.54852e-06 1.50302e-05 0)
(-9.73366e-11 3.70853e-09 0)
(-1.63904e-05 0.000164707 0)
(1.8614e-05 0.000164511 0)
(-1.29863e-07 2.1247e-07 0)
(-6.85628e-07 5.89068e-07 0)
(-1.01902e-06 3.61728e-05 0)
(1.53525e-06 8.96049e-07 0)
(-4.97624e-07 1.85441e-06 0)
(-8.26437e-06 6.1703e-05 0)
(1.31941e-09 2.41751e-08 0)
(-1.64268e-06 1.37649e-05 0)
(2.38971e-09 1.04757e-07 0)
(9.73475e-12 5.64953e-10 0)
(4.28362e-06 5.48923e-06 0)
(2.75786e-07 2.84093e-06 0)
(-2.56478e-05 0.000270198 0)
(2.78892e-05 0.000270198 0)
(1.00096e-05 0.000251098 0)
(-1.36443e-05 0.000117019 0)
(-5.35194e-06 1.4873e-05 0)
(7.58924e-06 1.48758e-05 0)
(-2.32812e-06 4.97923e-06 0)
(-7.66489e-06 6.165e-05 0)
(1.75937e-06 4.0265e-06 0)
(-6.00179e-06 2.80713e-05 0)
(1.11566e-05 9.35696e-05 0)
(-6.39083e-12 4.36691e-10 0)
(-7.57912e-07 2.5883e-06 0)
(9.75704e-06 2.19442e-05 0)
(-1.38465e-05 0.000196767 0)
(1.62461e-05 0.000196802 0)
(4.44528e-06 3.6829e-05 0)
(1.66463e-06 1.54888e-05 0)
(-2.83747e-06 0.000217222 0)
(-8.78025e-06 2.26976e-05 0)
(1.30855e-05 4.89441e-05 0)
(5.08988e-12 5.40387e-10 0)
(8.2614e-07 1.60239e-05 0)
(6.85461e-06 0.000178989 0)
(1.03559e-06 6.05475e-07 0)
(1.44032e-05 0.000208242 0)
(6.09055e-12 1.44752e-10 0)
(-2.36965e-06 3.45901e-06 0)
(-1.02466e-05 0.000124567 0)
(1.25228e-05 0.000124657 0)
(-1.90703e-06 8.93845e-06 0)
(2.57505e-06 2.69821e-06 0)
(-6.75021e-07 1.28722e-06 0)
(7.42225e-06 0.00026886 0)
(-1.17085e-06 4.39937e-06 0)
(1.58603e-06 3.44801e-06 0)
(3.22339e-06 5.44997e-06 0)
(-3.64759e-07 8.78154e-06 0)
(-7.02042e-08 1.62831e-07 0)
(4.75765e-06 7.6126e-06 0)
(-2.56141e-06 2.74921e-05 0)
(-5.94532e-08 4.29466e-06 0)
(1.39954e-06 6.68607e-06 0)
(1.37552e-05 0.000198933 0)
(-1.37048e-06 2.15702e-05 0)
(8.11689e-09 7.0394e-08 0)
(5.51934e-06 0.000169587 0)
(-7.16885e-07 5.94073e-07 0)
(2.15314e-06 3.59682e-06 0)
(4.52169e-10 1.68236e-08 0)
(-9.53695e-08 1.66476e-07 0)
(-1.57136e-06 2.59295e-06 0)
(2.76544e-06 5.33516e-06 0)
(9.41378e-07 8.86295e-05 0)
(5.7232e-06 5.88838e-06 0)
(5.14088e-09 5.94987e-08 0)
(1.25309e-05 4.91809e-05 0)
(-5.32955e-06 6.03133e-05 0)
(2.71317e-06 1.19818e-05 0)
(1.37683e-06 6.58159e-06 0)
(-7.12415e-06 8.71055e-05 0)
(1.55419e-05 0.000296133 0)
(1.15449e-05 5.57857e-05 0)
(2.4245e-06 3.11969e-06 0)
(-2.1904e-10 6.00987e-09 0)
(1.63839e-05 0.000344876 0)
(1.60857e-09 3.78113e-08 0)
(-7.07999e-10 4.64756e-09 0)
(2.61732e-07 2.18175e-06 0)
(-4.22845e-09 6.77085e-06 0)
(1.30049e-05 4.29013e-05 0)
(3.71611e-06 6.2903e-06 0)
(-1.87982e-10 2.2205e-09 0)
(-5.51352e-12 3.91612e-11 0)
(-1.73398e-05 0.000137012 0)
(1.98318e-05 0.000137087 0)
(8.9465e-06 4.50158e-05 0)
(-1.53163e-09 1.90196e-08 0)
(-1.28643e-06 1.41189e-06 0)
(-4.38159e-12 1.42594e-10 0)
(8.23408e-07 1.16853e-05 0)
(-1.74252e-06 8.21807e-06 0)
(-1.02979e-05 4.9203e-05 0)
(-1.50242e-05 0.000164465 0)
(1.72487e-05 0.000164269 0)
(3.95806e-06 4.2355e-06 0)
(6.72863e-06 3.98164e-05 0)
(-1.18653e-10 1.34117e-09 0)
(3.01843e-06 6.65572e-06 0)
(1.83249e-06 2.49152e-06 0)
(-6.57294e-06 6.23596e-05 0)
(-5.30234e-06 5.06755e-05 0)
(7.04792e-06 9.36456e-06 0)
(3.39767e-06 8.55966e-06 0)
(1.43694e-06 1.45121e-06 0)
(5.43531e-06 3.42704e-05 0)
(-3.43691e-06 6.6083e-06 0)
(1.02774e-05 0.000114932 0)
(9.95683e-06 6.94172e-05 0)
(2.38589e-05 0.000184522 0)
(-2.16247e-05 0.000184513 0)
(-1.99883e-08 1.34779e-07 0)
(1.1037e-05 2.27107e-05 0)
(-1.86635e-06 8.19789e-06 0)
(8.66701e-06 0.000134855 0)
(-7.95841e-10 6.43362e-09 0)
(-1.71541e-05 0.000180883 0)
(-3.06322e-10 2.70676e-09 0)
(1.22458e-05 0.000106737 0)
(-1.50408e-06 1.38639e-05 0)
(8.9904e-06 1.95807e-05 0)
(-1.05768e-11 4.27781e-10 0)
(6.93018e-07 0.000263266 0)
(-6.80286e-09 6.18572e-08 0)
(-5.81765e-07 1.59255e-05 0)
(-4.93425e-07 1.22608e-05 0)
(6.22899e-06 1.68023e-05 0)
(-3.701e-06 6.37253e-06 0)
(-6.84218e-06 3.20571e-05 0)
(-1.24595e-05 5.63177e-05 0)
(-1.82639e-07 2.49454e-07 0)
(1.46139e-05 0.000200456 0)
(1.23345e-05 5.69336e-05 0)
(6.05955e-13 5.29118e-11 0)
(2.81994e-06 1.32712e-06 0)
(1.3471e-05 0.000233403 0)
(-1.01804e-08 6.7058e-08 0)
(-2.06712e-06 5.30817e-06 0)
(6.97736e-06 0.000100701 0)
(2.09354e-07 2.11232e-06 0)
(2.13473e-06 0.000138831 0)
(-1.6881e-06 3.30114e-06 0)
(-5.86287e-10 5.70046e-09 0)
(-6.27176e-07 6.70082e-07 0)
(5.24718e-10 1.18431e-08 0)
(1.80872e-06 1.56753e-05 0)
(-1.83363e-05 0.00029977 0)
(2.04454e-05 0.000299721 0)
(-3.51031e-06 2.73456e-05 0)
(-1.57329e-09 1.9703e-08 0)
(4.84567e-06 4.40109e-06 0)
(-1.25266e-09 1.01527e-08 0)
(8.86246e-06 3.32228e-05 0)
(2.68825e-05 0.000428664 0)
(-2.4662e-05 0.000428642 0)
(-1.12404e-11 1.6985e-10 0)
(-8.84547e-09 1.22043e-07 0)
(4.96614e-06 4.20475e-06 0)
(-3.77062e-06 3.62676e-05 0)
(-2.3434e-06 4.88102e-06 0)
(2.83739e-07 2.76509e-06 0)
(9.76817e-06 0.000268696 0)
(-1.50674e-06 4.58844e-05 0)
(6.57162e-11 8.2431e-10 0)
(1.18808e-06 5.4481e-05 0)
(2.19503e-05 0.000283761 0)
(-1.9561e-05 0.000283873 0)
(-1.18421e-11 7.40874e-10 0)
(1.22529e-10 3.10044e-09 0)
(6.73187e-06 4.56368e-05 0)
(-1.55163e-05 0.000300112 0)
(1.76333e-05 0.000300273 0)
(5.10474e-06 1.0496e-05 0)
(3.9771e-07 7.60698e-06 0)
(-1.13679e-10 1.27499e-09 0)
(1.03202e-05 0.000286557 0)
(5.86863e-06 1.59906e-05 0)
(5.24089e-07 5.60378e-06 0)
(1.83567e-05 0.00010928 0)
(-1.61158e-05 0.000109279 0)
(-5.75388e-06 1.5947e-05 0)
(7.99923e-06 1.59449e-05 0)
(5.39669e-06 5.36915e-06 0)
(-1.42981e-12 8.45006e-12 0)
(1.05275e-10 2.17378e-08 0)
(9.91668e-07 1.91246e-05 0)
(3.69581e-06 3.70516e-05 0)
(-2.17802e-10 1.47053e-09 0)
(5.62637e-06 6.42429e-06 0)
(1.43481e-06 2.32823e-06 0)
(3.20685e-12 6.33232e-10 0)
(1.24038e-05 7.00831e-05 0)
(-2.07281e-05 0.000274243 0)
(2.29697e-05 0.000274243 0)
(-7.30651e-07 1.28506e-06 0)
(-2.66591e-06 3.34153e-05 0)
(5.68936e-06 1.60201e-05 0)
(1.51567e-05 0.000298392 0)
(1.1031e-06 1.42868e-05 0)
(-1.06423e-10 2.03071e-09 0)
(4.65565e-06 5.21928e-06 0)
(-2.50137e-11 1.51541e-09 0)
(-3.70887e-09 6.45519e-08 0)
(-5.99199e-06 6.00355e-05 0)
(-5.36173e-07 4.28839e-07 0)
(-7.88597e-07 1.60468e-05 0)
(-1.94269e-06 2.47221e-06 0)
(2.33429e-05 0.000285752 0)
(-2.1019e-05 0.000285815 0)
(5.21582e-06 0.000168171 0)
(1.13989e-05 0.000289015 0)
(-2.74785e-06 3.37764e-05 0)
(-3.47837e-07 3.26355e-07 0)
(2.93644e-06 6.71103e-06 0)
(-4.02899e-08 1.43616e-07 0)
(5.34235e-06 3.45968e-05 0)
(-1.8824e-10 2.44609e-09 0)
(-3.44687e-06 7.73199e-06 0)
(-7.31076e-06 3.22744e-05 0)
(-3.81132e-06 1.68034e-05 0)
(1.74585e-06 1.43737e-05 0)
(-1.40191e-06 2.18948e-05 0)
(2.03366e-06 3.09822e-06 0)
(-1.91906e-07 4.78837e-06 0)
(1.58605e-05 0.000209035 0)
(2.85565e-06 1.83952e-06 0)
(4.95368e-06 1.05409e-05 0)
(-5.05778e-06 1.24494e-05 0)
(6.52237e-06 4.02337e-05 0)
(6.76269e-07 3.27702e-06 0)
(3.31123e-06 1.27544e-05 0)
(-2.20855e-06 9.75606e-05 0)
(-5.55105e-07 4.38033e-07 0)
(1.16401e-05 5.64671e-05 0)
(1.16873e-05 2.58399e-05 0)
(-7.10424e-07 6.13828e-07 0)
(-1.0742e-05 0.000218656 0)
(1.30652e-05 0.000218609 0)
(4.79874e-09 7.01988e-08 0)
(-3.20199e-06 0.000256033 0)
(-1.17694e-06 6.9309e-06 0)
(4.20648e-11 1.40948e-09 0)
(6.82323e-06 1.73912e-05 0)
(-1.46805e-05 9.26581e-05 0)
(2.65459e-05 0.00032967 0)
(-2.4341e-05 0.0003297 0)
(-6.77983e-06 3.82817e-05 0)
(-2.24642e-12 6.34489e-10 0)
(4.29944e-07 1.19553e-05 0)
(-6.28616e-06 2.40824e-05 0)
(1.6598e-06 5.96316e-06 0)
(-8.05586e-06 7.78091e-05 0)
(-3.24006e-06 2.75417e-05 0)
(1.19446e-09 3.60831e-08 0)
(-6.9942e-11 5.68059e-10 0)
(1.54932e-06 2.00429e-05 0)
(1.0736e-05 0.000117855 0)
(2.92227e-06 0.000139914 0)
(-5.93477e-07 1.24367e-05 0)
(-2.44525e-11 1.4629e-09 0)
(-2.55271e-11 1.72435e-10 0)
(-5.98028e-06 2.40615e-05 0)
(-5.06191e-07 2.53923e-07 0)
(-1.61718e-05 0.000179706 0)
(1.62599e-06 6.00142e-07 0)
(3.03289e-06 5.56092e-06 0)
(-2.0212e-06 1.92817e-05 0)
(-2.48455e-10 1.66678e-09 0)
(-6.35143e-07 5.04762e-07 0)
(1.30353e-05 5.66988e-05 0)
(1.41544e-05 5.50658e-05 0)
(1.2174e-05 3.57808e-05 0)
(1.29799e-05 0.000208603 0)
(-6.33662e-06 0.000274952 0)
(7.75427e-06 0.000101598 0)
(2.03479e-06 7.62541e-06 0)
(2.60932e-06 1.21415e-05 0)
(1.09269e-05 2.72579e-05 0)
(-1.08554e-05 4.89629e-05 0)
(-4.04472e-06 1.19705e-05 0)
(-8.12281e-06 3.2119e-05 0)
(-1.88918e-12 4.86562e-11 0)
(1.73915e-09 3.86772e-08 0)
(4.02086e-07 1.97051e-06 0)
(-4.4041e-06 8.94599e-06 0)
(-4.16832e-09 1.14581e-07 0)
(-3.87977e-06 3.66439e-05 0)
(2.18492e-06 7.4576e-06 0)
(1.64136e-06 5.42364e-05 0)
(-1.05553e-10 1.93999e-09 0)
(-2.33824e-06 2.30473e-05 0)
(1.94236e-06 7.70104e-06 0)
(-1.92628e-06 4.15243e-05 0)
(-1.14304e-06 1.17182e-06 0)
(2.83674e-05 0.000289527 0)
(-2.61259e-05 0.000289527 0)
(1.40019e-05 0.000235878 0)
(2.01957e-05 9.98907e-05 0)
(-1.79547e-05 9.98908e-05 0)
(-5.99506e-06 2.2688e-05 0)
(-1.63365e-06 1.98193e-06 0)
(1.15014e-09 2.60314e-08 0)
(-3.79247e-06 1.51697e-05 0)
(1.09661e-05 2.34858e-05 0)
(-2.27293e-07 2.71986e-07 0)
(-9.47925e-10 6.85645e-09 0)
(-2.43802e-05 0.00026114 0)
(2.66227e-05 0.00026114 0)
(3.51815e-06 8.62529e-06 0)
(-1.95207e-06 1.15248e-05 0)
(1.03755e-06 8.65611e-06 0)
(6.04135e-06 1.51834e-05 0)
(4.88435e-06 3.28061e-05 0)
(5.87855e-09 6.80002e-08 0)
(2.62894e-06 2.05777e-06 0)
(-3.70196e-06 6.48375e-06 0)
(9.1382e-07 8.7557e-06 0)
(-9.01376e-07 6.9025e-06 0)
(1.82316e-05 0.000110305 0)
(-1.59937e-05 0.000110289 0)
(-5.67852e-09 5.72428e-08 0)
(5.62885e-06 6.52156e-06 0)
(-8.27183e-12 8.57332e-11 0)
(5.09933e-06 6.32437e-06 0)
(-6.91664e-11 7.32295e-10 0)
(3.67431e-06 1.46566e-05 0)
(4.42492e-06 3.28199e-05 0)
(1.28126e-07 -9.72573e-08 0)
(-8.73044e-06 2.34751e-05 0)
(-9.65241e-11 1.64213e-09 0)
(1.29506e-06 6.7455e-07 0)
(-8.12597e-07 6.44834e-07 0)
(3.80832e-06 1.45313e-05 0)
(1.31092e-09 5.82662e-08 0)
(-9.99533e-06 0.000219965 0)
(1.2272e-05 0.000219958 0)
(-4.68121e-06 9.10033e-06 0)
(8.92221e-06 2.35868e-05 0)
(1.46549e-06 1.98398e-06 0)
(-4.04188e-06 7.28781e-05 0)
(5.80323e-06 7.00544e-06 0)
(-1.43441e-06 1.55334e-06 0)
(4.74966e-09 9.13949e-08 0)
(1.15801e-06 1.94137e-05 0)
(8.77236e-07 0.000104514 0)
(1.9482e-10 7.32829e-09 0)
(-5.92631e-08 1.73483e-07 0)
(-2.32734e-06 5.804e-06 0)
(-1.97528e-05 0.000249605 0)
(2.19946e-05 0.000249605 0)
(-7.0381e-07 2.52004e-06 0)
(-4.06796e-12 3.94869e-11 0)
(8.81939e-06 0.000241829 0)
(-4.70139e-07 9.5663e-06 0)
(-3.66173e-06 2.40132e-05 0)
(-9.15234e-07 7.0209e-06 0)
(6.94333e-06 4.52406e-05 0)
(-6.08979e-07 5.17108e-07 0)
(-5.62469e-06 1.36693e-05 0)
(7.85895e-06 1.36759e-05 0)
(-1.9665e-06 5.21269e-06 0)
(-2.31932e-08 -1.09496e-08 0)
(2.16479e-09 4.81001e-08 0)
(-7.38394e-06 3.27943e-05 0)
(3.48252e-06 1.28947e-05 0)
(5.6909e-06 6.97526e-06 0)
(4.63518e-06 3.58955e-06 0)
(1.46222e-05 8.99033e-05 0)
(9.19032e-08 -6.8538e-08 0)
(-5.82585e-07 4.94232e-07 0)
(-1.85205e-06 1.59101e-05 0)
(-8.31209e-07 1.17698e-05 0)
(-5.89575e-06 5.93028e-05 0)
(-7.21626e-06 3.86471e-05 0)
(4.31924e-07 5.60241e-06 0)
(-7.15248e-07 5.1573e-07 0)
(4.97714e-07 0.000269289 0)
(-1.1325e-07 2.96529e-06 0)
(6.16816e-06 1.02157e-05 0)
(3.35491e-07 4.20596e-06 0)
(-1.1108e-07 1.84713e-07 0)
(-1.82984e-12 1.22565e-10 0)
(-1.11697e-06 3.92191e-06 0)
(-1.59431e-11 1.67402e-09 0)
(-3.66509e-06 1.6602e-05 0)
(-2.0483e-06 7.85034e-06 0)
(7.26409e-06 6.1946e-05 0)
(-6.78783e-08 1.61412e-07 0)
(-6.11359e-08 1.2453e-07 0)
(-2.61482e-05 0.000297281 0)
(2.83899e-05 0.000297281 0)
(-2.30268e-06 3.3301e-06 0)
(-5.45842e-07 6.85309e-07 0)
(-1.05311e-11 4.19829e-11 0)
(5.39154e-10 2.80295e-08 0)
(2.07622e-05 0.000116494 0)
(-1.86125e-05 0.000116504 0)
(-7.64173e-06 0.000134425 0)
(1.41275e-10 7.34981e-09 0)
(3.90808e-06 1.31284e-05 0)
(-8.72118e-07 7.58076e-07 0)
(-5.22368e-06 1.02622e-05 0)
(4.74559e-06 1.61067e-05 0)
(-8.93317e-07 6.59383e-07 0)
(-2.73215e-06 2.26241e-05 0)
(2.02545e-07 -4.46486e-08 0)
(-2.65369e-07 1.76239e-07 0)
(-2.24927e-07 2.43625e-07 0)
(-1.67312e-06 2.14766e-06 0)
(4.93604e-07 1.35583e-06 0)
(3.05598e-06 5.72016e-06 0)
(4.04684e-06 1.46125e-05 0)
(-1.13533e-11 1.57272e-10 0)
(-9.58629e-07 1.91988e-06 0)
(-1.68529e-06 2.04831e-06 0)
(-2.0387e-06 4.56214e-06 0)
(2.26812e-06 7.54171e-06 0)
(3.31047e-09 9.25335e-08 0)
(-1.56076e-05 9.24627e-05 0)
(5.23388e-08 6.21777e-05 0)
(7.34489e-06 0.000263469 0)
(-3.11935e-07 1.32561e-07 0)
(1.09495e-06 2.52987e-05 0)
(2.21136e-09 3.55138e-08 0)
(4.43378e-10 9.23473e-09 0)
(1.14014e-06 8.03066e-07 0)
(2.12826e-06 3.10745e-06 0)
(6.44556e-06 1.68206e-05 0)
(5.17967e-06 0.000173832 0)
(7.92265e-06 0.000356092 0)
(5.44169e-06 0.000403346 0)
(1.84297e-06 9.2083e-06 0)
(3.26944e-06 6.30647e-06 0)
(1.69681e-09 2.91728e-08 0)
(-1.34086e-06 1.40929e-06 0)
(5.71454e-06 6.00463e-06 0)
(4.09838e-06 1.32001e-05 0)
(-6.7499e-12 4.67414e-11 0)
(-1.24507e-07 3.0933e-05 0)
(1.77902e-06 9.08457e-06 0)
(-1.69969e-07 2.42023e-07 0)
(4.50004e-06 6.37464e-05 0)
(5.45698e-06 8.73208e-05 0)
(5.58856e-07 1.58916e-05 0)
(1.06985e-05 2.73882e-05 0)
(2.94411e-06 5.5108e-06 0)
(-3.46136e-10 3.11231e-09 0)
(-3.91282e-06 2.42321e-05 0)
(-3.57778e-10 3.2334e-09 0)
(1.35864e-05 0.000109233 0)
(2.81053e-06 6.31667e-06 0)
(-2.7153e-06 4.11889e-05 0)
(4.60708e-06 9.79189e-05 0)
(1.32264e-10 4.50728e-09 0)
(-1.19715e-11 4.12216e-11 0)
(1.6093e-06 1.10562e-05 0)
(-1.28085e-09 1.10655e-07 0)
(2.68135e-06 5.1638e-06 0)
(-2.06853e-06 1.14375e-05 0)
(-2.97979e-06 1.22528e-05 0)
(-5.86801e-06 2.33566e-05 0)
(-1.88599e-05 0.000365533 0)
(2.12516e-05 0.000365552 0)
(3.9732e-06 5.76681e-06 0)
(6.79239e-09 6.16123e-08 0)
(-1.62784e-06 3.6525e-06 0)
(6.28221e-06 1.01495e-05 0)
(-9.46783e-09 1.22531e-07 0)
(4.5661e-06 1.61147e-05 0)
(-1.45292e-06 1.56082e-06 0)
(-7.40547e-07 5.02467e-07 0)
(-1.5861e-06 1.55347e-05 0)
(5.41507e-07 0.000105447 0)
(-2.57691e-10 5.94195e-09 0)
(-5.33285e-06 1.0503e-05 0)
(-8.96954e-06 9.16654e-05 0)
(-2.7422e-07 2.95553e-07 0)
(1.64342e-06 1.83616e-06 0)
(-4.68535e-06 1.51486e-05 0)
(2.07463e-07 -8.42515e-08 0)
(6.92476e-06 1.51505e-05 0)
(-5.26184e-12 3.39413e-11 0)
(-8.36828e-06 2.14895e-05 0)
(1.77474e-06 5.76834e-06 0)
(-1.0047e-05 0.000311545 0)
(1.30779e-05 4.84318e-05 0)
(1.57872e-06 7.4345e-06 0)
(-2.30549e-07 2.50567e-07 0)
(-7.59328e-06 0.000368465 0)
(-2.03794e-12 1.95355e-11 0)
(5.01038e-09 4.45374e-08 0)
(-3.85935e-07 3.13756e-07 0)
(2.1177e-07 5.22024e-06 0)
(2.2724e-06 1.08408e-05 0)
(-4.42518e-06 9.66136e-05 0)
(7.79274e-06 1.25493e-05 0)
(4.53497e-12 1.42221e-10 0)
(-1.17984e-05 0.000129593 0)
(-1.2315e-09 3.37153e-08 0)
(-1.97951e-06 1.1725e-05 0)
(7.72976e-07 3.43131e-05 0)
(9.23395e-06 3.6559e-05 0)
(1.49758e-05 0.000102584 0)
(-1.27349e-05 0.000102584 0)
(1.3899e-05 0.000145449 0)
(-1.16306e-05 0.000145431 0)
(-7.83136e-12 7.82041e-11 0)
(-4.24862e-06 0.000182151 0)
(5.89124e-11 8.02961e-10 0)
(8.55009e-06 0.00017481 0)
(-1.31497e-06 2.56052e-05 0)
(5.31974e-06 5.1458e-06 0)
(6.51613e-06 3.72971e-05 0)
(2.47844e-09 1.04336e-07 0)
(4.92064e-06 4.3649e-06 0)
(1.46477e-06 8.27494e-07 0)
(4.28807e-06 7.26368e-06 0)
(9.43098e-06 4.38502e-05 0)
(2.66922e-05 0.000288531 0)
(-2.44507e-05 0.000288531 0)
(1.78324e-06 5.67628e-06 0)
(1.74163e-11 4.29696e-10 0)
(3.61207e-11 7.03186e-10 0)
(1.64079e-07 -8.46328e-08 0)
(5.58591e-06 5.77728e-06 0)
(-1.59076e-05 9.89755e-05 0)
(1.81485e-05 9.89754e-05 0)
(-2.43761e-06 6.10009e-05 0)
(4.5131e-07 3.07592e-06 0)
(-8.57022e-07 8.15067e-07 0)
(2.08376e-05 0.000117507 0)
(-1.8599e-05 0.000117535 0)
(1.46879e-05 0.000107766 0)
(6.82143e-07 1.17806e-05 0)
(2.6919e-06 9.72365e-06 0)
(1.49836e-05 0.000145134 0)
(-1.2715e-05 0.000145116 0)
(-2.75591e-06 0.000111724 0)
(5.27685e-13 5.20203e-11 0)
(1.62008e-06 1.91112e-06 0)
(1.81928e-06 2.01798e-06 0)
(-3.60233e-10 4.07146e-09 0)
(2.73145e-06 0.000274139 0)
(-3.17634e-06 7.78425e-06 0)
(6.01511e-06 8.33931e-05 0)
(-4.58719e-06 0.00010072 0)
(1.41625e-05 0.000162119 0)
(-1.1916e-05 0.000162192 0)
(-1.6319e-12 1.08789e-11 0)
(6.99068e-06 4.61107e-05 0)
(1.21213e-05 5.7689e-05 0)
(-1.49729e-06 2.53542e-06 0)
(-2.39303e-06 2.26982e-05 0)
(1.40583e-06 2.88558e-05 0)
(-6.68333e-11 6.64043e-10 0)
(9.46924e-06 2.19665e-05 0)
(-5.14788e-06 1.00104e-05 0)
(6.23955e-07 3.20203e-06 0)
(-2.96387e-10 3.24172e-09 0)
(-8.98034e-07 7.83315e-07 0)
(-1.40993e-06 3.78633e-06 0)
(-6.17584e-08 1.76648e-07 0)
(-4.7145e-06 0.000128583 0)
(1.9678e-06 1.9389e-06 0)
(-1.37328e-07 1.9553e-07 0)
(1.95786e-09 3.07664e-08 0)
(3.6287e-06 3.74462e-05 0)
(-3.95619e-06 1.12311e-05 0)
(-2.53076e-06 5.16391e-06 0)
(-4.43984e-11 8.42645e-10 0)
(2.44866e-06 3.04049e-06 0)
(-8.66818e-10 4.99765e-08 0)
(-2.39887e-06 5.08714e-06 0)
(3.32655e-06 6.40411e-06 0)
(6.66182e-06 0.000175428 0)
(-1.23072e-11 1.39302e-10 0)
(5.1592e-06 5.22142e-06 0)
(-2.51022e-05 0.000299087 0)
(2.7344e-05 0.000299087 0)
(3.78517e-10 1.21568e-08 0)
(-6.15605e-06 2.33525e-05 0)
(7.76668e-07 1.5569e-07 0)
(6.63835e-06 0.000353482 0)
(4.09042e-07 1.21328e-06 0)
(-6.23322e-09 6.09178e-08 0)
(-4.70015e-06 9.75568e-05 0)
(-1.62309e-09 2.39807e-08 0)
(-2.4271e-11 1.52542e-10 0)
(4.08425e-06 2.94656e-05 0)
(9.21147e-06 3.31866e-05 0)
(4.79738e-07 -2.53438e-08 0)
(4.15007e-06 2.54468e-05 0)
(-8.17192e-06 3.45528e-05 0)
(1.32232e-05 5.60056e-05 0)
(-8.23096e-07 1.0082e-06 0)
(-7.88767e-06 3.34712e-05 0)
(7.48844e-12 4.34324e-10 0)
(5.40322e-06 9.87767e-05 0)
(-1.0949e-06 2.52321e-05 0)
(-1.05955e-05 3.34065e-05 0)
(9.22157e-07 1.42709e-06 0)
(5.00425e-06 2.94345e-05 0)
(-9.67952e-08 4.79626e-06 0)
(1.85878e-10 4.5233e-09 0)
(-1.15343e-05 8.82557e-05 0)
(-3.05194e-06 7.7926e-06 0)
(2.97755e-06 5.75661e-06 0)
(7.83402e-07 3.32239e-06 0)
(9.45852e-06 2.72854e-05 0)
(1.34656e-05 5.46987e-05 0)
(-5.65445e-06 2.80225e-05 0)
(1.48329e-05 5.49137e-05 0)
(-2.30593e-08 1.2747e-07 0)
(-2.78217e-06 1.53535e-05 0)
(6.34816e-06 4.20539e-05 0)
(-1.34822e-10 8.19585e-10 0)
(-1.70177e-06 0.000165162 0)
(-6.54335e-08 7.30651e-08 0)
(1.45413e-05 0.000108659 0)
(9.17491e-06 3.69358e-05 0)
(1.07062e-06 2.57037e-05 0)
(2.04544e-11 4.48446e-10 0)
(-8.05979e-07 3.83145e-05 0)
(-5.50718e-06 5.43841e-05 0)
(1.12944e-05 6.83294e-05 0)
(-8.1133e-08 1.59651e-07 0)
(-5.3716e-06 1.16722e-05 0)
(-4.67208e-07 3.0172e-07 0)
(-8.16439e-06 9.0932e-05 0)
(-1.48992e-07 -3.7416e-08 0)
(-2.06056e-07 8.54344e-06 0)
(-5.41771e-06 6.22123e-05 0)
(-8.51568e-10 2.87014e-08 0)
(-1.3353e-06 9.79702e-05 0)
(-9.14538e-06 5.55166e-05 0)
(-1.61824e-06 1.9937e-06 0)
(-3.66983e-12 3.20033e-11 0)
(-3.64105e-06 8.59887e-06 0)
(-9.58197e-06 4.13133e-05 0)
(-7.9878e-07 1.03267e-06 0)
(2.02061e-09 3.9654e-08 0)
(-1.78177e-06 3.73796e-06 0)
(2.74355e-06 2.12053e-06 0)
(-2.17984e-05 0.000157908 0)
(2.40392e-05 0.000157909 0)
(4.62444e-06 2.36982e-05 0)
(2.9371e-06 1.93599e-05 0)
(1.50151e-06 1.14253e-05 0)
(1.6845e-06 1.21633e-05 0)