/*--------------------------------*- C++ -*----------------------------------*\
| =========                 |                                                 |
| \\      /  F ield         | OpenFOAM: The Open Source CFD Toolbox           |
|  \\    /   O peration     | Version:  v3.0+                                 |
|   \\  /    A nd           | Web:      www.OpenFOAM.com                      |
|    \\/     M anipulation  |                                                 |
\*---------------------------------------------------------------------------*/
FoamFile
{
    version     2.0;
    format      ascii;
    class       volSymmTensorField;
    location    "9000";
    object      sigma;
}
// * * * * * * * * * * * * * * * * * * * * * * * * * * * * * * * * * * * * * //

dimensions      [1 -1 -2 0 0 0 0];

internalField   nonuniform List<symmTensor> 
24076
(
(-7.93028e+07 2.48635e+06 -5.07195e-12 730449 1.38187e-13 -1.94954e+07)
(-7646.53 -89581.4 4.26944e-15 1.04931e+06 -7.53084e-15 258459)
(-197.408 -1971.61 -6.05848e-17 15519.5 1.55709e-16 3801.72)
(350.597 -1483.69 -1.77387e-17 16030.7 1.22404e-16 4064.54)
(-1.18195e+07 4.51826e+06 2.74291e-12 6.17077e+06 -9.9823e-13 -1.40156e+06)
(-3841.93 -68583.1 1.41865e-15 1.21915e+06 4.48824e-14 301544)
(7244.19 -103808 -1.06145e-16 1.08787e+06 -1.42671e-14 271721)
(-8.45714e+07 1.50383e+06 -6.43275e-12 445978 1.61366e-12 -2.08732e+07)
(262.985 -968.8 -1.26007e-18 1169.75 5.10047e-17 355.491)
(-7.22091e+07 -1.22802e+06 5.45245e-12 92025.8 -1.2729e-11 -1.78937e+07)
(5.62397e+07 -8.36209e+06 -1.11842e-12 1.25786e+07 2.10972e-12 1.70752e+07)
(-7.02009e+07 -1.1334e+06 -2.17198e-12 -19929.5 6.41596e-12 -1.74232e+07)
(-3.48685e+07 9.69783e+06 -2.16394e-12 2.27485e+06 -2.00458e-12 -8.08715e+06)
(-7.54482e+06 5.04478e+06 -2.93707e-12 6.02317e+06 -7.3996e-13 -377552)
(-8.67129e+07 -1.05539e+06 1.06497e-12 -412140 -9.37924e-12 -2.16175e+07)
(-6.74187e+06 -1.8796e+06 -6.14353e-12 -256131 -1.53769e-11 -1.73635e+06)
(4.60307e+07 -831003 8.31667e-12 -51587.5 -3.43477e-11 1.14084e+07)
(-4.67651e+07 -1.14647e+06 -1.03756e-11 44153 2.74079e-11 -1.15924e+07)
(-595315 -3.21535e+06 -1.12758e-11 406711 6.32454e-12 -46796.5)
(-8.7418e+06 -3.43442e+06 -2.03433e-11 -174391 1.83692e-11 -2.21229e+06)
(-8.5366e+07 213777 5.52156e-13 -374066 -2.85164e-12 -2.12739e+07)
(4.89119e+07 -4.19814e+06 1.35643e-12 6.77012e+06 -3.49919e-12 1.38158e+07)
(-7563.73 -64437 1.79544e-15 1.53728e+06 -1.82295e-16 379553)
(5.71039e+07 -7.5758e+06 1.99211e-12 1.21399e+07 -4.50866e-13 1.71808e+07)
(1.86421e+06 7.69992e+06 3.33563e-13 3.8647e+06 -3.52866e-13 1.42146e+06)
(3.13549e+06 -2.07732e+06 -9.42157e-12 328395 5.73724e-12 859461)
(2.37274e+06 -3.87013e+06 -3.3295e-14 6.06483e+06 1.92649e-14 2.09353e+06)
(5234.71 -83775.7 -2.09988e-15 1.2238e+06 1.10925e-14 304949)
(6.04539e+06 -2.77453e+06 -1.13095e-11 -313800 -9.92588e-13 1.42212e+06)
(4.73464e+06 9.09645e+06 -6.56784e-12 4.00738e+06 -1.98634e-12 2.16907e+06)
(1.34494e+07 -2.21353e+06 4.58837e-12 -327129 8.10722e-12 3.25591e+06)
(13934.7 -74437.9 -1.25618e-15 288418 -3.87351e-15 75019.9)
(-3.1535e+07 -2.18812e+06 1.81078e-11 135454 2.30786e-12 -7.79086e+06)
(-2.56372e+07 -339359 2.70243e-12 3.26375e+06 -7.66772e-12 -5.55132e+06)
(-3.65987e+07 -3.13917e+06 1.52646e-11 -210803 -1.80526e-12 -9.1332e+06)
(-6.19055e+07 -2.3628e+06 8.91195e-12 45984.9 3.20022e-12 -1.53486e+07)
(-3.41218e+07 9.00614e+06 -4.27899e-12 1.66551e+06 -1.43842e-12 -8.05308e+06)
(4.72579e+07 515756 9.06095e-12 193909 -1.97277e-11 1.17738e+07)
(-4.7708e+07 369375 -1.91395e-12 -231879 4.14513e-11 -1.18948e+07)
(-8.68332e+07 51665.6 -2.48612e-12 -285472 -2.95025e-13 -2.16159e+07)
(2.61178e+07 -9.34274e+06 6.80162e-13 3.516e+06 -7.16938e-13 7.35274e+06)
(8.97391e+06 -2.20122e+06 -1.55372e-11 345470 -3.19404e-12 2.31233e+06)
(-2.60652e+07 7.26336e+06 -9.12128e-12 3.4156e+06 -3.44339e-12 -5.61982e+06)
(-2.2112e+07 -673121 -4.31371e-12 3.04629e+06 -2.35992e-12 -4.73058e+06)
(-5.79839e+07 -1.0352e+06 4.70262e-12 90249.2 3.97145e-12 -1.43646e+07)
(8.36177e+07 -1.41585e+06 -7.80047e-12 -31741.2 9.84676e-13 2.07394e+07)
(57636.8 -429583 3.40189e-15 1.33766e+06 9.18226e-15 346201)
(-2.08734e+07 -2.59789e+06 5.28609e-14 -9304.14 4.47459e-12 -5.18143e+06)
(3.18877e+06 -4.27246e+06 8.88214e-14 6.26464e+06 -5.03102e-14 2.34558e+06)
(6.1616e+07 -2.48658e+06 1.39226e-11 -137086 4.26945e-12 1.52542e+07)
(624.371 -2519.42 -4.1462e-16 42234.3 -1.10307e-15 10634.1)
(610029 -1.84717e+06 9.24286e-14 5.97226e+06 -1.45812e-13 1.6332e+06)
(1168.45 -2971.04 1.57841e-17 1780.47 -2.0088e-16 731.686)
(4133.34 -112592 5.82693e-15 1.32867e+06 1.36966e-14 330697)
(192.046 -941.869 -3.03718e-18 1124.05 -5.33931e-17 326.551)
(-3.52624e+07 -1.62825e+06 0 -283872 0 -8.81975e+06)
(-1.32109e+07 748321 9.78318e-13 4.24224e+06 1.22536e-12 -2.22531e+06)
(-8.88627e+07 -222279 6.98519e-12 58822.3 5.91614e-12 -2.2034e+07)
(-151565 -2.89653e+06 1.88932e-11 -44576.7 8.19687e-12 -48666.8)
(-4.11401e+07 -2.44899e+06 5.61439e-12 -267140 1.42583e-11 -1.0274e+07)
(8.38025e+07 214837 2.37141e-11 -211227 -3.25094e-11 2.07407e+07)
(70591.3 -416896 1.68081e-15 582930 1.96136e-14 162152)
(9.99594e+07 -232734 -3.48236e-13 -128081 1.23957e-11 2.47702e+07)
(5.77027e+07 -975442 -3.42237e-13 23556.9 -7.9966e-12 1.4323e+07)
(4.2073e+07 -3.08217e+06 -4.15437e-12 1.11481e+07 -3.3738e-12 1.32052e+07)
(-8.40927e+07 -866071 9.86182e-12 267098 1.14518e-11 -2.07988e+07)
(-2.35573e+07 1.65771e+06 -5.85535e-12 4.31653e+06 -3.16409e-12 -4.77403e+06)
(3.70589e+07 -2.31969e+06 -2.7706e-13 1.12814e+07 1.66753e-12 1.19942e+07)
(6138.24 -149968 3.21484e-15 813516 -1.63461e-15 203373)
(-2.19375e+07 1.10527e+06 2.93387e-12 3.97455e+06 -5.80468e-13 -4.45698e+06)
(-295374 -3.00396e+06 -4.00492e-11 -27899.7 -1.09947e-13 -80210.7)
(61030.5 -229790 -1.67228e-14 2.22253e+06 2.88879e-14 566598)
(6.27347e+07 -1.12771e+06 -2.76093e-12 -124822 -1.35913e-12 1.55348e+07)
(43276.6 -124216 -1.18242e-16 144041 -1.81304e-14 46477.3)
(2.41893e+07 -9.28106e+06 1.14918e-12 3.66752e+06 -1.12436e-12 6.91184e+06)
(-1.50717e+07 -1.90214e+06 -2.57142e-11 490324 1.03859e-11 -3.61794e+06)
(5.10152e+07 -5.90204e+06 3.3061e-12 7.4434e+06 -2.42199e-12 1.45048e+07)
(6.05561e+07 -1.69567e+06 -4.09636e-11 51114.2 2.377e-11 1.50379e+07)
(-5.5361e+07 850507 0 1.28913e+06 0 -1.34163e+07)
(1.0134e+08 -606508 -3.11273e-12 -222247 8.37678e-12 2.50893e+07)
(19386.6 -398548 -2.24805e-15 1.25759e+06 -3.26546e-14 316844)
(-1.9981e+07 -1.93709e+06 -7.68705e-12 -54641.4 -1.30536e-12 -4.97125e+06)
(2.70772e+07 -3.49456e+06 -5.20095e-12 3.68758e+06 2.62819e-12 7.63337e+06)
(1.50294e+07 3.92964e+06 0 7.56224e+06 0 5.60544e+06)
(9.43644e+06 -9.57134e+06 1.17126e-13 9.63226e+06 -9.89204e-15 4.73133e+06)
(1435.33 -2973.24 1.06932e-17 2019.86 -1.03919e-16 857.304)
(-1.58547e+07 -2.10833e+06 8.33741e-12 162329 -1.06174e-12 -3.89359e+06)
(5.0152e+07 -1.99507e+06 -1.44224e-11 -230737 1.83581e-11 1.23865e+07)
(219949 -2.85685e+06 -2.26642e-11 5392.83 1.54054e-11 55911.9)
(-1.01612e+07 -2.5395e+06 4.52164e-11 107944 -1.10503e-11 -2.49443e+06)
(-1.90191e+07 -3.51732e+06 9.18529e-12 268707 -7.69954e-12 -4.65235e+06)
(-236763 -2.97061e+06 -1.78457e-11 43497.5 2.77486e-11 -47953)
(4.82798e+07 -2.77364e+06 4.31777e-12 1.10124e+06 -4.17514e-12 1.22524e+07)
(-1.43428e+07 -523966 7.58149e-12 4.26005e+06 5.00993e-12 -2.50173e+06)
(1.4042e+07 4.01847e+06 2.70746e-12 8.38856e+06 2.55239e-12 5.56548e+06)
(4.57662e+07 -1.39324e+07 -1.11285e-12 1.17588e+07 1.54594e-12 1.42731e+07)
(7.54289e+06 -3.56404e+06 3.93875e-12 -402138 -2.13919e-11 1.77177e+06)
(-6.81339e+06 -3.07842e+06 0 85399.9 0 -1.66935e+06)
(6512.57 -80373.5 1.52366e-16 262470 2.85774e-15 66740.1)
(-2.33143e+07 4.46053e+06 2.43182e-12 4.78601e+06 3.28534e-12 -4.59724e+06)
(2.56045e+07 -3.06417e+06 1.09287e-11 3.48284e+06 3.87499e-12 7.21715e+06)
(4.33311e+07 -4.69977e+06 -2.45265e-12 1.04195e+07 4.98766e-13 1.33366e+07)
(1.04887e+07 -2.96373e+06 1.33539e-11 106505 -2.22915e-11 2.62889e+06)
(-5.65774e+07 694727 2.2771e-12 1.69292e+06 2.92411e-12 -1.36179e+07)
(1.52413e+07 -3.08192e+06 4.81497e-12 76168.1 1.28574e-11 3.80059e+06)
(2.48743e+07 -1.40706e+07 4.83898e-13 1.0744e+07 -7.86336e-13 8.83764e+06)
(11173 -37695.3 1.68147e-17 58930 -3.99265e-15 17394)
(-5376.03 -80322.9 2.14858e-15 1.84144e+06 -9.78235e-15 455564)
(7.48109e+07 -4.49422e+06 -7.68436e-12 1.84593e+06 -1.71186e-12 1.90201e+07)
(2.78701e+07 -3.30269e+06 -1.74165e-11 92036.4 1.99535e-12 6.93797e+06)
(6.62689e+06 -1.82587e+06 1.25742e-11 62761.6 -3.05312e-12 1.65984e+06)
(-1.48413e+07 -2.39346e+06 1.41374e-11 462651 -1.71866e-11 -3.56764e+06)
(166.072 -1294.4 -2.59868e-17 3509.47 2.30736e-17 911.978)
(110996 -444521 7.40887e-16 646516 1.01589e-14 187954)
(-1.18978e+07 -1.55083e+06 -1.13112e-11 145233 3.44153e-11 -2.91605e+06)
(-342.43 -3806.42 -4.24957e-16 39018.2 -1.68189e-15 9596.25)
(5.02519e+07 -6.22883e+06 1.93412e-12 1.22117e+07 -1.02157e-12 1.54985e+07)
(2.35319e+07 -1.67277e+06 -7.19743e-12 -400635 -9.88701e-13 5.73934e+06)
(-8.05885e+06 -2.29099e+06 -4.08635e-12 -22294.3 -4.88901e-11 -2.0051e+06)
(3.12832e+07 -2.63435e+06 7.83965e-12 -174608 7.4502e-12 7.71868e+06)
(4.78189e+06 -3.03015e+06 2.65899e-12 -335009 7.13155e-12 1.10336e+06)
(5.25537e+07 -850722 5.34975e-12 12727 2.36658e-12 1.30428e+07)
(2.14511e+07 -1.52435e+07 -4.62035e-13 1.41027e+07 6.44342e-13 8.82161e+06)
(-8.31161e+07 1.89112e+06 -2.41496e-12 944461 -1.31827e-12 -2.03884e+07)
(-5.46332e+07 -2.39894e+06 0 218138 0 -1.35015e+07)
(4.79334e+07 -906616 4.40897e-12 -369663 6.95366e-14 1.18015e+07)
(7.46047e+07 -2.62667e+06 2.04155e-12 1.45515e+06 2.45348e-12 1.8872e+07)
(-4.45201e+07 -1.17393e+06 -4.4552e-12 138847 4.26453e-12 -1.10119e+07)
(1.62074e+07 -1.84929e+06 4.86751e-13 70312.2 1.80224e-13 4.03883e+06)
(917.19 -18715.2 7.9218e-17 194395 -1.56474e-15 48460.8)
(5.20892e+07 -2.35822e+06 -6.67879e-12 -107357 -1.01407e-12 1.28977e+07)
(3.03833e+07 -1.82585e+06 9.40319e-12 249099 2.64063e-11 7.60051e+06)
(2.30739e+07 -2.61323e+06 6.33379e-12 -165518 -4.43858e-11 5.68405e+06)
(12624.1 -99833 4.09436e-15 1.59304e+06 -2.78759e-14 398397)
(4.97027e+07 -2.688e+06 -4.68826e-12 979881 5.51664e-12 1.25754e+07)
(967248 -2.29111e+06 -1.50812e-13 8.0522e+06 1.68432e-13 2.23791e+06)
(-4.01317e+06 -1.99065e+06 1.18486e-11 1.25317e+06 -1.41467e-12 -684813)
(-2.64081e+07 8.50932e+06 -5.7808e-12 3.8428e+06 -4.4848e-12 -5.5989e+06)
(-3.40072e+06 -1.69616e+06 -3.45846e-11 -124397 1.32699e-12 -874653)
(-8.42821e+06 -1.82722e+06 -7.44642e-13 1.13678e+06 -3.05394e-12 -1.80915e+06)
(-1.28251e+07 -2.2825e+06 2.53233e-12 1.24186e+06 -4.60762e-12 -2.87403e+06)
(353.471 -1439.18 1.19503e-17 3529.83 1.05168e-16 963.527)
(4.34207e+06 -3.66648e+06 4.34098e-14 1.97352e+06 -1.28897e-13 1.56703e+06)
(5.50483e+06 -2.8032e+06 -2.72432e-11 13575.6 -1.26157e-11 1.36923e+06)
(-2.45897e+07 -1.53474e+06 -3.57069e-11 -254624 5.32033e-12 -6.16438e+06)
(-1.30692e+07 -2.87619e+06 -2.34734e-12 162331 -4.5826e-13 -3.20245e+06)
(2.13874e+07 -1.84258e+06 1.21989e-12 313094 -8.38129e-12 5.38432e+06)
(-3.00541e+07 -2.44939e+06 -3.48408e-11 -6744.7 -3.11776e-12 -7.4587e+06)
(-1.0813e+06 -2.52192e+06 -8.80131e-12 1.08246e+06 -5.46871e-12 287.547)
(1940.33 -11433.4 6.27904e-16 93930.1 1.84216e-15 23787.4)
(6.80504e+07 -1.6061e+06 -5.69364e-12 248124 -1.8798e-12 1.69463e+07)
(296.56 -695.252 5.86955e-18 187.718 -4.59552e-17 120.159)
(-4.56031e+07 7.86289e+06 -8.64104e-13 132217 -2.14601e-13 -1.12823e+07)
(-2.3496e+07 5.40789e+06 3.80939e-12 4.29647e+06 2.65422e-12 -4.76378e+06)
(-5.54451e+07 -1.23312e+06 2.68108e-12 443027 -2.39717e-12 -1.36471e+07)
(-7.95917e+06 -3.26747e+06 3.31758e-11 584301 -2.7229e-11 -1.82985e+06)
(-8.29776e+07 1.5733e+06 3.49959e-13 -249283 5.35681e-13 -2.06503e+07)
(1.47029e+07 -2.23254e+06 -7.8251e-12 111677 3.5529e-13 3.6758e+06)
(-4.59895e+06 -2.89737e+06 8.90658e-12 1.70005e+06 -1.04067e-11 -719277)
(1865.14 -8482.11 1.00522e-16 20782 8.41801e-16 5619.23)
(2.17411e+06 6.20617e+06 -1.00052e-13 -4.0473e+06 1.82178e-13 -464777)
(239.306 -934.077 0 883.117 0 278.496)
(-8.96779e+07 23080.4 8.83801e-12 -83408.3 -1.32238e-13 -2.22716e+07)
(9.61599e+07 -5.07079e+06 9.43666e-13 2.31873e+06 -1.72093e-12 2.44346e+07)
(985762 -3.08835e+06 6.09902e-12 -321948 -1.29851e-11 164706)
(-3.52081e+07 -795384 -3.51613e-11 116247 -2.89166e-11 -8.707e+06)
(3.51712e+07 -815613 -8.79167e-12 -123574 3.09223e-11 8.69603e+06)
(3.73354e+07 -1.93335e+06 -1.40516e-13 170690 7.04927e-13 9.30602e+06)
(5.28396e+07 -5.99089e+06 -5.01917e-12 1.04891e+07 2.74926e-12 1.57131e+07)
(2.14016e+07 -5.86216e+06 -1.80177e-13 -838386 1.07972e-13 5.10215e+06)
(-3.45676e+07 -1.09343e+06 -7.92923e-12 1.49975e+06 -2.45845e-12 -8.20481e+06)
(3673.44 -29237.3 -2.37396e-14 1.68803e+06 4.67356e-14 419746)
(7.95091e+06 -2.25599e+06 -3.74239e-12 93283.6 -3.012e-12 1.99593e+06)
(-2.45788e+07 -2.19609e+06 3.29179e-12 401437 -6.8242e-12 -5.9989e+06)
(5.53848e+07 -1.39397e+06 -3.9671e-12 -29795.7 -5.83545e-12 1.37347e+07)
(-5.52344e+07 -1.4081e+06 6.98156e-12 151877 -1.05675e-11 -1.36671e+07)
(5.27338e+07 -1.95904e+06 6.41349e-12 -90302.7 -1.30067e-11 1.30619e+07)
(-5.22467e+07 -1.98501e+06 7.89897e-12 -19174.1 -5.3816e-12 -1.29682e+07)
(-7.98746e+07 262718 -1.28731e-12 69521.1 2.73217e-11 -1.98013e+07)
(7.51631e+07 -1.88681e+06 -1.07006e-11 -94950.4 7.85056e-12 1.86259e+07)
(9.68779e+07 -584703 8.69982e-12 -119250 -7.5492e-13 2.40078e+07)
(129659 -328316 -8.0524e-16 176561 9.88632e-15 75979.4)
(-3.80464e+07 1.36642e+06 5.5682e-12 2.54215e+06 -1.09024e-12 -8.80932e+06)
(1.12572e+07 1.74729e+06 -2.10114e-13 -4.05395e+06 1.57666e-13 1.78728e+06)
(1.18225e+07 1.86053e+06 3.74548e-13 -4.71046e+06 -2.40261e-13 1.76465e+06)
(1.95261e+07 -422844 -1.76467e-12 9.04138e+06 1.8464e-12 7.08816e+06)
(5.33624e+07 -4.69645e+06 5.67495e-13 1.00209e+07 -3.09626e-12 1.57267e+07)
(8.45043e+06 -1.56524e+07 0 2.94159e+07 0 9.39542e+06)
(6.99459e+07 -1.15746e+07 -4.35644e-13 1.22977e+07 2.63842e-12 2.04063e+07)
(-2.48649e+07 1.152e+07 -6.30275e-13 -418426 6.09894e-13 -6.2733e+06)
(-3131.33 -14768 -1.32952e-15 341260 1.3096e-15 83896.5)
(4.92094e+07 -2.61278e+06 -1.34597e-12 -38083.6 -1.44495e-12 1.22004e+07)
(2.08301e+07 -2.6683e+06 -1.57903e-11 290257 -1.13153e-11 5.2404e+06)
(4.48002e+07 -1.15893e+06 -2.25194e-11 -61302.2 -9.00398e-12 1.11006e+07)
(-2.84717e+07 -2.44563e+06 3.82487e-12 -16260.5 2.32874e-11 -7.06845e+06)
(-8.15161e+07 -269442 -5.55102e-12 179897 -2.03632e-12 -2.01812e+07)
(-362.279 -90197.4 -2.54823e-15 1.27198e+06 1.95709e-14 315513)
(-4.76348e+07 -2.09689e+06 3.00421e-12 26017.2 -2.14313e-11 -1.18127e+07)
(4.78866e+07 -2.01887e+06 -1.84419e-11 -92047.4 1.19801e-11 1.18588e+07)
(8.12195e+07 -195609 5.56261e-12 -167380 -2.03812e-12 2.01107e+07)
(-3.75025e+07 359438 -2.77044e-12 2.541e+06 -2.52055e-12 -8.67465e+06)
(6.5751e+06 -1.33936e+07 2.37514e-13 2.77605e+07 -3.59478e-13 8.51935e+06)
(2.84722e+07 -1.246e+06 8.75227e-12 -361588 7.90506e-12 6.97482e+06)
(-2.8509e+07 -1.24967e+06 0 363961 0 -6.98335e+06)
(-2.64724e+06 -2.81228e+06 -1.73781e-11 -111663 -9.15337e-13 -684541)
(-1.74569e+07 4.79204e+06 -3.50495e-12 4.72501e+06 -5.75979e-13 -3.15904e+06)
(7.66884e+07 -902310 -8.92609e-12 -43368.5 7.9531e-12 1.90172e+07)
(4.38572e+07 -2.21603e+06 6.43123e-12 63874.1 -2.241e-11 1.08977e+07)
(-7.30251e+07 3.87998e+06 -4.426e-12 107182 -1.8995e-12 -1.80924e+07)
(1.35079e+07 -3.07114e+06 -1.22913e-12 67680.4 7.61781e-12 3.36837e+06)
(170637 -738601 0 1.74749e+06 0 475927)
(-4.89761e+06 -3.05586e+06 -5.07344e-12 -16125.6 3.92281e-12 -1.2192e+06)
(140728 -591157 -2.42637e-15 3.55704e+06 -6.77153e-14 917491)
(6.61337e+07 -1.37915e+06 -3.66757e-12 -300750 7.48428e-12 1.63345e+07)
(311.52 -1038.56 0 946.659 0 312.18)
(6.9615e+06 -2.45761e+06 3.01679e-12 193532 -9.95938e-12 1.77531e+06)
(729659 -2.30429e+06 7.45144e-14 7.61091e+06 -2.53034e-13 2.06946e+06)
(8.52429e+07 -357092 3.38196e-12 -76209.5 2.96871e-12 2.11316e+07)
(5.37232e+06 -60487.7 -2.03881e-11 106073 3.13617e-14 1.3593e+06)
(-5.37827e+06 -61666.4 2.05647e-11 -105906 -5.17842e-14 -1.36074e+06)
(6.61955e+06 -2.47509e+06 1.62545e-11 147053 2.7351e-12 1.67893e+06)
(-9.39534e+07 80271.3 1.20666e-11 -300230 2.86842e-12 -2.33862e+07)
(-9.90775e+07 3716.19 -1.85082e-13 -608204 -5.57767e-13 -2.47341e+07)
(4.27575e+07 -4.14775e+06 2.18128e-12 5.06855e+06 2.04766e-12 1.18666e+07)
(-8.13675e+07 -485370 -4.26814e-12 288423 3.36478e-13 -2.01174e+07)
(11574 -24913.7 -9.38063e-17 10676.6 7.41106e-16 5520.83)
(2477.8 -10912.5 -4.16033e-17 18348.7 -5.2155e-16 5167.47)
(5.14505e+07 -1.29461e+06 -1.01231e-11 266031 1.86478e-11 1.28319e+07)
(10884 -24060.8 -6.20159e-17 15153.1 8.72557e-16 6460.33)
(-1.17256e+07 -2.08322e+06 3.43834e-11 -123887 8.67465e-12 -2.9401e+06)
(1693.2 -9278.29 -1.47646e-17 18272.3 -4.63711e-16 4953.85)
(4.78225e+07 -1.38487e+06 1.12257e-11 -36790.8 -1.00304e-11 1.18566e+07)
(5009.63 -19462.1 6.72601e-17 35348.3 2.77046e-16 10013.6)
(146555 -409507 1.17466e-15 182133 -1.38465e-14 81554.3)
(-1.10215e+07 -2.08381e+06 -4.66735e-12 2.7877e+06 9.70689e-13 -2.04298e+06)
(-2.0359e+07 -1.71429e+06 1.76121e-11 -199561 -1.04834e-11 -5.101e+06)
(3.29685e+07 -6.4297e+06 4.2714e-13 5.0852e+06 1.4568e-13 9.4419e+06)
(-2.32424e+07 1.01331e+07 -1.83227e-12 -996342 -5.18626e-13 -6.01413e+06)
(3.22874e+07 -3.21038e+06 -9.48893e-12 295153 -7.83281e-12 8.0844e+06)
(7.72235e+07 -1.49137e+06 -6.9401e-12 155961 2.03173e-11 1.91994e+07)
(-7.67523e+07 -1.65649e+06 1.06715e-11 90918.8 -2.17263e-11 -1.90213e+07)
(1.09561e+07 -1.00816e+07 3.70173e-13 9.86535e+06 6.64794e-14 5.16623e+06)
(3.30841e+07 -2.86225e+06 1.83747e-11 -37159.5 1.71416e-11 8.19961e+06)
(3.35133e+07 -1.29794e+06 2.16686e-11 509883 -3.35362e-11 8.44185e+06)
(-6.28675e+07 929031 1.14069e-12 -196870 1.81337e-11 -1.56475e+07)
(6.24696e+07 859770 2.9689e-12 33883.5 -1.68773e-11 1.55084e+07)
(4.30969e+07 -2.1905e+06 0 69726.1 0 1.07105e+07)
(-8.57915e+07 -1.62336e+06 2.97723e-12 504890 3.96155e-12 -2.11613e+07)
(8.54175e+07 -1.52475e+06 -6.77171e-12 -482328 1.06886e-12 2.10741e+07)
(5.27756e+07 -7.17389e+06 9.23569e-13 1.2562e+07 6.11346e-13 1.62116e+07)
(3.46159e+07 -309853 -1.85945e-11 -55558.7 -3.44049e-12 8.57511e+06)
(-1.19999e+07 -2.4593e+06 2.36991e-11 1978.17 5.06664e-11 -2.97692e+06)
(-1.62309e+06 6.48199e+06 8.55623e-13 -4.12017e+06 -1.13004e-13 -1.42502e+06)
(-8.31681e+07 -648392 1.62398e-12 339724 3.46115e-12 -2.05514e+07)
(-6.1865e+07 -131454 0 -255245 0 -1.54133e+07)
(6.19952e+07 -113803 -2.74287e-12 282093 -2.28879e-12 1.54523e+07)
(-2928.01 -88043.1 1.44239e-15 687954 1.75117e-14 169969)
(7072.77 -79101.4 2.04565e-15 231361 3.16785e-15 59160.4)
(-50099 -300897 -6.4523e-14 3.38822e+06 -1.01473e-13 828256)
(-9.98178e+06 -1.86195e+06 -1.51275e-11 -95997.8 3.92126e-12 -2.5005e+06)
(-2.28139e+07 6.88247e+06 -7.43515e-12 4.54823e+06 -2.77858e-12 -4.5321e+06)
(-1.02046e+08 44987 3.9755e-12 -687729 3.7459e-13 -2.54902e+07)
(-5.6538e+07 -952552 0 -110821 0 -1.40557e+07)
(-9.67538 -5.54623 1.23843e-18 176.662 5.58777e-18 41.4327)
(4.98892e+07 -3.78851e+06 1.02624e-13 1.65022e+06 5.88428e-12 1.2788e+07)
(-2.33715e+06 9.32946e+06 2.58008e-12 3.9568e+06 -6.19645e-13 401866)
(7.78563e+07 -1.48576e+06 5.95016e-12 -60081.1 8.62349e-12 1.93028e+07)
(-7.58712e+06 -2.82457e+06 1.88369e-11 83771.4 2.18033e-11 -1.86173e+06)
(4.46248e+07 -2.4881e+06 8.42691e-12 -260286 -9.74133e-12 1.10077e+07)
(262.352 -549.527 2.75754e-18 11230.5 1.83417e-16 2851.62)
(2.69646e+07 -1.6712e+06 -2.98803e-11 -530631 -1.05978e-11 6.5588e+06)
(-2.73398e+07 -1.65969e+06 5.41381e-12 481172 5.15943e-11 -6.66417e+06)
(-8.04698e+07 755176 1.80853e-12 266823 6.27435e-12 -1.99e+07)
(-7.01683e+06 -2.58582e+06 -4.40927e-12 86809.2 7.00568e-12 -1.71948e+06)
(4.42545e+06 -5.75569e+06 1.6547e-13 8.07569e+06 -7.37921e-14 3.10179e+06)
(3.97029e+07 -2.90851e+06 8.89469e-12 -251240 -2.2021e-11 9.78877e+06)
(4.90292e+07 -2.13096e+06 8.76043e-12 -238443 2.75344e-11 1.2106e+07)
(3906.86 -70975.2 -2.80935e-14 1.72012e+06 6.31075e-14 427766)
(6.79887e+07 -1.19458e+06 -1.06037e-11 158287 1.22716e-11 1.69086e+07)
(-8.80254e+07 -18168.2 0 -701976 0 -2.20151e+07)
(1152.81 -7974.36 0 68333.2 0 17240.9)
(-62434.6 -2.27571e+06 -2.6241e-11 310230 4.77573e-11 61483.1)
(485370 -1.73173e+06 -1.4341e-11 3505.03 1.04231e-11 121300)
(104596 -840040 2.26236e-13 5.56961e+06 -2.13119e-13 1.40789e+06)
(355550 -2.95561e+06 -5.99275e-12 2.55293e+06 2.81274e-12 721653)
(3.40714e+07 -6.43552e+06 1.20148e-13 4.97527e+06 4.74064e-13 9.68827e+06)
(136952 -358885 -4.43204e-16 345023 1.77674e-14 119588)
(-6.22678e+07 -852227 3.91479e-12 71138.1 -2.03994e-12 -1.54323e+07)
(1.02323e+08 -2.78473e+07 6.74379e-13 1.10429e+07 -5.48659e-13 2.81284e+07)
(-3.82057e+07 1.66271e+06 0 2.77159e+06 0 -8.79191e+06)
(1.07748e+07 -1.96735e+06 4.92043e-12 303650 2.55179e-11 2.74878e+06)
(-7.61448e+07 1.48927e+06 -7.98977e-12 561752 -5.93095e-12 -1.87537e+07)
(-2.6123e+07 -2.28468e+06 3.43454e-12 193276 -7.17812e-12 -6.43369e+06)
(-1.87352e+07 3.10261e+06 3.08865e-12 4.77012e+06 5.00643e-12 -3.46501e+06)
(-3.32383e+07 -43238.5 -2.13382e-11 -1.001e+06 -6.50251e-13 -8.49547e+06)
(3.31902e+07 -43723.7 -9.42413e-12 1.00268e+06 -4.33742e-12 8.48395e+06)
(5.26596e+07 -2.0601e+06 4.95928e-12 -110453 -8.44825e-12 1.30385e+07)
(698.406 -3722.09 6.31451e-17 17241.4 4.94083e-18 4451.22)
(21444.5 -59096.7 2.42659e-17 75148.6 2.57868e-15 23966.7)
(-3.40239e+07 -2.88811e+06 9.60063e-12 -96752.2 -4.80431e-12 -8.46602e+06)
(4.11237e+07 -2.20477e+06 8.42784e-12 131016 1.29124e-12 1.02361e+07)
(-4.15578e+07 -2.70583e+06 -3.14803e-12 -79034 -2.26667e-11 -1.03309e+07)
(3.27931e+07 -1.38492e+06 -8.33917e-12 265922 -3.97805e-11 8.20263e+06)
(-3.28494e+07 -1.28509e+06 2.2077e-11 -176303 2.28116e-11 -8.19435e+06)
(3.13871e+07 -6.64745e+06 -1.00446e-12 4.94496e+06 3.8722e-13 9.01471e+06)
(254.87 -1185.77 -7.80245e-19 2457.36 -5.46293e-17 672.959)
(6.26668e+06 -2.35369e+06 -1.66803e-11 -160747 3.74381e-11 1.51501e+06)
(5.3354e+07 -1.95616e+06 -3.22931e-12 57371 2.27273e-11 1.32525e+07)
(2.3091e+07 -2.48586e+06 1.42984e-11 4.3145e+06 -5.27626e-12 6.79986e+06)
(1.10188e+07 -1.85554e+06 2.88401e-11 148138 -2.37184e-12 2.77075e+06)
(2.09699e+07 -1.98428e+06 5.93994e-12 -260506 2.09813e-11 5.13842e+06)
(-1.34021e+06 -1.83917e+06 2.69168e-11 92505.1 -1.98472e-12 -309580)
(-21.7553 -331.415 1.1303e-17 1679.42 1.22194e-17 411.3)
(5.22248e+07 -2.22037e+06 -2.28544e-11 -28076 -7.08371e-13 1.29511e+07)
(3.73793e+07 -2.22148e+06 -1.09826e-11 50663.4 -6.5708e-12 9.28714e+06)
(-9.74246e+07 -963492 3.83025e-12 -164136 2.02661e-12 -2.42138e+07)
(-3.32803e+07 -2.88269e+06 -5.79738e-12 71251 -6.23244e-13 -8.23985e+06)
(182114 -327482 3.30939e-15 122394 -2.01216e-14 75554.6)
(7.43905e+07 -3.31243e+07 1.77401e-12 1.91273e+07 -2.72514e-12 2.32037e+07)
(7.97788e+06 -3.14188e+06 7.03045e-12 295.985 6.96111e-12 1.97955e+06)
(-4.08915e+07 -2.18897e+06 8.04452e-12 -131700 -5.10812e-12 -1.01787e+07)
(8.0857e+07 -281305 -3.98089e-12 -103936 -1.45167e-12 2.00365e+07)
(4.71962e+07 -1.33906e+06 -9.06134e-12 20577.4 -5.09303e-12 1.17154e+07)
(112576 -386809 -3.09068e-16 497943 -2.92989e-14 151482)
(-5791.34 -116841 3.71536e-15 1.32486e+06 6.54342e-15 327287)
(-5.14936e+07 -2.78743e+06 3.96915e-12 82362.2 9.04915e-12 -1.27562e+07)
(-4.50353e+07 -127717 -3.97031e-11 -950159 -5.883e-12 -1.14099e+07)
(4.50435e+07 -125486 -2.18822e-11 945627 1.57452e-11 1.14108e+07)
(-7.15676e+07 5.43654e+06 -1.05143e-13 341028 -1.39064e-13 -1.76728e+07)
(2.14212e+07 982828 2.72818e-12 9.41296e+06 -4.62407e-12 7.65058e+06)
(2.39727e+07 -3.73711e+06 -4.90553e-12 2.43328e+06 -2.87861e-12 6.55185e+06)
(-5.22777e+07 -509724 -1.29189e-11 -41862.3 6.77536e-12 -1.29815e+07)
(5.23283e+07 -555904 0 23818.1 0 1.29896e+07)
(-5.09008e+06 -3.4351e+06 -2.20273e-11 244771 1.25651e-11 -1.20222e+06)
(-3.57363e+07 -3.00971e+06 -6.71738e-12 319367 -7.57675e-12 -8.78766e+06)
(-6.88312e+07 -1.35222e+06 -3.68951e-12 54147.9 -6.18276e-12 -1.7065e+07)
(5.13974e+07 -5.28707e+06 8.56923e-13 1.11611e+07 1.85768e-12 1.5522e+07)
(-3343.57 -76052.1 -1.3719e-14 1.3645e+06 -2.75692e-14 337730)
(7.07027e+07 -1.81994e+06 7.44929e-12 168785 -9.91196e-12 1.75847e+07)
(-2.40466e+07 1.05002e+07 -1.53679e-12 92951.5 -2.67119e-13 -5.94338e+06)
(1.03289e+08 -1.06054e+06 1.92792e-12 412556 2.44371e-13 2.57304e+07)
(4.11908e+06 -1.95839e+06 1.30129e-11 -154130 8.98333e-12 983785)
(-301.435 -69427.2 -3.99553e-15 639870 -4.04703e-15 158690)
(3.26775e+07 -1.76613e+06 3.09821e-11 42026.7 -6.39195e-12 8.11837e+06)
(-898386 -3.51506e+06 -1.19311e-11 55211 -8.20798e-12 -209209)
(2.31983e+07 -2.54274e+07 -2.51919e-12 3.00453e+07 2.37766e-12 1.32108e+07)
(2.91678e+06 -3.38521e+06 -5.05056e-14 4.3645e+06 6.74731e-14 1.80663e+06)
(1.76738e+07 -1.25446e+06 3.2766e-13 7.71754e+06 3.39866e-12 6.30012e+06)
(-8.7998e+06 -1.4837e+06 -1.97759e-11 322892 1.57119e-12 -2.10329e+06)
(-6.66339e+07 -1.28071e+06 -3.2364e-12 102885 8.54854e-12 -1.65077e+07)
(4.77612e+07 -4.77425e+06 8.78444e-13 1.00498e+07 1.78458e-12 1.43441e+07)
(4.94061e+06 4.15471e+06 3.769e-13 7.95122e+06 -5.98527e-13 3.19873e+06)
(5.1429e+07 -1.50844e+06 -1.68675e-11 -90008.1 1.11523e-11 1.27382e+07)
(-7.16599e+06 -3.0542e+06 2.63118e-12 67455.5 -6.76776e-12 -1.76129e+06)
(-8.40499e+07 1.05564e+06 -5.28172e-12 405137 -2.43849e-12 -2.0754e+07)
(-3.0283e+07 -1.86118e+06 1.62194e-11 58644.4 -3.36987e-11 -7.49928e+06)
(-4.63018e+07 -1.3885e+06 -7.35213e-12 164532 -5.44617e-12 -1.14476e+07)
(-7.3752e+06 -2.94482e+06 3.73455e-12 629967 6.47359e-12 -1.67363e+06)
(2.30403e+07 -919221 -1.26723e-11 214604 -2.6527e-11 5.77002e+06)
(-3.02411e+06 1.06068e+07 -3.37572e-12 2.48433e+06 2.00784e-14 -133930)
(-2.22643e+06 -2.566e+06 -1.44496e-11 -332116 1.50169e-11 -634826)
(-6.63792e+07 -1.57081e+06 -3.85329e-12 478320 -2.64988e-12 -1.63513e+07)
(-2.84329e+07 2.15389e+06 3.28265e-12 3.3576e+06 -1.49279e-12 -6.2217e+06)
(122683 -482626 2.15714e-15 797628 4.12988e-14 228348)
(9.84705e+07 -335251 0 87919.6 0 2.44543e+07)
(-2.83877e+07 1.09825e+06 1.34736e-14 -4.26848e+06 -3.61046e-13 -8.10267e+06)
(1.62746e+07 -3.61798e+06 -7.61931e-12 -211894 -3.02299e-12 3.98547e+06)
(-5.99216e+07 -1.44121e+06 -5.19948e-12 -369406 1.48314e-11 -1.49594e+07)
(-5.26412e+07 277908 -3.34839e-14 1.8781e+06 1.24332e-12 -1.25954e+07)
(-6.01044e+06 -2.46987e+06 1.19102e-11 -41839.3 1.30198e-11 -1.50169e+06)
(-8.80069e+07 -73274.2 -6.15458e-12 275914 -5.74363e-13 -2.17678e+07)
(-1.37141e+07 9.70419e+06 2.96377e-12 3.21752e+06 1.40114e-12 -2.60443e+06)
(-8.35259e+07 -1.35519e+06 -5.9711e-12 217994 -7.77231e-12 -2.06704e+07)
(892069 -1.62317e+06 8.70085e-14 3.19705e+06 -9.55055e-14 1.01459e+06)
(-8.21243e+07 -1.76143e+06 5.81971e-12 132850 4.66952e-12 -2.03437e+07)
(8.18204e+07 -1.66023e+06 -5.30072e-12 -107785 -4.68334e-12 2.02746e+07)
(5462.16 -33205.4 -2.32735e-16 77194.8 1.19297e-16 20508.9)
(4.04468e+07 -2.00515e+06 -2.56795e-11 177508 -2.13078e-11 1.00797e+07)
(-4.05772e+07 -2.08807e+06 -1.98434e-11 -265428 -2.97565e-11 -1.01339e+07)
(689445 -2.07293e+06 1.98536e-13 6.37826e+06 -1.43788e-13 1.75364e+06)
(2.77912e+07 -2.94769e+06 -1.15371e-13 2.49404e+06 -5.29035e-13 7.51437e+06)
(1.37124e+07 -3.20362e+06 -1.75735e-12 18095.4 -9.00677e-12 3.40681e+06)
(-3.46956e+07 1.02549e+07 3.2675e-13 493485 -6.13126e-13 -8.48623e+06)
(2.90409e+07 1.34441e+06 7.17157e-13 8.18687e+06 -2.25857e-12 9.23697e+06)
(4.92488e+07 -2.38465e+06 -1.07737e-12 315714 -1.77984e-11 1.2298e+07)
(4977.18 -68475.1 -2.67152e-15 504548 -5.54808e-15 126424)
(3.63619e+07 -1.65759e+06 -2.60438e-12 250698 1.41923e-11 9.08433e+06)
(12194.1 -35599.9 -2.03781e-15 1.62284e+06 1.63512e-15 405684)
(380.382 -2564.24 7.39891e-17 12113 2.5423e-16 3099.87)
(-6.99528e+07 1.91382e+06 6.82233e-12 1.35223e+06 3.20343e-12 -1.70212e+07)
(8.59917e+06 4.87809e+06 3.48745e-12 7.80894e+06 -1.2339e-12 4.07118e+06)
(3.00403e+07 231.39 2.57705e-11 248417 -2.42337e-12 7.51524e+06)
(-3.00682e+07 907.21 -4.94745e-12 -250556 -2.83467e-12 -7.52269e+06)
(-1.07279e+07 -2.99433e+06 -2.02117e-11 123619 4.25623e-12 -2.63115e+06)
(4.58753e+07 -461906 -1.29139e-11 -56774.3 -8.31886e-12 1.13685e+07)
(8.12383e+07 -560092 1.24343e-11 -15914.1 -3.6629e-12 2.01529e+07)
(-8.15324e+07 -633549 -7.51625e-12 47541.3 4.6728e-12 -2.0218e+07)
(8.30663e+07 -9.23293e+06 -2.15001e-12 9.23095e+06 6.35491e-12 2.29008e+07)
(4.15355e+07 -2.28702e+06 -6.63843e-12 -104558 6.01944e-12 1.02799e+07)
(-2.33277e+07 3.6632e+06 -4.66452e-12 5.23481e+06 3.74418e-12 -4.48922e+06)
(6.14596e+07 -1.7568e+06 6.53257e-12 -42319.7 -5.07304e-13 1.52389e+07)
(-3.61168e+07 -2.97121e+06 -9.92933e-12 308497 -2.25994e-11 -8.88476e+06)
(400.933 -3395.84 4.85203e-17 9009.14 9.74454e-17 2334.83)
(3.61409e+07 -1.32658e+06 2.9792e-12 1.0455e+07 1.06712e-12 1.15614e+07)
(-8.62796e+07 -423637 1.54252e-12 14101.8 -3.86516e-12 -2.14042e+07)
(2.95936e+07 -1.50515e+06 8.31185e-12 -60162.2 4.64009e-11 7.32786e+06)
(-2.98365e+07 -1.44976e+06 -2.4346e-12 -175603 3.5091e-11 -7.44661e+06)
(-2.54643e+07 -2.59869e+06 -2.82966e-11 -284717 8.89311e-12 -6.38885e+06)
(-7.27446e+06 -2.23661e+06 3.96917e-12 -43986 1.38624e-13 -1.81586e+06)
(8.58155e+06 -2.29674e+06 -1.03742e-11 -319085 -1.83321e-11 2.05009e+06)
(9.30509e+07 3653.5 -2.72821e-11 773066 -1.36917e-12 2.32796e+07)
(-7.10907e+07 -50872.4 -1.13162e-11 123360 3.47562e-12 -1.76084e+07)
(362.22 -3014.69 5.1884e-17 11337.1 5.27907e-16 2902.83)
(3.69793e+06 -3.62851e+06 0 207422 0 968998)
(-9.72122e+06 -2.54293e+06 -2.4209e-11 -12344.7 -2.39666e-11 -2.41509e+06)
(-2.59506e+07 1.06644e+07 1.02484e-12 -746775 9.67127e-13 -6.62417e+06)
(-2.3946e+07 -1.44387e+06 3.73055e-11 -331660 -2.94315e-11 -6.02379e+06)
(60.5306 -427.096 -1.30107e-17 2939.95 5.22161e-17 744.48)
(1.05933e+08 -2.62756e+07 -1.63556e-12 1.12103e+07 2.1385e-12 2.90657e+07)
(3.5102e+07 -2.21337e+06 -5.75341e-13 117001 3.0346e-11 8.73856e+06)
(-3.51064e+07 -1.99436e+06 2.77223e-12 199457 5.8421e-12 -8.66113e+06)
(5.12015e+07 -2.62651e+06 4.03898e-12 1.72506e+06 2.84593e-12 1.31321e+07)
(-4.69687e+07 6.89845e+06 -2.67594e-12 1.97157e+06 -5.33579e-13 -1.11647e+07)