/*--------------------------------*- C++ -*----------------------------------*\
| =========                 |                                                 |
| \\      /  F ield         | OpenFOAM: The Open Source CFD Toolbox           |
|  \\    /   O peration     | Version:  v3.0+                                 |
|   \\  /    A nd           | Web:      www.OpenFOAM.com                      |
|    \\/     M anipulation  |                                                 |
\*---------------------------------------------------------------------------*/
FoamFile
{
    version     2.0;
    format      ascii;
    class       volScalarField;
    location    "9000";
    object      sigmaEq;
}
// * * * * * * * * * * * * * * * * * * * * * * * * * * * * * * * * * * * * * //

dimensions      [1 -1 -2 0 0 0 0];

internalField   nonuniform List<scalar> 
24076
(
7.22095e+07
964774
14554.1
14423.2
1.7493e+07
1.10888e+06
992087
7.66599e+07
1887.49
6.52309e+07
4.40449e+07
6.33302e+07
3.72057e+07
1.4648e+07
7.79153e+07
6.72713e+06
4.15798e+07
4.22583e+07
5.63654e+06
9.77137e+06
7.67089e+07
3.97684e+07
1.39671e+06
4.46395e+07
1.35259e+07
4.4291e+06
7.72491e+06
1.10931e+06
7.45035e+06
1.59211e+07
1.29603e+07
280943
2.87954e+07
2.56623e+07
3.32955e+07
5.60179e+07
3.56471e+07
4.24843e+07
4.28567e+07
7.80987e+07
2.64708e+07
8.71113e+06
2.90285e+07
2.23411e+07
5.23957e+07
7.54798e+07
1.38057e+06
1.93494e+07
8.21749e+06
5.58429e+07
37869.8
5.87793e+06
5226.27
1.21101e+06
1850.06
3.17134e+07
1.53376e+07
8.01919e+07
5.01804e+06
3.71446e+07
7.57442e+07
863349
9.02529e+07
5.20522e+07
3.04215e+07
7.60624e+07
2.4788e+07
2.5744e+07
773944
2.2972e+07
5.20881e+06
1.99833e+06
5.67098e+07
236918
2.49701e+07
1.43519e+07
4.17755e+07
5.46563e+07
5.09372e+07
9.15747e+07
1.31523e+06
1.82899e+07
2.25164e+07
1.09784e+07
1.72606e+07
5247.29
1.48784e+07
4.55397e+07
4.95202e+06
1.02397e+07
1.83966e+07
5.1512e+06
4.29785e+07
1.63347e+07
1.02145e+07
4.07388e+07
9.41726e+06
8.18516e+06
270381
2.59555e+07
2.11866e+07
3.25874e+07
1.06919e+07
5.23367e+07
1.46924e+07
2.87087e+07
79278.9
1.67071e+06
6.65306e+07
2.57108e+07
6.71985e+06
1.43513e+07
3777.2
918851
1.11693e+07
36059.9
3.80687e+07
2.17236e+07
8.26612e+06
2.87126e+07
6.95967e+06
4.7412e+07
2.8597e+07
7.57545e+07
4.96148e+07
4.35417e+07
6.6339e+07
4.03102e+07
1.49122e+07
177612
4.72385e+07
2.73968e+07
2.14205e+07
1.43762e+06
4.43292e+07
7.6522e+06
5.75952e+06
3.05919e+07
4.17971e+06
9.05572e+06
1.31358e+07
3838.94
6.86056e+06
6.93695e+06
2.21444e+07
1.29109e+07
1.93172e+07
2.7431e+07
4.75307e+06
85567.9
6.12499e+07
1214.04
4.34217e+07
2.62762e+07
5.03895e+07
9.49857e+06
7.46985e+07
1.37315e+07
7.44818e+06
22732.5
1.20334e+07
1734.44
8.0818e+07
8.54227e+07
5.47031e+06
3.18729e+07
3.18468e+07
3.37101e+07
4.13193e+07
2.23804e+07
3.23821e+07
1.5205e+06
8.10436e+06
2.27939e+07
5.00331e+07
4.99917e+07
4.77507e+07
4.72326e+07
7.20941e+07
6.79414e+07
8.74719e+07
575303
3.63476e+07
1.37213e+07
1.47851e+07
1.16086e+07
4.15923e+07
3.39946e+07
5.76501e+07
2.9781e+07
311226
4.46415e+07
1.91331e+07
4.05023e+07
2.60138e+07
7.36587e+07
1.15807e+06
4.31353e+07
4.34006e+07
7.3381e+07
3.57847e+07
3.08152e+07
2.60448e+07
2.60802e+07
5.3881e+06
2.11708e+07
6.92168e+07
3.96927e+07
6.62853e+07
1.32464e+07
1.93258e+06
6.8861e+06
3.26638e+06
5.99235e+07
1907.57
7.46469e+06
7.47372e+06
7.6942e+07
4.76603e+06
4.77158e+06
7.25968e+06
8.45093e+07
8.88966e+07
3.55256e+07
7.36107e+07
43521.1
23951.7
4.62558e+07
42349.1
1.1085e+07
22129.2
4.32262e+07
43931.5
714767
1.26629e+07
1.84509e+07
2.82667e+07
2.67671e+07
2.94262e+07
6.9578e+07
6.93524e+07
1.82569e+07
3.02758e+07
2.99235e+07
5.6574e+07
5.63359e+07
3.90015e+07
7.78118e+07
7.74515e+07
4.04733e+07
3.12673e+07
1.16323e+07
1.15247e+07
7.52774e+07
5.56031e+07
5.56999e+07
641104
245167
3.13769e+06
9.49424e+06
2.69219e+07
9.15132e+07
5.09347e+07
167.04
4.42361e+07
1.70585e+07
7.03123e+07
8.46394e+06
4.06749e+07
9975.57
2.48938e+07
2.519e+07
7.27915e+07
7.80721e+06
1.09221e+07
3.63507e+07
4.45548e+07
1.55329e+06
6.12342e+07
7.88575e+07
62305.7
3.95533e+06
3.03084e+06
5.15359e+06
5.51043e+06
2.9256e+07
658486
5.62336e+07
9.69064e+07
3.67056e+07
1.00812e+07
6.91521e+07
2.40359e+07
2.13454e+07
2.92201e+07
2.91755e+07
4.7712e+07
16347.2
115032
3.10189e+07
3.71868e+07
3.77136e+07
2.94721e+07
2.9577e+07
2.72158e+07
2884.97
7.06886e+06
4.81962e+07
1.81826e+07
1.03378e+07
1.94183e+07
3.43306e+06
1635.34
4.72802e+07
3.38934e+07
8.77593e+07
3.04819e+07
574709
7.83391e+07
9.0213e+06
3.69752e+07
7.30066e+07
4.26143e+07
764128
1.21627e+06
4.67553e+07
3.98978e+07
3.99086e+07
6.5488e+07
1.30906e+07
2.08349e+07
4.71263e+07
4.71872e+07
7.63117e+06
3.28902e+07
6.2165e+07
3.93239e+07
1.24022e+06
6.37171e+07
2.83585e+07
9.28617e+07
5.11844e+06
589726
2.95987e+07
6.14769e+06
4.64184e+07
6.27012e+06
1.09531e+07
8.57791e+06
6.02171e+07
3.67019e+07
8.31426e+06
4.65263e+07
8.39185e+06
7.61362e+07
2.75465e+07
4.19544e+07
8.77294e+06
2.06786e+07
1.89812e+07
4.78119e+06
6.02941e+07
2.84919e+07
1.04603e+06
8.87466e+07
2.25295e+07
1.61087e+07
5.3821e+07
4.89181e+07
6.88061e+06
7.95846e+07
2.24614e+07
7.55354e+07
3.59855e+06
7.42327e+07
7.39328e+07
87180.5
3.65099e+07
3.65744e+07
6.35077e+06
2.37532e+07
1.35425e+07
3.63098e+07
2.04821e+07
4.43706e+07
466600
3.27308e+07
1.45569e+06
11526.9
6.42095e+07
9.43061e+06
2.69048e+07
2.69284e+07
1.10612e+07
4.14264e+07
7.32883e+07
7.35793e+07
6.98924e+07
3.77493e+07
2.59401e+07
5.55467e+07
3.32104e+07
9787.19
2.52557e+07
7.78307e+07
2.68634e+07
2.68938e+07
2.31912e+07
7.59047e+06
8.92033e+06
8.3336e+07
6.42114e+07
11237.6
7.04299e+06
9.80341e+06
2.9374e+07
2.14913e+07
2708.63
9.83419e+07
3.18018e+07
3.20018e+07
4.51038e+07
4.54707e+07
2.28752e+07
7.0699e+06
3.55081e+07
2.48227e+07
4.44671e+07
2.04363e+07
5.87249e+06
6.14447e+07
2.80757e+07
1.30257e+07
9.65421e+06
2.22822e+07
2.30948e+07
1.12948e+06
8.53663e+06
2.53894e+07
3.32478e+07
333162
3.5199e+06
5.77479e+07
3.74668e+07
4.43005e+06
8.69219e+07
1.0612e+06
6.12513e+07
2.98933e+07
1.97624e+07
1.11143e+07
3.01452e+07
1.25122e+07
5.09865e+07
4.25162e+07
146210
8.40012e+06
767544
910877
1.13871e+07
1.36661e+07
6.89847e+07
4.85507e+07
78178.1
3212.75
4.2767e+07
4.34679e+07
4.43256e+07
822404
4.9179e+07
3319.7
5.08314e+06
4.21838e+07
6.13272e+07
3.1904e+07
3.13243e+07
6.6274e+07
3.31482e+07
48537.5
3.58989e+07
3.45317e+07
3.43087e+07
3.53189e+07
8.7507e+07
3.55483e+07
2.98119e+07
2.80343e+07
8.62575e+07
2.64931e+07
3.87864e+07
4.28585e+07
4.2873e+07
2.96452e+06
8.36738e+07
4.65429e+07
1.84409e+07
353615
3.31331e+07
123478
3.17132e+07
3.09139e+07
7.54867e+07
9995.12
4.75262e+06
2.48741e+06
1.90053e+07
2.15426e+07
5.16371e+07
9.48771e+07
5.553e+07
6.41033e+07
8.68226e+06
2.07467e+07
5.25057e+07
691.122
6.65659e+07
1.7532e+07
2.93323e+06
5.70723e+07
2.07605e+07
1.15375e+07
6.241e+06
5.86623e+07
235932
2.15225e+07
229757
7.42261e+06
1.74855e+07
1.75382e+07
3.52364e+07
870089
8.35933e+07
803209
5.21355e+07
3.03169e+06
3.04222e+06
4962.69
1.92586e+06
8.92082e+07
3.33993e+07
6.83314e+07
7.71737e+06
1.11843e+07
1.53627e+07
15997.2
6.07923e+06
2.10031e+07
2.10482e+07
16460.4
60120.3
3.31685e+07
1.31883e+07
1.33646e+07
5.51333e+07
1.02745e+07
44921.5
1.08341e+07
5.12275e+07
3.64297e+06
5.01988e+07
5.00201e+07
7.39022e+07
7.4205e+07
8.53287e+07
867.13
467528
4.07931e+06
1.68772e+07
118773
8.12531e+07
2.52217e+07
12905
4.66207e+07
2.05031e+07
2.05392e+07
2.61046e+07
2.71851e+07
4.73082e+07
1.30225e+07
5.11436e+06
53613
7.32529e+07
33340.7
2.05112e+06
3.26284e+07
2.20678e+07
2.11904e+07
9.39932e+07
1.90262e+07
1.89447e+07
1.12217e+07
9.0402e+06
2.57828e+07
1.54524e+07
3.43174e+07
2.24373e+06
2.93656e+07
77265.4
7.54668e+07
5.89373e+07
4.95456e+07
9.39131e+06
2.23145e+07
3.2366e+07
1.67457e+07
2.38533e+07
6.28677e+07
5.1569e+07
7.70215e+07
3.46223e+07
9.0407e+06
2.72376e+07
1.23529e+07
2.31405e+07
5.08535e+07
8.23285e+07
4.00443e+07
1.6188e+07
1.61552e+07
1.25846e+06
7.76292e+06
3.42703e+07
28460.7
5.9234e+07
5.27358e+07
1.79475e+07
1.78807e+07
4.95452e+07
14033.7
8.49949e+06
6.30957e+07
1.57635e+07
3.42492e+07
3.39103e+07
754292
29793
5.71858e+06
2.81622e+07
5.79579e+06
2.01612e+07
34066.5
14255.5
5.76026e+07
2.01487e+07
3.40724e+07
4.42176e+07
4.07453e+07
2.89252e+07
131718
2.72342e+07
5.89915e+07
6.42002e+07
7.18264e+07
1.72243e+07
9.49432e+06
2.00427e+07
1.83628e+07
2.10081e+07
7.57108e+07
6.42016e+07
6.68026e+07
6.59147e+07
200.746
762549
1.3564e+07
8.5371e+07
1.93339e+06
3.12956e+07
2.18177e+07
3.8683e+06
53459.9
3.04623e+07
1.67251e+07
1.72564e+07
4.18554e+07
2.28917e+07
2.28703e+07
1.61328e+07
5.80374e+07
5.80377e+07
6.32799e+07
6.94449e+07
515256
5.30722e+07
8.40263e+07
1.09215e+07
635117
2.87365e+07
2.87153e+07
3.73545e+07
3.96696e+07
3.39839e+06
5.3114e+07
2.80153e+07
1.17064e+06
5.40607e+07
9.58399e+07
4.99573e+06
3.06691e+07
5.1453e+07
5.12554e+07
2.36582e+06
8.29896e+07
3356.6
7.23539e+07
27199.8
2.9012e+07
2.14026e+07
1.30232e+07
8.39114e+07
45784.9
3.29279e+07
2.88374e+07
2.94897e+07
1.30097e+06
1.76574e+07
1.73987e+07
8.88371e+07
6.69588e+07
3.08854e+07
2.04691e+07
8.26001e+07
7.8547e+07
1.53022e+06
4.99448e+06
6.46295e+06
142471
4.0233e+06
6.45749e+07
2.34136e+07
2.35797e+07
2.58216e+07
1951.74
1.1111e+07
2.13028e+07
4.06849e+07
3.03308e+07
3.11642e+07
3.38132e+07
8.01798e+07
8.05977e+07
5.65137e+07
7.75764e+06
984234
5.78462e+07
2.83142e+07
7.89401e+07
8.54807e+07
4.49369e+07
1.30066e+07
3.16582e+07
3.10304e+07
2.63694e+07
3.33611e+07
5.07823e+07
6.34752e+06
2.7917e+07
5.67885e+06
1.36332e+07
7.02099e+07
6.21731e+06
4.59227e+06
2664.98
3.69314e+07
37385.9
5.14098e+07
4.86647e+07
3.02049e+07
3.18958e+06
6.73192e+06
2.19292e+07
2.1981e+07
9.68171e+07
1.97982e+07
83.9338
584613
5.5509e+07
5.5584e+07
2.09796e+07
151033
3.30275e+07
4.67359e+07
8.75088e+07
3.99941e+07
3.30993e+07
3.48231e+07
2.47113e+07
1.61439e+07
1.21215e+07
6.78669e+07
1.59422e+07
4.08277e+07
3.43381e+07
5049.78
3.36991e+07
7.67232e+07
6.10986e+07
2.07084e+07
1.60521e+06
5.78804e+07
6.01033e+06
7.87039e+06
1.81141e+07
6.18789e+06
665705
177497
2.95353e+07
3.64809e+07
5.6511e+07
9.71748e+06
4.99638e+06
4.71367e+06
1.18402e+07
4.26034e+07
551554
7.41383e+07
8.89312e+07
3.69432e+07
3956.67
1.06825e+07
1.32508e+07
8.18392e+06
1.50952e+07
1.41285e+07
7.58853e+06
7.37081e+07
3.92612e+07
135292
4.188e+07
146248
3.81103e+07
3.45817e+07
2.30596e+07
1.223e+07
90596.9
96.8589
9.61393e+06
1.78845e+06
3.52389e+07
4.06258e+07
5.10308e+07
5.80051e+07
9.33313e+06
9.42149e+06
5.56114e+07
1.03838e+06
5.4202e+07
7.34751e+07
1.98275e+06
3.56191e+07
7.3885e+07
2.71208e+07
2.98513e+07
4.16186e+06
151587
8.91636e+07
3.2945e+07
1.27223e+07
3.22013e+07
6.50402e+07
1.38412e+07
6.52155e+07
4024.07
8.50354e+07
1.93853e+07
9.64256e+06
6.35148e+07
1.12261e+07
9.95659e+06
5.63992e+06
1339.11
797599
1.77459e+07
8.35347e+06
1.80637e+07
2.01081e+07
8.31324e+07
2661.59
3.19048e+07
1.03693e+06
3.95724e+07
6.39589e+06
5.10181e+07
4.34861e+07
4.34699e+07
2.85281e+07
2.85572e+07
3334.51
1.14912e+07
14755.3
1.47053e+07
1.88201e+07
8.57899e+07
3.31593e+07
1.48564e+06
8.60875e+07
3.7584e+07
5.50291e+07
4.82765e+07
2.36903e+07
2.37162e+07
1.8576e+07
8400.67
13455.9
1.29981e+07
8.76414e+07
5.19095e+07
5.19052e+07
1.51251e+07
7.55269e+06
2.8171e+07
5.5622e+07
5.59342e+07
4.02806e+07
7.04536e+06
2.51671e+07
3.38441e+07
3.38464e+07
1.40574e+07
660.023
3.40418e+07
3.7553e+07
146922
5.64168e+06
7.21753e+07
1.98836e+07
1.97244e+07
2.84746e+07
2.82041e+07
883.954
3.12793e+07
5.40122e+07
5.29196e+07
2.96017e+07
6.68382e+06
27782.7
7.18624e+07
8.72421e+07
9.97032e+06
118876
3.14949e+07
4.47195e+07
4.67752e+06
1.74906e+07
3.91289e+07
5.64051e+06
590884
1.71557e+07
6.79146e+07
7.35747e+07
22867.9
4.107e+07
1.38791e+06
6.84955e+07
4.10592e+07
1.01951e+07
4939
8.10575e+07
2.27464e+07
2.2816e+07
241986
6.28785e+07
2.76404e+07
5.63209e+06
1.51393e+07
2.32735e+06
1.81963e+07
984332
17318
2.24503e+07
5.6548e+07
2.23788e+07
2.29707e+07
6.2677e+07
5.73042e+07
2.71647e+07
6.03302e+07
8720.08
1.29753e+07
2.01137e+07
8.09883e+07
2.25633e+07
2.73946e+07
1.27546e+07
86337
4.42276e+07
6.68274e+07
3.86373e+07
9.37068e+06
6.38383e+07
6.05674e+07
5.03396e+07
6.91381e+07
3.29662e+06
4.21975e+07
3.23231e+07
95774
8.74472e+06
1.41053e+07
4.1006e+07
5.27121e+07
3.25217e+06
8374.18
1.30514e+07
3.35255e+07
4.45879e+07
3.10862e+06
8.34287e+07
1.94933e+07
3.20634e+07
1.21461e+07
1.88951e+07
3.12738e+07
810332
1.11117e+07
4.87847e+07
6.99201e+07
1991.55
7.53772e+07
6.18713e+07
2.7649e+07
780895
5.70232e+07
5.50076e+07
4.71706e+07
4.70846e+07
3.07966e+07
1.77206e+07
8.77793e+06
7.31908e+06
7.63404e+07
5.01925e+07
2.77322e+07
2.77335e+07
996191
2.73834e+07
9.02513e+06
119816
6.04015e+07
66933.1
5.64924e+06
19348.5
2.9345e+07
4.84509e+06
6.05276e+07
5.57627e+06
3.86987e+07
4.05687e+07
1.76238e+07
725986
27974.3
7.41461e+07
7.56485e+06
5.10115e+06
1.78281e+07
1.37237e+07
6.08917e+07
5.80531e+07
6.51002e+07
723568
7.29647e+06
1.52152e+07
1.80081e+07
6.69884e+06
2.01785e+07
1.45703e+07
2.00443e+07
4.52279e+06
9460.05
5.60744e+07
2.49992e+07
2.55026e+07
2.50298e+07
5.16051e+06
3.99919e+07
1.1394e+07
4.8956e+07
8.41428e+07
1.30207e+07
5952.85
8.28135e+06
4.43671e+06
6.08189e+07
6.95569e+07
2.72908e+07
5.08645e+07
4.18284e+07
3.82266e+07
76227.6
2.63544e+07
1.39185e+07
644131
315894
5.5457e+06
6.44898e+07
122981
1.11852e+07
6.36472e+07
4.64789e+07
8.71978e+06
2870.22
2.50237e+07
3.03688e+07
4.42254e+07
3.42764e+07
29681
4.16685e+07
1.78792e+07
2.51374e+07
1.12259e+07
4.52475e+07
5.66748e+07
4.44683e+07
6.0995e+07
2.43702e+07
77123.2
1.01412e+07
2110.2
1.70307e+07
2.08026e+07
5.37304e+06
6.25062e+07
8.25072e+07
3.78229e+07
7.89442e+07
1.11896e+06
1.27347e+07
798495
4.93458e+07
6.38078e+07
3.22385e+07
1.59204e+07
1.60498e+07
5.13676e+07
9790.76
1.72939e+07
358661
2.37998e+07
2.14349e+07
8.82381e+06
4.12753e+06
1.28608e+07
7.40952e+06
3.09058e+07
2.85027e+07
5.29299e+07
5.2925e+07
2.73523e+07
2.71634e+07
1.3666e+07
2.39238e+07
26074.2
4.79531e+07
2.78827e+07
323950
87475.7
5.53156e+07
2.70398e+07
6824
1.69274e+07
1.71994e+07
3.26188e+07
8.4252e+07
2.0261e+07
2.73236e+07
4.62077e+07
3.38933e+07
4.86712e+07
4.20105e+07
18502.1
78947.6
2.97121e+07
1.25535e+07
6.94512e+07
7.31534e+07
87007.1
3.06376e+07
3.38862e+07
3.38394e+07
3.05197e+07
3.84234e+07
4.26542e+06
60766.5
1.26245e+07
5.29118e+07
729124
1.01986e+06
3.53335e+07
7.56997e+06
4.85813e+07
4.86022e+07
50594.4
530433
5.33501e+06
6.02846e+07
1.71735e+07
3.66014e+07
7.06653e+07
4.80847e+07
1.4342e+06
4.76589e+07
1.0023e+07
1.03263e+06
119025
241859
2960.44
7.30142e+06
1.16935e+07
815094
1.9682e+06
4.37513e+07
1.34815e+07
1.4332e+07
2.66828e+07
6.66999e+06
4.32807e+07
6.56018e+06
7.33692e+07
7.36941e+07
5.0855e+07
6.73446e+06
2.88146e+07
3.66403e+07
6.69437e+07
4.02377e+06
3.85573e+06
4.83757e+06
6.40687e+07
2.51399e+07
4.83158e+07
1.39084e+07
1.34396e+07
3.88744e+07
6.01687e+07
3.6778e+07
5.84771e+07
1.97402e+07
1.97058e+07
4.15249e+07
7.4559e+06
3.12721e+07
1.11748e+07
2.73461e+07
895.786
8.55698e+06
6.62599e+07
17157.8
2.65068e+07
5.33663e+06
4.83477e+07
1.1583e+07
1.23432e+07
4.44587e+07
14619.4
4.72347e+07
6.63421e+07
4.50172e+07
1.25264e+07
66104.2
2.65311e+07
5.4743e+06
8.73311e+07
5.95159e+06
6.38027e+07
2.78428e+07
1.19071e+07
213816
2.13298e+06
2.13177e+06
5.06179e+07
1.1358e+07
1.98984e+07
5.06256e+07
5.26814e+07
5.37164e+07
5.03323e+07
4.6509e+07
23157.9
6.35881e+07
5.64117e+06
1.47615e+07
5.34368e+06
6.23894e+06
6.20229e+06
3817.4
8.49228e+06
2.4282e+06
2.85759e+06
3.19048e+07
7.32013e+07
36140.3
1854.27
3.7195e+06
661437
4.8422e+07
3.577e+07
6.19333e+06
7.74729e+07
5.33078e+06
5.02441e+07
1.1206e+07
4.49319e+07
1.56122e+07
2.44969e+07
2.14436e+07
2.86354e+07
7.1304e+07
3.2773e+07
8.00045e+07
2.49742e+07
7.00271e+07
6.19371e+07
560534
6.14326e+07
1.46804e+07
2.5155e+07
1.24047e+07
2.68132e+07
5.97945e+06
4.79494e+07
3.72778e+07
126279
5.84291e+07
4.18794e+07
7.09331e+07
1345.29
3.41092e+07
1.53046e+07
8.43028e+07
1.55955e+07
8.39282e+07
7.10366e+07
8.90305e+06
2.0096e+07
5.42677e+07
376331
2.19144e+07
3.37911e+06
814943
6.00282e+07
1.57085e+07
5.32765e+06
5.06374e+07
4.13044e+07
4.09323e+07
1.63498e+07
1.226e+07
4.26834e+07
6.47761e+07
8.33799e+07
7.66545e+07
4.46134e+07
8.29067e+07
295358
5.45279e+07
7.23701e+07
1.23735e+07
4.38396e+06
7.76174e+07
1.41283e+07
3.9291e+07
9.06749e+07
9.05505e+06
1.53089e+07
8.92568e+07
1.93447e+07
2.06801e+07
8.97383e+06
5.70404e+07
1.08256e+07
2.02023e+07
5.43318e+07
493131
1.29907e+07
1.6705e+07
1.68041e+07
1.85732e+07
4.19231e+07
4.70227e+07
5.47926e+06
1.44529e+07
6.68291e+07
4.78506e+07
738124
807056
4.53279e+06
1.56887e+06
7.70092e+07
6.22481e+07
5.87328e+07
1.0493e+07
6.30703e+07
2.70238e+07
3.17943e+07
604749
4.98113e+07
3.72151e+07
2.29628e+07
7.58886e+07
1.71427e+07
7.61975e+07
2.17422e+07
5.92418e+06
7.01029e+07
3.24413e+07
2.07372e+07
3.07984e+07
2.89847e+07
4.3655e+07
2.02884e+07
26959.9
3.50246e+07
5.26011e+07
4.90993e+07
620.576
4.84431e+06
4477.33
2.57082e+07
3.0627e+07
242767
3.0753e+06
383847
1.98709e+06
5.93152e+07
5.94238e+07
5.23357e+07
6902.13
1.91293e+06
7.5889e+06
1.18326e+07
4.52817e+07
224268
1.09887e+07
644249
3.49315e+07
6.54811e+06
899.027
1.806e+06
1.27508e+07
8.46685e+07
5.41276e+07
5.42154e+07
2.81337e+07
4.57695e+07
4.25408e+07
4.09918e+07
8.26149e+07
8.06368e+07
2.11244e+07
1.0192e+07
2.17134e+07
6.99727e+07
3.89838e+07
2.84878e+07
1.61806e+06
8.67981e+07
1.48775e+07
3.58426e+07
2.99088e+07
1.24618e+07
6.83793e+06
1.16105e+07
4.1206e+07
5.40249e+07
6.89232e+07
2.44732e+07
4.35039e+06
8.97268e+07
7.97409e+06
2.09751e+07
9.96052e+06
4694.34
3.04646e+06
386.566
9.189e+06
1.12034e+07
2.16733e+07
4.30619e+07
3.27967e+06
208726
6.96273e+07
1.92508e+07
3.04823e+06
1.14551e+06
8.46902e+07
8.80127e+07
3.63545e+07
2.11766e+07
29692.8
1.08929e+07
2.27106e+06
8.5529e+07
4.45308e+07
3.81729e+07
5.17928e+07
1.17143e+06
4.07737e+07
4.07222e+07
4.67095e+07
1.93576e+07
229117
2.35767e+07
710186
4.83208e+07
8.28855e+07
564558
5.98575e+07
4.83458e+07
6.20461e+07
3.83377e+07
4.85416e+07
4.08573e+07
2.35388e+07
4.17392e+07
5.24463e+07
5.24144e+07
3026.52
1.61321e+06
1.59604e+06
2.99878e+07
7.36935e+07
3.888e+06
2.81871e+07
79017.2
5.52651e+07
1.28587e+06
514272
797.258
35339.9
1.86433e+06
5.06087e+07
6.32345e+07
2.80493e+07
3.97989e+07
5.87903e+07
2.23961e+07
9.07275e+06
5.18481e+07
4.51865e+07
6884.12
8.968e+06
8.79891e+06
1.26875e+07
4.8534e+07
31643.3
3.54551e+06
7.0377e+07
18676.8
2.19733e+07
5.91346e+07
939933
1.07578e+07
3.14118e+07
2.0123e+06
1.42933e+07
81794.7
1.6184e+06
754992
3.9746e+07
1.74125e+07
722078
2.44757e+07
5.53675e+07
2.00837e+07
5.80177e+07
4.94722e+06
5.11316e+07
2.03677e+07
4.97071e+06
3.30136e+07
1.63743e+07
5.49392e+07
5.12425e+07
191904
7.8121e+06
1.25133e+07
1.25526e+07
4.67026e+07
5.12379e+07
1.64047e+07
7.36135e+07
3.56198e+07
540469
1.58879e+07
1.61286e+07
3.50743e+07
9.54147e+06
1.10145e+07
1743.3
1.11292e+07
4.66966e+07
4.66082e+07
2.93463e+07
8.3883e+07
5784.28
5.95321e+07
2.07764e+06
6.75976e+07
8.67119e+07
4170.68
96648.7
1.2218e+07
6.2678e+07
8.17014e+06
2.04715e+07
90473.3
4.87374e+07
9.18663e+07
4.11182e+07
13349.4
3.65704e+07
6.36286e+06
3.97395e+06
5.20349e+07
8.14599e+06
17435.6
1.44792e+07
2.9545e+07
7.6882e+06
8.8289e+06
4.50967e+07
7.21454e+07
3.60623e+07
3.07325e+07
5.87254e+07
5.34119e+07
2.20444e+07
3.61585e+07
9.0464e+06
3151.83
4.09283e+07
142056
3.87865e+07
3.90033e+07
3.34607e+07
5.41653e+06
7.33404e+07
4.29844e+07
4.31629e+07
4.36964e+07
6.72388e+06
60241.8
9.47499e+06
1.29829e+07
111567
2.87162e+07
4.69683e+06
77658.2
5.37186e+07
9.08393e+06
5.85377e+06
5.56935e+07
6.3939e+07
615846
8766.73
3.18485e+07
5.86292e+06
214489
1.24643e+07
16426.6
7.84669e+07
2.18112e+07
2335.6
9.34541e+06
9.43897e+06
2.93608e+07
7.13005e+07
3.87077e+07
5506.29
53207.5
7.51582e+07
8.8548e+07
4.89304e+07
1.90268e+06
3.51278e+07
8.55562e+07
5.20068e+07
9.19927e+07
9.65482e+06
5.13899e+07
2.11131e+07
41067
2.91043e+07
5.97093e+07
5.60808e+07
5.789e+07
751136
1.02477e+07
5.31491e+07
1.14312e+06
2.22843e+07
6.43533e+06
4.4929e+06
6.04134e+07
4.85857e+07
5.67748e+06
2.91631e+07
6.66684e+07
3.69724e+07
6.31324e+07
2.35487e+07
3.97534e+06
2.34596e+07
9132.7
4.51838e+07
417.047
2.9346e+07
5.73289e+07
4.37862e+07
1.19337e+07
7.76225e+07
2.1759e+07
2.61378e+07
1.98418e+07
4.93924e+07
8.66414e+07
1.78354e+07
9.36002e+07
4.39245e+07
4.32375e+07
3129.07
156034
8.88564e+07
49401.3
5.68103e+07
4235.72
4.47491e+06
5.06563e+07
39738.7
4.18851e+07
5.85561e+06
5.24946e+07
8.92246e+07
8.41953e+06
5.60952e+06
6451.59
6.20208e+06
1.13937e+07
3.96339e+07
3.95121e+07
13012
944485
36432.1
6.17958e+07
6.18073e+07
109083
6.99791e+06
5.44455e+07
7.22742e+07
2.8441e+07
696203
2.853e+07
3.4692e+07
90501.5
5.49909e+07
7.59392e+07
4.53389e+06
3.32941e+07
574725
3.20284e+07
5.67096e+07
2.77129e+07
7.50485e+07
9.52834e+06
1.6985e+07
7.40944e+07
7.27187e+07
6.91452e+07
1.48536e+07
3.94648e+07
5.98574e+07
1.05555e+06
1.74347e+07
5.5415e+07
1.53521e+07
4.25502e+07
3.25908e+06
2.31717e+07
1.68262e+06
1.26531e+06
9.19219e+07
2.87267e+07
20274.6
9.34557e+07
49426.8
7.52903e+06
7.71452e+06
8.21617e+07
5.09032e+07
1.99204e+07
2.11748e+07
1144.31
4.05197e+07
1.77805e+07
5.99066e+07
1.79799e+07
4.37752e+07
23056
2.33847e+07
7.22862e+07
8.25488e+07
8.53837e+07
490549
3.99096e+07
3.17852e+07
3.61137e+06
8.42645e+06
2087.98
2.12602e+07
4.21184e+07
1.15354e+07
2.92296e+07
2.56427e+07
3.3182e+07
3.89434e+07
75241
4405.73
2.90821e+07
2.74486e+07
8.8586e+06
232516
151927
5.31816e+06
7.08219e+07
5.11416e+07
9.41281e+07
6.99246e+07
7.00716e+07
2.89234e+07
806451
2.08786e+07
64843.9
5.60822e+07
3.00363e+07
3.9429e+07
4.12103e+07
4.44953e+07
3.26509e+07
2.86126e+06
8.48456e+07
4.16116e+06
4.52696e+07
5.76568e+07
5.08756e+07
5.80441e+06
2.85465e+07
2.84851e+07
1.27362e+07
5.3211e+07
47723.7
1.98675e+06
1.26081e+06
7.00761e+07
2.29335e+07
6.16186e+07
7.19043e+07
1.74055e+07
1.72114e+07
8.6355e+07
5.39246e+07
1.8494e+07
3.05432e+07
2.99916e+07
5.85402e+07
3.17894e+07
3.96454e+07
1.72968e+07
8.19092e+07
800.1
5.93746e+07
7.53169e+07
2.81401e+07
104955
219325
36617.6
9.73544e+06
8.51637e+07
3.55801e+07
7.53316e+07
2.48297e+07
5.65468e+07
9.28876e+06
9.37685e+06
5.71438e+06
9.04275e+06
4722.81
2.48269e+07
1.37948e+07
174946
3.44981e+06
3169.08
2.13268e+07
1.32312e+07
4.58867e+07
6288.17
6.17005e+07
6.16704e+07
6.99915e+06
6.20439e+07
2.97761e+07
5.91295e+07
5.98707e+07
4.23303e+07
4.1993e+07
331573
170316
5993.57
5.14228e+06
245111
1.65082e+07
4.75458e+07
7.74268e+07
3.07146e+06
1.80779e+07
535497
6.85967e+07
1.69256e+07
8.74889e+07
4.47028e+07
8.24688e+07
2.45053e+07
1.21412e+07
7.49149e+07
821605
4.69892e+07
9.58531e+06
7.5116e+07
2.04342e+07
8.35055e+06
4.22489e+06
6.23898e+07
2.88548e+07
4955.2
7.75564e+07
2.75112e+07
3.02714e+07
6.25626e+07
2.15347e+07
5.51157e+07
241954
9.65277e+06
2.34682e+07
2.31443e+06
4.33781e+07
1.08297e+07
5408.74
7.3685e+07
4.35827e+07
451440
876953
5.2543e+07
3.93905e+07
1.4396e+07
1.14073e+07
5.60305e+06
9.26881e+07
1.00147e+07
3.12365e+07
4.71804e+07
3.77683e+07
2.2616e+07
3699.4
7.1574e+07
4.13154e+06
1.49551e+07
4.25444e+07
5.22303e+07
8.8936e+06
9.03553e+07
556909
3.15216e+07
3.83723e+07
609475
2.77442e+07
8458.45
2.52446e+07
7.35907e+07
970859
2.04264e+07
8.16126e+06
1.78935e+07
1.78686e+07
5.7009e+06
16402
5.04375e+06
3.6889e+06
5.84632e+07
1.095e+07
1.13705e+07
5.6526e+07
1.06616e+06
5.35073e+07
7.13161e+06
3.01465e+06
118612
7.91244e+07
4.74371e+07
7.52132e+07
2.05446e+07
4.07623e+06
1.47949e+07
1.23342e+07
1.85975e+07
2.5107e+07
1.8415e+07
764998
2.95212e+07
2.94961e+07
1.61189e+07
1.56274e+07
8.76703e+07
3.75098e+07
1.60085e+07
1.03487e+07
6.13389e+07
3.34408e+07
3.35072e+07
2.67665e+07
5.91302e+07
1.36624e+07
1.80024e+07
933043
115722
4.56345e+06
1.26713e+06
2.91864e+07
4.83821e+07
4.34493e+06
2.39478e+07
8.40417e+07
4.54634e+06
4.72485e+07
947651
1.72342e+07
3.00155e+07
5.57223e+07
5.1007e+07
5.0568e+07
535589
3.61004e+07
1.81719e+07
2.9139e+07
7.0718e+06
9.30467e+06
1.02766e+07
6.95783e+07
143512
8.19165e+07
590257
1.37507e+07
2.34406e+07
5.91406e+07
1.44922e+07
1.21929e+07
6.84025e+07
2.14643e+07
4.54761e+06
5.03178e+07
2.66794e+07
2.66318e+07
2.19419e+06
6.84494e+06
223598
4.95586e+07
1.77033e+06
2.88189e+07
2.88214e+07
5.22495e+06
2.33145e+07
6.63167e+07
5.1715e+07
3434.45
8.24612e+07
2.27386e+07
2.32463e+07
8.56468e+06
2.54805e+07
6.38161e+07
2.72509e+07
2.72401e+07
3.59204e+07
90130.3
1.17521e+07
6.07726e+06
517608
3.70308e+06
6.15866e+07
930654
4.17031e+07
1.55187e+07
3.96965e+06
6.54755e+07
2.93735e+07
91121.5
1.04771e+07
5.77665e+07
4.54981e+06
4.91969e+07
1.79636e+07
1.15942e+06
4.17593e+07
1.03872e+07
3.13382e+07
1.80698e+07
2.16926e+07
6.9833e+06
7.99185e+07
8.32338e+07
93562.7
2.08732e+07
2.3829e+07
5717.65
4.30355e+07
2.43305e+07
4.57425e+07
3.27375e+07
3.17195e+07
56269.3
2.05463e+07
1.41834e+07
2.52999e+07
4.98106e+07
3.08863e+07
3.82199e+07
500681
5.65458e+07
8.98429e+07
4.69143e+07
1.71705e+07
8193.21
7.41093e+06
1.74142e+07
9.05322e+07
2.25129e+07
2.25865e+07
6.00048e+07
1.59261e+07
745978
1.74742e+06
6.46317e+07
5.45188e+07
2.32511e+07
9.30556e+07
1.26096e+07
125961
1.40615e+06
5.12233e+07
1.30872e+06
2.03126e+07
2.09781e+07
4.73594e+07
38800.5
119600
2.97194e+07
1.55055e+07
5.26544e+07
4.78182e+06
3.93317e+07
2188.64
1.77655e+07
2.51646e+07
3.78271e+07
9.62468e+07
6.57695e+07
8.22062e+07
1.72515e+07
2.60475e+07
3.72422e+07
8.16869e+07
2.68646e+07
1.57209e+07
4.15155e+07
2.24405e+07
2.61646e+07
4.77171e+07
4.76955e+07
8.83385e+07
5.35261e+07
5.36154e+06
965104
4.69511e+06
5.12186e+07
9.70871e+06
865809
1.04107e+07
331768
4.16254e+07
535526
1.21002e+07
9.17625e+07
2.09346e+07
616072
2.63273e+07
4.73913e+07
131828
7.18825e+07
1794.05
6.22321e+06
2.77824e+07
1.94259e+07
108926
2.01305e+07
127668
4.59049e+06
8.49369e+06
6.57347e+06
8.01968e+06
3.33587e+07
3.74594e+07
1.56183e+07
1.03207e+07
2.69877e+07
106590
5878.88
1.63062e+07
7.73565e+07
6.23802e+07
85931.7
1.44549e+07
7.00721e+07
52694.5
2.80563e+07
5.34715e+07
3.77357e+07
1.84241e+07
5.15548e+06
6.83492e+06
1.8399e+07
6.92935e+07
1.15209e+06
658414
2.62823e+07
97614.4
4.50298e+06
38407.1
2.82632e+07
2.03224e+07
7.53234e+07
7.30243e+06
441.834
10972.1
3.17935e+07
2.44604e+07
3.0006e+07
3.50169e+07
4.87023e+07
49567.1
2.10968e+06
4268.98
5.81221e+07
5.12853e+07
1.02945e+07
1.58444e+07
2.91171e+07
9.19923e+07
919614
4.14084e+06
2.93554e+07
7.66821e+07
2.47561e+07
6.14207e+06
6.91915e+07
335.424
6.29885e+07
4.29746e+07
8.52399e+06
2.37921e+07
3.85651e+07
3.63842e+07
1.74248e+07
3.89334e+07
7.99054e+06
158097
5.47462e+07
221815
5.67757e+07
2.64427e+07
3.20293e+06
4.77067e+07
6.89938e+07
1.62194e+07
8.06763e+06
5.56944e+07
118715
4.72226e+06
17280.8
24905.1
453259
6.11931e+07
1.68688e+07
1.59958e+07
4.40644e+07
5.0038e+07
2.52483e+07
4.64834e+06
4.95224e+07
2.51362e+07
3.97916e+07
1976.79
18596.4
2.79841e+06
6.87686e+07
8.27507e+06
6.6304e+06
1.70026e+07
7.3956e+07
4.8292e+07
8237.19
6.82631e+07
2.77451e+07
4.62136e+06
3.39495e+07
7.06746e+07
6.08678e+06
158347
3.91436e+07
3.27325e+07
1.83655e+07
1.34627e+07
8.82444e+07
8.1007e+07
4.8066e+07
4.01463e+07
4.34319e+07
4.87765e+06
8.88737e+07
1.82531e+07
3.94976e+06
1.2321e+07
1.77205e+07
2.8084e+07
2.59563e+07
1.63878e+07
8.80799e+07
4.22527e+07
4.21412e+07
6.47669e+07
2.22062e+06
1.49831e+06
5.05533e+07
2.70474e+07
3.40784e+07
120838
45604.4
2.89782e+07
2.17965e+07
4.65379e+07
1.13119e+06
130073
612980
2.09677e+07
1.83375e+07
7.66815e+07
2.56729e+07
3.58701e+07
17060.4
5.26022e+07
5.42784e+06
62111.6
7.67776e+07
2.03852e+06
9.23365e+07
3.4519e+07
1.65512e+07
7.55472e+07
1.36058e+06
5.12684e+07
5.13019e+07
4.86043e+06
6.36123e+07
3.83375e+07
6.62007e+07
5.34203e+07
4.59156e+07
4.58923e+07
5.34156e+07
5.31525e+07
9.60428e+07
2.45222e+07
2.46831e+07
8.13256e+07
5.84612e+07
5.85321e+07
8.1064e+07
680027
222296
5.69998e+07
7.25601e+06
4.88246e+07
4.87785e+07
8.69745e+07
5.23303e+06
2.61967e+07
3.71443e+07
2.26147e+07
1.06359e+07
1.80125e+07
16640.8
8.91035e+06
2.78081e+07
1.81456e+07
3.87296e+06
2.52125e+07
6.02001e+07
8.33264e+07
3.24039e+07
3.82416e+07
1.92482e+07
8.35703e+07
8.30955e+07
2.30283e+06
4.71657e+07
3.27396e+07
1.8853e+07
4.10615e+07
3.8436e+07
1.25498e+07
4.00655e+06
22045.3
8.54238e+07
4.3163e+07
6.94381e+07
6.07639e+07
4.01246e+07
4.01101e+07
14105.9
3544.17
3.99682e+07
3.2425e+07
4.28606e+07
5.79598e+07
49219.8
8.54157e+07
2.8088e+07
5.9789e+06
2.66335e+07
1.47341e+07
2.09519e+07
7.77255e+07
4.1479e+07
5.12459e+07
6.07938e+07
4.39396e+07
4.91173e+06
1.61562e+07
5.72634e+07
5.3148e+06
1.62099e+07
1.80824e+07
7.92122e+07
40377.3
597847
5.8236e+07
7.14868e+06
2.89164e+07
4.54579e+07
58805.9
8.51716e+06
8.88953e+07
6.2538e+07
1.89819e+07
1.31545e+07
2.64107e+07
3.36714e+06
3.29841e+06
3.44119e+07
7.85225e+07
6.95701e+06
9.07095e+07
9.04067e+07
215613
23116.6
17718.9
2.90834e+07
8.05349e+07
2.04302e+06
1.37347e+07
1.33918e+07
2.80506e+07
1.68926e+07
1.16871e+07
982555
3.1232e+07
651918
2.5631e+07
2.56182e+07
3.0259e+07
4.94106e+07
7.37213e+06
5.54139e+07
4.06368e+06
4.84295e+06
4.59465e+07
2.64332e+07
3.0747e+07
5.53769e+07
1.31224e+07
3.00407e+07
2.54128e+07
2.34325e+07
134651
8.22101e+07
233310
1.07265e+06
6.28862e+07
8.94319e+07
347332
3.67879e+07
3.84527e+07
2.76881e+07
9.70307e+06
19923.3
968982
53934.3
3.27716e+07
1.70947e+06
1.74943e+07
2.18038e+07
8.93846e+06
4.73867e+07
125643
5.50427e+07
3.86779e+07
6.44824e+07
6.44651e+07
7.09615e+06
5.69347e+07
7.50408e+07
5.44747e+07
1.75118e+07
2.17904e+07
23962.3
5.59603e+07
4.65856e+07
1.80092e+07
3.1019e+07
6.06863e+07
5.65835e+07
8.34642e+07
2.81862e+07
7.57069e+07
4571.4
1.94721e+07
3.63181e+07
9872.85
331601
3.63641e+07
803262
23606.2
1.01685e+07
1.6405e+07
1.0023e+07
5.93954e+07
2.42943e+07
1.11869e+07
831429
4.19424e+07
5.65488e+07
3.76997e+07
5.2658e+07
6.70402e+07
6.2951e+06
1.56044e+07
1.43266e+07
2.71732e+07
1.54888e+07
1.4235e+07
2.2297e+07
2.8682e+07
2.87665e+07
5.25838e+07
1.42574e+07
7.93544e+07
9.34068e+07
1.25659e+07
4.28914e+07
3.65637e+07
2499.05
4.97309e+06
8.16407e+06
5.87515e+06
1.11488e+07
2.80256e+06
409538
2.74573e+07
1.6725e+06
9.615e+06
1.03389e+08
580903
1.94143e+07
5.01899e+07
1.1618e+06
978145
3470.04
625521
7.35474e+07
6.68969e+06