0 	31.9368 	-0.0273815 	5.2308e-13
0.000254254 	31.9368 	-0.0273873 	9.66853e-11
0.000508509 	31.9369 	-0.0273931 	1.92847e-10
0.000762763 	31.9401 	-0.0275596 	-7.16377e-06
0.00101702 	31.9459 	-0.0278478 	-1.97465e-05
0.00127127 	31.9517 	-0.028136 	-3.23292e-05
0.00152553 	31.9574 	-0.0284242 	-2.09136e-05
0.00177978 	31.9632 	-0.0287124 	-8.34104e-06
0.00203403 	31.9709 	-0.0290309 	2.01249e-10
0.00228829 	31.9824 	-0.0294092 	1.05031e-10
0.00254254 	31.994 	-0.0297875 	8.81202e-12
0.0027968 	32.0056 	-0.0295564 	8.74674e-11
0.00305105 	32.0171 	-0.0292638 	1.83753e-10
0.00330531 	32.03 	-0.0292119 	-4.31082e-06
0.00355956 	32.0442 	-0.0294161 	-1.32083e-05
0.00381381 	32.0583 	-0.0296203 	-2.21057e-05
0.00406807 	32.0725 	-0.0298245 	-1.56748e-05
0.00432232 	32.0867 	-0.0300287 	-6.79356e-06
0.00457658 	32.1015 	-0.0303174 	2.10079e-10
0.00483083 	32.1183 	-0.0308812 	1.13852e-10
0.00508509 	32.1351 	-0.0314449 	1.76247e-11
0.00533934 	32.152 	-0.031388 	7.92833e-11
0.00559359 	32.169 	-0.0311919 	1.76344e-10
0.00584785 	32.186 	-0.0312499 	-7.6062e-06
0.0061021 	32.2033 	-0.031679 	-2.63209e-05
0.00635636 	32.2206 	-0.0321081 	-4.50356e-05
0.00661061 	32.2378 	-0.0325372 	-3.49627e-05
0.00686486 	32.2551 	-0.0329663 	-1.63045e-05
0.00711912 	32.2724 	-0.0334379 	2.20562e-10
0.00737337 	32.29 	-0.0342042 	1.23599e-10
0.00762763 	32.3076 	-0.0349704 	2.66363e-11
0.00788188 	32.3254 	-0.0350853 	7.05195e-11
0.00813614 	32.3433 	-0.0349535 	1.67749e-10
0.00839039 	32.3613 	-0.0350751 	-9.12529e-06
0.00864464 	32.3796 	-0.0356975 	-3.62803e-05
0.0088989 	32.3979 	-0.0363199 	-6.34352e-05
0.00915315 	32.4162 	-0.0369422 	-5.38244e-05
0.00940741 	32.4345 	-0.0375646 	-2.67842e-05
0.00966166 	32.4528 	-0.0381901 	2.29741e-10
0.00991592 	32.4716 	-0.0391488 	1.32649e-10
0.0101702 	32.4903 	-0.0401074 	3.55573e-11
0.0104244 	32.5093 	-0.0403828 	6.22202e-11
0.0106787 	32.5284 	-0.0402636 	1.60394e-10
0.0109329 	32.5478 	-0.0403869 	-9.15876e-06
0.0111872 	32.5679 	-0.0411547 	-4.26615e-05
0.0114414 	32.5881 	-0.0419225 	-7.61642e-05
0.0116957 	32.6082 	-0.0426903 	-7.04743e-05
0.0119499 	32.6284 	-0.0434582 	-3.71534e-05
0.0122042 	32.6485 	-0.044226 	-3.83257e-06
0.0124585 	32.6696 	-0.0453218 	1.42848e-10
0.0127127 	32.6908 	-0.0464603 	4.4852e-11
0.012967 	32.7123 	-0.0469001 	5.37775e-11
0.0132212 	32.7339 	-0.0467502 	1.52942e-10
0.0134755 	32.7558 	-0.0468238 	-8.3195e-06
0.0137297 	32.7789 	-0.0476968 	-4.64051e-05
0.013984 	32.802 	-0.0485699 	-8.44908e-05
0.0142382 	32.8251 	-0.0494429 	-8.50253e-05
0.0144925 	32.8481 	-0.050316 	-4.71919e-05
0.0147467 	32.8712 	-0.051189 	-9.35861e-06
0.015001 	32.8954 	-0.0523891 	1.53276e-10
0.0152553 	32.92 	-0.0536966 	5.43314e-11
0.0155095 	32.9447 	-0.054319 	4.48273e-11
0.0157638 	32.9698 	-0.0541069 	1.44247e-10
0.016018 	32.9951 	-0.0540937 	-7.0868e-06
0.0162723 	33.0218 	-0.0550425 	-4.84611e-05
0.0165265 	33.0485 	-0.0559914 	-8.98354e-05
0.0167808 	33.0752 	-0.0569403 	-9.80144e-05
0.017035 	33.1019 	-0.0578892 	-5.69635e-05
0.0172893 	33.1286 	-0.058838 	-1.59126e-05
0.0175435 	33.1563 	-0.0601051 	1.62666e-10
0.0177978 	33.1847 	-0.0615736 	6.3507e-11
0.0180521 	33.2133 	-0.0624077 	3.58798e-11
0.0183063 	33.2422 	-0.0621116 	1.35672e-10
0.0185606 	33.2713 	-0.0619872 	-5.77892e-06
0.0188148 	33.302 	-0.0629923 	-4.95763e-05
0.0190691 	33.3327 	-0.0639975 	-9.33737e-05
0.0193233 	33.3635 	-0.0650026 	-0.000110066
0.0195776 	33.3942 	-0.0660077 	-6.66624e-05
0.0198318 	33.4249 	-0.0670129 	-2.32592e-05
0.0200861 	33.4564 	-0.0683055 	1.72292e-10
0.0203403 	33.4889 	-0.0699303 	7.28001e-11
0.0205946 	33.5216 	-0.0710133 	2.69001e-11
0.0208488 	33.5546 	-0.0706188 	1.2717e-10
0.0211031 	33.5878 	-0.0703694 	-4.59179e-06
0.0213574 	33.6228 	-0.0714191 	-5.02913e-05
0.0216116 	33.6577 	-0.0724688 	-9.59908e-05
0.0218659 	33.6926 	-0.0735185 	-0.000121781
0.0221201 	33.7276 	-0.0745682 	-7.65463e-05
0.0223744 	33.7625 	-0.075618 	-3.1312e-05
0.0226286 	33.798 	-0.0768922 	1.8216e-10
0.0228829 	33.8349 	-0.0786716 	8.22312e-11
0.0231371 	33.8718 	-0.0800468 	1.78583e-11
0.0233914 	33.9092 	-0.079544 	1.18697e-10
0.0236456 	33.9467 	-0.0791636 	-3.64211e-06
0.0238999 	33.986 	-0.0802521 	-5.09808e-05
0.0241542 	34.0254 	-0.0813406 	-9.83196e-05
0.0244084 	34.0648 	-0.0824292 	-0.000133698
0.0246627 	34.1041 	-0.0835177 	-8.68965e-05
0.0249169 	34.1435 	-0.0846062 	-4.0095e-05
0.0251712 	34.1831 	-0.0858162 	1.92271e-10
0.0254254 	34.2245 	-0.0877519 	9.18151e-11
0.0256797 	34.2658 	-0.0894675 	8.73057e-12
0.0259339 	34.3077 	-0.0888451 	1.10231e-10
0.0261882 	34.3497 	-0.0883301 	-3.00477e-06
0.0264424 	34.3937 	-0.089457 	-5.19505e-05
0.0266967 	34.4376 	-0.0905839 	-0.000100896
0.026951 	34.4816 	-0.0917108 	-0.000146423
0.0272052 	34.5256 	-0.0928377 	-9.80898e-05
0.0274595 	34.5695 	-0.0939646 	-4.97563e-05
0.0277137 	34.6135 	-0.0950915 	-1.42278e-06
0.027968 	34.6594 	-0.097165 	1.01576e-10
0.0282222 	34.7054 	-0.0992672 	5.01179e-13
0.0284765 	34.752 	-0.0985079 	1.01747e-10
0.0287307 	34.7987 	-0.0978389 	-2.72907e-06
0.028985 	34.8474 	-0.0990064 	-5.33553e-05
0.0292392 	34.8962 	-0.100174 	-0.000103981
0.0294935 	34.9449 	-0.101341 	-0.000154608
0.0297477 	34.9937 	-0.102509 	-0.000110382
0.030002 	35.0424 	-0.103676 	-6.0447e-05
0.0302563 	35.0912 	-0.104844 	-1.05122e-05
0.0305105 	35.1416 	-0.106907 	1.11539e-10
0.0307648 	35.1924 	-0.109209 	9.75288e-12
0.031019 	35.2438 	-0.108534 	9.36663e-11
0.0312733 	35.2954 	-0.107663 	-2.85226e-06
0.0315275 	35.3491 	-0.108871 	-5.51289e-05
0.0317818 	35.4028 	-0.110079 	-0.000107406
0.032036 	35.4565 	-0.111288 	-0.000159682
0.0322903 	35.5102 	-0.112496 	-0.00012361
0.0325445 	35.5639 	-0.113705 	-7.21071e-05
0.0327988 	35.6176 	-0.114913 	-2.06038e-05
0.0330531 	35.6726 	-0.116936 	1.22309e-10
0.0333073 	35.7285 	-0.119503 	1.92296e-11
0.0335616 	35.7849 	-0.118973 	8.44985e-11
0.0338158 	35.8416 	-0.11789 	-3.4124e-06
0.0340701 	35.9004 	-0.119137 	-5.72094e-05
0.0343243 	35.9593 	-0.120384 	-0.000111006
0.0345786 	36.0181 	-0.121631 	-0.000164803
0.0348328 	36.077 	-0.122878 	-0.000137547
0.0350871 	36.1358 	-0.124125 	-8.46061e-05
0.0353413 	36.1947 	-0.125372 	-3.16654e-05
0.0355956 	36.2544 	-0.127267 	1.31959e-10
0.0358498 	36.3156 	-0.130127 	2.86364e-11
0.0361041 	36.3771 	-0.129833 	7.62073e-11
0.0363584 	36.4391 	-0.128554 	-4.44769e-06
0.0366126 	36.5033 	-0.129837 	-5.96327e-05
0.0368669 	36.5675 	-0.13112 	-0.000114818
0.0371211 	36.6317 	-0.132403 	-0.000170003
0.0373754 	36.6958 	-0.133687 	-0.000152151
0.0376296 	36.76 	-0.13497 	-9.79052e-05
0.0378839 	36.8242 	-0.136253 	-4.36598e-05
0.0381381 	36.8889 	-0.137903 	1.4336e-10
0.0383924 	36.9554 	-0.141064 	3.85348e-11
0.0386466 	37.0224 	-0.141118 	6.78814e-11
0.0389009 	37.0899 	-0.139691 	-5.99484e-06
0.0391552 	37.1596 	-0.141009 	-6.24773e-05
0.0394094 	37.2294 	-0.142327 	-0.00011896
0.0396637 	37.2991 	-0.143644 	-0.000175442
0.0399179 	37.3688 	-0.144962 	-0.000167506
0.0401722 	37.4386 	-0.146279 	-0.000112047
0.0404264 	37.5083 	-0.147597 	-5.65874e-05
0.0406807 	37.5781 	-0.148915 	-1.12807e-06
0.0409349 	37.6502 	-0.152318 	4.88559e-11
0.0411892 	37.7228 	-0.152815 	5.92347e-11
0.0414434 	37.796 	-0.151289 	-8.09132e-06
0.0416977 	37.8715 	-0.152641 	-6.58388e-05
0.041952 	37.947 	-0.153992 	-0.000123586
0.0422062 	38.0225 	-0.155344 	-0.000181334
0.0424605 	38.098 	-0.156695 	-0.000183778
0.0427147 	38.1735 	-0.158047 	-0.000127138
0.042969 	38.2491 	-0.159398 	-7.04986e-05
0.0432232 	38.3246 	-0.16075 	-1.38589e-05
0.0434775 	38.402 	-0.163892 	5.95089e-11
0.0437317 	38.4803 	-0.164923 	4.99846e-11
0.043986 	38.5596 	-0.163351 	-1.07715e-05
0.0442402 	38.6411 	-0.164736 	-6.97614e-05
0.0444945 	38.7226 	-0.166121 	-0.000128751
0.0447487 	38.8041 	-0.167506 	-0.000187741
0.045003 	38.8856 	-0.168892 	-0.000201014
0.0452573 	38.9671 	-0.170277 	-0.000143217
0.0455115 	39.0486 	-0.171662 	-8.54206e-05
0.0457658 	39.1301 	-0.173047 	-2.76239e-05
0.04602 	39.213 	-0.175795 	7.01054e-11
0.0462743 	39.2974 	-0.17745 	4.03316e-11
0.0465285 	39.383 	-0.175888 	-1.40592e-05
0.0467828 	39.4707 	-0.177306 	-7.42288e-05
0.047037 	39.5584 	-0.178723 	-0.000134398
0.0472913 	39.6461 	-0.180141 	-0.000194568
0.0475455 	39.7339 	-0.181559 	-0.000219088
0.0477998 	39.8216 	-0.182977 	-0.000160197
0.0480541 	39.9093 	-0.184395 	-0.000101305
0.0483083 	39.9971 	-0.185812 	-4.24141e-05
0.0485626 	40.0856 	-0.188027 	8.05574e-11
0.0488168 	40.1762 	-0.190395 	3.04947e-11
0.0490711 	40.2684 	-0.188904 	-1.79633e-05
0.0493253 	40.3626 	-0.190352 	-7.92018e-05
0.0495796 	40.4568 	-0.1918 	-0.00014044
0.0498338 	40.551 	-0.193248 	-0.000201679
0.0500881 	40.6452 	-0.194696 	-0.000237803
0.0503423 	40.7394 	-0.196144 	-0.000177926
0.0505966 	40.8336 	-0.197593 	-0.000118049
0.0508509 	40.9278 	-0.199041 	-5.81716e-05
0.0511051 	41.0221 	-0.200577 	9.09861e-11
0.0513594 	41.1193 	-0.203745 	2.07184e-11
0.0516136 	41.2183 	-0.202393 	-2.2475e-05
0.0518679 	41.3192 	-0.203868 	-8.46218e-05
0.0521221 	41.4202 	-0.205343 	-0.000146769
0.0523764 	41.5211 	-0.206818 	-0.000208915
0.0526306 	41.622 	-0.208293 	-0.000256901
0.0528849 	41.723 	-0.209768 	-0.000196195
0.0531391 	41.8239 	-0.211244 	-0.000135489
0.0533934 	41.9248 	-0.212719 	-7.4783e-05
0.0536476 	42.0258 	-0.214194 	-1.40771e-05
0.0539019 	42.129 	-0.21748 	1.0639e-11
0.0541562 	42.2352 	-0.216338 	-2.75578e-05
0.0544104 	42.3431 	-0.217836 	-9.03896e-05
0.0546647 	42.451 	-0.219333 	-0.000153221
0.0549189 	42.559 	-0.220831 	-0.000216053
0.0551732 	42.6669 	-0.222328 	-0.000276011
0.0554274 	42.7748 	-0.223825 	-0.000214693
0.0556817 	42.8827 	-0.225323 	-0.000153375
0.0559359 	42.9906 	-0.22682 	-9.20575e-05
0.0561902 	43.0986 	-0.228318 	-3.07397e-05
0.0564444 	43.208 	-0.231566 	3.90234e-13
0.0566987 	43.3216 	-0.230711 	-3.31327e-05
0.056953 	43.4368 	-0.232224 	-9.63433e-05
0.0572072 	43.5519 	-0.233737 	-0.000159554
0.0574615 	43.6671 	-0.23525 	-0.000222764
0.0577157 	43.7823 	-0.236763 	-0.000285975
0.05797 	43.8974 	-0.238276 	-0.000232956
0.0582242 	44.0126 	-0.23979 	-0.000171323
0.0584785 	44.1278 	-0.241303 	-0.000109691
0.0587327 	44.2429 	-0.242816 	-4.80582e-05
0.058987 	44.3588 	-0.245171 	9.90134e-12
0.0592412 	44.4801 	-0.245463 	-3.91511e-05
0.0594955 	44.6027 	-0.246987 	-0.000102474
0.0597497 	44.7254 	-0.24851 	-0.000165796
0.060004 	44.848 	-0.250033 	-0.000229119
0.0602583 	44.9707 	-0.251557 	-0.000292441
0.0605125 	45.0933 	-0.25308 	-0.000250899
0.0607668 	45.216 	-0.254603 	-0.000189209
0.061021 	45.3387 	-0.256127 	-0.000127519
0.0612753 	45.4613 	-0.25765 	-6.58286e-05
0.0615295 	45.584 	-0.259173 	-4.13846e-06
0.0617838 	45.713 	-0.260562 	-4.55309e-05
0.062038 	45.8434 	-0.26209 	-0.000108695
0.0622923 	45.9738 	-0.263618 	-0.000171858
0.0625465 	46.1042 	-0.265145 	-0.000235022
0.0628008 	46.2345 	-0.266673 	-0.000298185
0.0630551 	46.3649 	-0.268104 	-0.000267195
0.0633093 	46.4951 	-0.269451 	-0.000203673
0.0635636 	46.6254 	-0.270798 	-0.000140152
0.0638178 	46.7557 	-0.272145 	-7.66303e-05
0.0640721 	46.886 	-0.273492 	-1.31087e-05
0.0643263 	47.0221 	-0.274903 	-4.09998e-05
0.0645806 	47.1603 	-0.276232 	-0.000101584
0.0648348 	47.2985 	-0.277562 	-0.000162169
0.0650891 	47.4367 	-0.278891 	-0.000222753
0.0653433 	47.5749 	-0.280221 	-0.000283338
0.0655976 	47.7132 	-0.281551 	-0.000262598
0.0658519 	47.8514 	-0.28288 	-0.000199627
0.0661061 	47.9896 	-0.28421 	-0.000136655
0.0663604 	48.1278 	-0.285539 	-7.36834e-05
0.0666146 	48.266 	-0.286869 	-1.07118e-05
0.0668689 	48.4095 	-0.28844 	-2.79606e-05
0.0671231 	48.5559 	-0.289773 	-8.88824e-05
0.0673774 	48.7023 	-0.291107 	-0.000149804
0.0676316 	48.8487 	-0.292441 	-0.000210726
0.0678859 	48.9951 	-0.293774 	-0.000271648
0.0681401 	49.1415 	-0.295108 	-0.000261699
0.0683944 	49.2879 	-0.296442 	-0.00019832
0.0686486 	49.4343 	-0.297775 	-0.000134942
0.0689029 	49.5807 	-0.299109 	-7.15627e-05
0.0691572 	49.7271 	-0.300443 	-8.1839e-06
0.0694114 	49.8782 	-0.302236 	-1.44009e-05
0.0696657 	50.0331 	-0.303568 	-7.53228e-05
0.0699199 	50.1879 	-0.3049 	-0.000136245
0.0701742 	50.3428 	-0.306232 	-0.000197167
0.0704284 	50.4977 	-0.307564 	-0.000258088
0.0706827 	50.6525 	-0.308896 	-0.00025902
0.0709369 	50.8074 	-0.310228 	-0.000195592
0.0711912 	50.9623 	-0.31156 	-0.000132164
0.0714454 	51.1171 	-0.312892 	-6.87356e-05
0.0716997 	51.272 	-0.314224 	-5.30747e-06
0.071954 	51.4309 	-0.316268 	-5.35051e-07
0.0722082 	51.5944 	-0.317528 	-5.83311e-05
0.0724625 	51.758 	-0.318789 	-0.000116127
0.0727167 	51.9215 	-0.32005 	-0.000173923
0.072971 	52.085 	-0.32131 	-0.000231719
0.0732252 	52.2486 	-0.322571 	-0.000242901
0.0734795 	52.4121 	-0.323832 	-0.000182689
0.0737337 	52.5756 	-0.325092 	-0.000122476
0.073988 	52.7392 	-0.326353 	-6.22636e-05
0.0742422 	52.9027 	-0.327614 	-2.05109e-06
0.0744965 	53.0704 	-0.329709 	6.36085e-05
0.0747508 	53.2418 	-0.331112 	-4.36195e-05
0.075005 	53.4141 	-0.332337 	-9.96928e-05
0.0752593 	53.5864 	-0.333561 	-0.000155766
0.0755135 	53.7586 	-0.334785 	-0.000211839
0.0757678 	53.9309 	-0.336009 	-0.000232658
0.076022 	54.1031 	-0.337234 	-0.000174211
0.0762763 	54.2754 	-0.338458 	-0.000115764
0.0765305 	54.4477 	-0.339682 	-5.7317e-05
0.0767848 	54.62 	-0.34091 	6.03208e-06
0.077039 	54.7963 	-0.342771 	0.000138238
0.0772933 	54.9757 	-0.344797 	-3.00915e-05
0.0775475 	55.1566 	-0.346014 	-8.5538e-05
0.0778018 	55.3375 	-0.347231 	-0.000140985
0.0780561 	55.5185 	-0.348449 	-0.000196431
0.0783103 	55.6994 	-0.349666 	-0.000226855
0.0785646 	55.8803 	-0.350883 	-0.000169042
0.0788188 	56.0613 	-0.352101 	-0.000111229
0.0790731 	56.2422 	-0.353318 	-5.34163e-05
0.0793273 	56.4234 	-0.354463 	2.53761e-05
0.0795816 	56.6082 	-0.355499 	0.000224892
0.0798358 	56.7953 	-0.358628 	-1.55491e-05
0.0800901 	56.9848 	-0.359753 	-6.66681e-05
0.0803443 	57.1743 	-0.360878 	-0.000117787
0.0805986 	57.3638 	-0.362004 	-0.000168906
0.0808529 	57.5532 	-0.363129 	-0.00020601
0.0811071 	57.7427 	-0.364254 	-0.000152701
0.0813614 	57.9322 	-0.365379 	-9.93924e-05
0.0816156 	58.1217 	-0.366505 	-4.60834e-05
0.0818699 	58.3116 	-0.367332 	4.81536e-05
0.0821241 	58.5048 	-0.366964 	0.000322468
0.0823784 	58.6995 	-0.371718 	-2.74213e-06
0.0826326 	58.8973 	-0.372679 	-4.6357e-05
0.0828869 	59.0951 	-0.373639 	-8.99719e-05
0.0831411 	59.2929 	-0.3746 	-0.000133587
0.0833954 	59.4908 	-0.37556 	-0.000172958
0.0836496 	59.6886 	-0.376521 	-0.000127477
0.0839039 	59.8864 	-0.377481 	-8.19959e-05
0.0841582 	60.0842 	-0.378442 	-3.65146e-05
0.0844124 	60.2827 	-0.378713 	7.34727e-05
0.0846667 	60.484 	-0.376408 	0.000426154
0.0849209 	60.6866 	-0.38224 	6.51591e-05
0.0851752 	60.8919 	-0.383895 	-2.74813e-05
0.0854294 	61.0978 	-0.384631 	-6.10155e-05
0.0856837 	61.3036 	-0.385366 	-9.45498e-05
0.0859379 	61.5095 	-0.386102 	-0.000128084
0.0861922 	61.7154 	-0.386838 	-9.57863e-05
0.0864464 	61.9212 	-0.387573 	-6.08261e-05
0.0867007 	62.1271 	-0.388309 	-2.5866e-05
0.086955 	62.3338 	-0.387829 	9.96943e-05
0.0872092 	62.5431 	-0.383892 	0.000482948
0.0874635 	62.7535 	-0.38957 	0.000157872
0.0877177 	62.9657 	-0.392552 	-1.38801e-05
0.087972 	63.1793 	-0.393076 	-3.80253e-05
0.0882262 	63.3928 	-0.3936 	-6.21704e-05
0.0884805 	63.6064 	-0.394124 	-8.63155e-05
0.0887347 	63.8199 	-0.394648 	-6.7336e-05
0.088989 	64.0335 	-0.395172 	-4.21768e-05
0.0892432 	64.2471 	-0.395696 	-1.70176e-05
0.0894975 	64.4617 	-0.394436 	0.000125979
0.0897518 	64.6785 	-0.389445 	0.000515289
0.090006 	64.8962 	-0.39436 	0.000252888
0.0902603 	65.1149 	-0.398934 	-5.17924e-06
0.0905145 	65.3356 	-0.399268 	-2.08786e-05
0.0907688 	65.5563 	-0.399602 	-3.65779e-05
0.091023 	65.777 	-0.399936 	-5.22772e-05
0.0912773 	65.9977 	-0.40027 	-4.27199e-05
0.0915315 	66.2184 	-0.400604 	-2.63736e-05
0.0917858 	66.4391 	-0.400938 	-1.00272e-05
0.09204 	66.6609 	-0.398847 	0.000152546
0.0922943 	66.8847 	-0.392907 	0.000547159
0.0925485 	67.109 	-0.396684 	0.000349992
0.0928028 	67.3337 	-0.40293 	-3.62449e-07
0.0930571 	67.5607 	-0.403003 	-4.59418e-06
0.0933113 	67.7878 	-0.403075 	-8.82591e-06
0.0935656 	68.0148 	-0.403148 	-1.30576e-05
0.0938198 	68.2418 	-0.40322 	-1.1233e-05
0.0940741 	68.4688 	-0.403293 	-6.83142e-06
0.0943283 	68.6959 	-0.403365 	-2.42979e-06
0.0945826 	68.9241 	-0.400335 	0.000177652
0.0948368 	69.1538 	-0.393483 	0.000574253
0.0950911 	69.3839 	-0.395777 	0.000445366
0.0953453 	69.6142 	-0.402531 	6.03016e-05
0.0955996 	69.8462 	-0.403366 	8.79201e-06
0.0958539 	70.0784 	-0.403103 	1.92163e-05
0.0961081 	70.3107 	-0.402839 	2.96406e-05
0.0963624 	70.543 	-0.402575 	2.70015e-05
0.0966166 	70.7753 	-0.402311 	1.6173e-05
0.0968709 	71.0076 	-0.402047 	5.34444e-06
0.0971251 	71.2409 	-0.398006 	0.000199335
0.0973794 	71.4754 	-0.390284 	0.000592914
0.0976336 	71.7101 	-0.390895 	0.000533915
0.0978879 	71.9449 	-0.397461 	0.000151359
0.0981421 	72.1805 	-0.399674 	1.61527e-05
0.0983964 	72.4166 	-0.399036 	4.28799e-05
0.0986507 	72.6528 	-0.398399 	6.96071e-05
0.0989049 	72.8889 	-0.397761 	6.76115e-05
0.0991592 	73.125 	-0.397123 	3.98927e-05
0.0994134 	73.3611 	-0.396485 	1.21738e-05
0.0996677 	73.598 	-0.391395 	0.000216027
0.0999219 	73.8355 	-0.382817 	0.000601226
0.100176 	74.0732 	-0.381598 	0.000611125
0.10043 	74.311 	-0.387923 	0.00023621
0.100685 	74.5489 	-0.391527 	1.62412e-05
0.100939 	74.7871 	-0.390497 	6.01397e-05
0.101193 	75.0252 	-0.389466 	0.000104038
0.101447 	75.2633 	-0.388436 	0.000108621
0.101702 	75.5015 	-0.387406 	6.31818e-05
0.101956 	75.7396 	-0.386375 	1.77421e-05
0.10221 	75.978 	-0.380258 	0.000224856
0.102464 	76.2166 	-0.370882 	0.000593742
0.102719 	76.4553 	-0.367781 	0.000668234
0.102973 	76.694 	-0.373933 	0.000308625
0.103227 	76.9326 	-0.379024 	8.07696e-06
0.103481 	77.1706 	-0.377698 	6.50456e-05
0.103736 	77.4086 	-0.376372 	0.000122014
0.10399 	77.6466 	-0.375045 	0.000138199
0.104244 	77.8846 	-0.373719 	7.93622e-05
0.104498 	78.1226 	-0.372393 	2.05256e-05
0.104753 	78.3602 	-0.365343 	0.000229566
0.105007 	78.5977 	-0.355227 	0.000582121
0.105261 	78.835 	-0.350227 	0.000715712
0.105516 	79.0724 	-0.356392 	0.000371394
0.10577 	79.3098 	-0.362558 	2.70767e-05
0.106024 	79.5454 	-0.361474 	6.78369e-05
0.106278 	79.7808 	-0.359771 	0.000141463
0.106533 	80.0162 	-0.358069 	0.000175658
0.106787 	80.2517 	-0.356366 	9.98118e-05
0.107041 	80.4871 	-0.354663 	2.39656e-05
0.107295 	80.7214 	-0.346504 	0.000225302
0.10755 	80.955 	-0.335362 	0.000554677
0.107804 	81.1887 	-0.328057 	0.000738055
0.108058 	81.4222 	-0.334041 	0.00041571
0.108312 	81.6557 	-0.340026 	9.33659e-05
0.108567 	81.8869 	-0.340282 	6.41148e-05
0.108821 	82.1172 	-0.338203 	0.000154372
0.109075 	82.3475 	-0.336124 	0.000212625
0.109329 	82.5778 	-0.334044 	0.000119913
0.109584 	82.8081 	-0.331965 	2.72015e-05
0.109838 	83.0362 	-0.322927 	0.000210394
0.110092 	83.2635 	-0.310999 	0.000508148
0.110346 	83.4907 	-0.301477 	0.000727141
0.110601 	83.7176 	-0.30757 	0.000435073
0.110855 	83.9445 	-0.313663 	0.000143005
0.111109 	84.1691 	-0.315452 	5.20016e-05
0.111363 	84.3914 	-0.313114 	0.000153891
0.111618 	84.6137 	-0.310776 	0.000238153
0.111872 	84.8361 	-0.308438 	0.000133823
0.112126 	85.0584 	-0.3061 	2.94934e-05
0.11238 	85.2776 	-0.296204 	0.000192343
0.112635 	85.4955 	-0.283329 	0.000460487
0.112889 	85.7133 	-0.271269 	0.000705896
0.113143 	85.9307 	-0.277431 	0.000442209
0.113397 	86.1481 	-0.283593 	0.000178522
0.113652 	86.3635 	-0.2869 	3.77698e-05
0.113906 	86.5748 	-0.284222 	0.00015471
0.11416 	86.7861 	-0.281544 	0.00027165
0.114414 	86.9974 	-0.278867 	0.000153384
0.114669 	87.2086 	-0.276189 	3.40531e-05
0.114923 	87.4156 	-0.265452 	0.000169617
0.115177 	87.6209 	-0.251497 	0.000406965
0.115431 	87.8262 	-0.237541 	0.000644312
0.115686 	88.0308 	-0.242938 	0.000433051
0.11594 	88.2354 	-0.249318 	0.000199014
0.116194 	88.4389 	-0.254295 	1.9593e-05
0.116448 	88.6358 	-0.251302 	0.000150519
0.116703 	88.8326 	-0.248308 	0.000281446
0.116957 	89.0295 	-0.245315 	0.000173418
0.117211 	89.2264 	-0.242322 	4.03059e-05
0.117465 	89.4179 	-0.230813 	0.000146225
0.11772 	89.6072 	-0.215606 	0.000355954
0.117974 	89.7965 	-0.200399 	0.000565683
0.118228 	89.9849 	-0.203945 	0.00041653
0.118482 	90.1733 	-0.210535 	0.000209129
0.118737 	90.3616 	-0.217125 	1.72717e-06
0.118991 	90.5407 	-0.213984 	0.000139848
0.119245 	90.7197 	-0.210761 	0.000280869
0.119499 	90.8987 	-0.207539 	0.000190835
0.119754 	91.0777 	-0.204316 	4.80153e-05
0.120008 	91.2505 	-0.192466 	0.000124319
0.120262 	91.4203 	-0.176245 	0.000311601
0.120517 	91.5901 	-0.160024 	0.000498883
0.120771 	91.759 	-0.16161 	0.000399365
0.121025 	91.9276 	-0.16855 	0.0002136
0.121279 	92.0962 	-0.175491 	2.78347e-05
0.121534 	92.2556 	-0.17368 	0.000124736
0.121788 	92.4134 	-0.170327 	0.000271455
0.122042 	92.5711 	-0.166974 	0.000205195
0.122296 	92.7289 	-0.163621 	5.72059e-05
0.122551 	92.88 	-0.151916 	0.000101756
0.122805 	93.0269 	-0.134948 	0.000267632
0.123059 	93.1738 	-0.11798 	0.000433508
0.123313 	93.3199 	-0.117515 	0.00037533
0.123568 	93.4656 	-0.124921 	0.000210284
0.123822 	93.6113 	-0.132327 	4.52382e-05
0.124076 	93.7481 	-0.131949 	0.000105326
0.12433 	93.8816 	-0.128631 	0.00025042
0.124585 	94.0151 	-0.125313 	0.000211985
0.124839 	94.1486 	-0.121995 	6.62354e-05
0.125093 	94.2755 	-0.111024 	8.01905e-05
0.125347 	94.3968 	-0.0936793 	0.000227178
0.125602 	94.5181 	-0.0763341 	0.000374166
0.125856 	94.6387 	-0.0738654 	0.000349302
0.12611 	94.7587 	-0.0819422 	0.000202617
0.126364 	94.8788 	-0.0900191 	5.59308e-05
0.126619 	94.9907 	-0.0911819 	8.37295e-05
0.126873 	95.0977 	-0.0880836 	0.000219059
0.127127 	95.2046 	-0.0849854 	0.000208392
0.127381 	95.3116 	-0.0818871 	7.29452e-05
0.127636 	95.4125 	-0.0721765 	6.17659e-05
0.12789 	95.5063 	-0.0547487 	0.000195617
0.128144 	95.6002 	-0.037321 	0.000329468
0.128398 	95.6934 	-0.0328689 	0.000331276
0.128653 	95.786 	-0.0417498 	0.000197405
0.128907 	95.8786 	-0.0506306 	6.35336e-05
0.129161 	95.9641 	-0.0533903 	6.34733e-05
0.129415 	96.0433 	-0.0506211 	0.000184279
0.12967 	96.1224 	-0.0478518 	0.000197095
0.129924 	96.2016 	-0.0450826 	7.64422e-05
0.130178 	96.2758 	-0.037 	4.55859e-05
0.130432 	96.3414 	-0.0197306 	0.00016999
0.130687 	96.4071 	-0.00246115 	0.000294394
0.130941 	96.4723 	0.00396946 	0.000318896
0.131195 	96.5368 	-0.00577594 	0.000194302
0.131449 	96.6014 	-0.0155214 	6.9709e-05
0.131704 	96.6601 	-0.0199284 	4.55284e-05
0.131958 	96.7113 	-0.0175551 	0.000148881
0.132212 	96.7626 	-0.0151819 	0.000178898
0.132466 	96.8139 	-0.0128087 	7.58272e-05
0.132721 	96.8616 	-0.00658457 	3.10361e-05
0.132975 	96.8996 	0.0103575 	0.000148452
0.133229 	96.9375 	0.0272996 	0.000265868
0.133483 	96.9752 	0.0357422 	0.000310576
0.133738 	97.0122 	0.0251966 	0.000192854
0.133992 	97.0492 	0.0146511 	7.51308e-05
0.134246 	97.0816 	0.00863842 	3.1162e-05
0.134501 	97.1059 	0.0106215 	0.000117291
0.134755 	97.1303 	0.0126046 	0.000158156
0.135009 	97.1546 	0.0145876 	7.23803e-05
0.135263 	97.177 	0.018836 	1.70766e-05
0.135518 	97.1886 	0.0353247 	0.000126423
0.135772 	97.2002 	0.0518135 	0.000235769
0.136026 	97.2117 	0.0622581 	0.000297527
0.13628 	97.2226 	0.0509202 	0.000187781
0.136535 	97.2335 	0.0395824 	7.80346e-05
0.136789 	97.241 	0.0319926 	2.04112e-05
0.137043 	97.2401 	0.033626 	9.10473e-05
0.137297 	97.2392 	0.0352593 	0.000137539
0.137552 	97.2383 	0.0368927 	6.72881e-05
0.137806 	97.2368 	0.0391385 	4.22871e-06
0.13806 	97.2241 	0.055293 	0.000104477
0.138314 	97.2113 	0.0714474 	0.000204725
0.138569 	97.1985 	0.0840802 	0.000279812
0.138823 	97.1852 	0.0721079 	0.000179095
0.139077 	97.1719 	0.0601357 	7.8377e-05
0.139331 	97.1562 	0.0511182 	1.28588e-05
0.139586 	97.1321 	0.052467 	7.08273e-05
0.13984 	97.1079 	0.0538158 	0.000119613
0.140094 	97.0838 	0.0551646 	6.20365e-05
0.140348 	97.0597 	0.0565134 	4.45997e-06
0.140603 	97.0255 	0.0713326 	8.65724e-05
0.140857 	96.9906 	0.0872828 	0.000180413
0.141111 	96.9556 	0.102291 	0.000268002
0.141365 	96.9202 	0.0898869 	0.00017363
0.14162 	96.8848 	0.0774826 	7.92569e-05
0.141874 	96.8479 	0.0672554 	8.12319e-06
0.142128 	96.8027 	0.0684435 	5.88358e-05
0.142382 	96.7575 	0.0696315 	0.000109548
0.142637 	96.7123 	0.0708196 	6.04935e-05
0.142891 	96.6671 	0.0720076 	1.01877e-05
0.143145 	96.6141 	0.0849193 	7.04676e-05
0.143399 	96.5591 	0.100808 	0.000158829
0.143654 	96.5042 	0.116697 	0.00024719
0.143908 	96.4489 	0.105715 	0.000168662
0.144162 	96.3936 	0.0930557 	7.97157e-05
0.144416 	96.3374 	0.081825 	4.86786e-06
0.144671 	96.2733 	0.0829309 	5.17695e-05
0.144925 	96.2092 	0.0840368 	9.86712e-05
0.145179 	96.1451 	0.0851427 	6.19299e-05
0.145433 	96.081 	0.0862486 	1.5461e-05
0.145688 	96.011 	0.0972108 	5.53817e-05
0.145942 	95.9381 	0.113087 	0.000138376
0.146196 	95.8653 	0.128964 	0.00022137
0.14645 	95.7922 	0.120443 	0.000162861
0.146705 	95.7191 	0.107592 	7.92418e-05
0.146959 	95.6455 	0.0954692 	2.31596e-06
0.147213 	95.5645 	0.0965189 	4.6545e-05
0.147467 	95.4835 	0.0975686 	9.0774e-05
0.147722 	95.4026 	0.0986183 	6.42446e-05
0.147976 	95.3216 	0.099668 	2.04741e-05
0.14823 	95.2364 	0.108615 	4.15187e-05
0.148484 	95.1476 	0.124504 	0.000119525
0.148739 	95.0588 	0.140392 	0.00019753
0.148993 	94.9698 	0.134402 	0.000156882
0.149247 	94.8808 	0.121403 	7.82219e-05
0.149502 	94.7918 	0.108482 	2.34966e-07
0.149756 	94.6958 	0.109487 	4.22859e-05
0.15001 	94.5999 	0.110492 	8.43368e-05
0.150264 	94.5039 	0.111496 	6.68157e-05
0.150519 	94.4079 	0.112501 	2.52459e-05
0.150773 	94.3092 	0.119344 	2.84988e-05
0.151027 	94.2063 	0.135218 	0.000101071
0.151281 	94.1033 	0.151091 	0.000173642
0.151536 	94.0003 	0.147645 	0.000149181
0.15179 	93.8973 	0.134487 	7.59413e-05
0.152044 	93.7943 	0.121329 	2.70194e-06
0.152298 	93.6853 	0.121749 	3.75953e-05
0.152553 	93.5762 	0.122689 	7.66302e-05
0.152807 	93.467 	0.12363 	6.75003e-05
0.153061 	93.3579 	0.12457 	2.8951e-05
0.153315 	93.2472 	0.129213 	1.66053e-05
0.15357 	93.132 	0.145023 	8.32934e-05
0.153824 	93.0167 	0.160833 	0.000149982
0.154078 	92.9015 	0.159917 	0.000139782
0.154332 	92.7862 	0.146567 	7.24308e-05
0.154587 	92.6709 	0.133218 	5.07934e-06
0.154841 	92.5508 	0.132995 	3.21774e-05
0.155095 	92.4303 	0.133843 	6.69789e-05
0.155349 	92.3097 	0.134692 	6.51872e-05
0.155604 	92.1892 	0.13554 	3.08507e-05
0.155858 	92.0682 	0.137896 	6.17142e-06
0.156112 	91.9424 	0.153601 	6.6955e-05
0.156366 	91.8167 	0.169305 	0.000127739
0.156621 	91.6909 	0.170905 	0.000129641
0.156875 	91.5652 	0.157336 	6.82104e-05
0.157129 	91.4395 	0.143767 	6.78037e-06
0.157383 	91.31 	0.142923 	2.63657e-05
0.157638 	91.1799 	0.143658 	5.6002e-05
0.157892 	91.0499 	0.144393 	5.98719e-05
0.158146 	90.9199 	0.145128 	3.06565e-05
0.1584 	90.7898 	0.145863 	1.44106e-06
0.158655 	90.6557 	0.160701 	5.2537e-05
0.158909 	90.5213 	0.17627 	0.000107799
0.159163 	90.387 	0.180386 	0.000119713
0.159417 	90.2527 	0.166587 	6.38288e-05
0.159672 	90.1184 	0.152788 	7.94461e-06
0.159926 	89.9813 	0.151351 	2.06255e-05
0.16018 	89.8436 	0.151962 	4.46686e-05
0.160434 	89.7059 	0.152573 	5.21777e-05
0.160689 	89.5682 	0.153185 	2.84944e-05
0.160943 	89.4306 	0.153796 	4.81104e-06
0.161197 	89.2902 	0.166209 	4.01419e-05
0.161451 	89.1491 	0.18163 	9.05159e-05
0.161706 	89.008 	0.18827 	0.000110663
0.16196 	88.8671 	0.17425 	5.96939e-05
0.162214 	88.7262 	0.160229 	8.72457e-06
0.162468 	88.5832 	0.158234 	1.531e-05
0.162723 	88.4398 	0.158722 	3.37813e-05
0.162977 	88.2964 	0.159211 	4.29022e-05
0.163231 	88.1529 	0.159699 	2.47196e-05
0.163485 	88.0095 	0.160187 	6.537e-06
0.16374 	87.8645 	0.170142 	2.95906e-05
0.163994 	87.7185 	0.18541 	7.57897e-05
0.164248 	87.5726 	0.194587 	0.000102787
0.164503 	87.4269 	0.180366 	5.60188e-05
0.164757 	87.2812 	0.166145 	9.25096e-06
0.165011 	87.1341 	0.16363 	1.05722e-05
0.165265 	86.9868 	0.164001 	2.37508e-05
0.16552 	86.8394 	0.164372 	3.26463e-05
0.165774 	86.6921 	0.164743 	1.96814e-05
0.166028 	86.5447 	0.165114 	6.71656e-06
0.166282 	86.3965 	0.17259 	2.05731e-05
0.166537 	86.2475 	0.187702 	6.32587e-05
0.166791 	86.0984 	0.199424 	9.60753e-05
0.167045 	85.9497 	0.185032 	5.2846e-05
0.167299 	85.801 	0.170639 	9.61666e-06
0.167554 	85.6515 	0.16764 	6.39862e-06
0.167808 	85.5019 	0.167902 	1.46275e-05
0.168062 	85.3523 	0.168163 	2.16714e-05
0.168316 	85.2027 	0.168424 	1.35801e-05
0.168571 	85.0531 	0.168685 	5.48881e-06
0.168825 	84.9031 	0.173671 	1.27725e-05
0.169079 	84.7526 	0.18862 	5.24783e-05
0.169333 	84.602 	0.202884 	9.03274e-05
0.169588 	84.4519 	0.18835 	5.01017e-05
0.169842 	84.3017 	0.173816 	9.87602e-06
0.170096 	84.1514 	0.170368 	2.76517e-06
0.17035 	84.001 	0.170528 	6.42978e-06
0.170605 	83.8506 	0.170688 	1.00944e-05
0.170859 	83.7003 	0.170847 	6.62753e-06
0.171113 	83.5499 	0.171007 	3.02571e-06
0.171367 	83.3995 	0.173506 	5.94323e-06
0.171622 	83.2489 	0.188285 	4.30823e-05
0.171876 	83.0983 	0.203063 	8.02213e-05
0.17213 	82.948 	0.190438 	4.76986e-05
0.172384 	82.7978 	0.175802 	1.00624e-05
0.172639 	82.6479 	0.171937 	-3.99224e-07
0.172893 	82.4981 	0.172002 	-9.44462e-07
0.173147 	82.3483 	0.172068 	-1.4897e-06
0.173401 	82.1985 	0.172134 	-1.07259e-06
0.173656 	82.0487 	0.172199 	-5.36877e-07
0.17391 	81.8989 	0.172265 	-1.16256e-09
0.174164 	81.7494 	0.18682 	3.47872e-05
0.174418 	81.5999 	0.201413 	6.96654e-05
0.174673 	81.4508 	0.191396 	4.55473e-05
0.174927 	81.3018 	0.176692 	1.01944e-05
0.175181 	81.1534 	0.172439 	-3.07243e-06
0.175435 	81.0053 	0.17242 	-7.39012e-06
0.17569 	80.8571 	0.172401 	-1.17078e-05
0.175944 	80.709 	0.172382 	-9.18569e-06
0.176198 	80.5609 	0.172363 	-4.94446e-06
0.176452 	80.4127 	0.172344 	-7.03228e-07
0.176707 	80.2653 	0.184351 	2.73222e-05
0.176961 	80.118 	0.198748 	6.00769e-05
0.177215 	79.971 	0.191353 	4.3462e-05
0.177469 	79.8242 	0.176634 	1.02562e-05
0.177724 	79.6782 	0.172023 	-5.29402e-06
0.177978 	79.5327 	0.171929 	-1.29542e-05
0.178232 	79.3871 	0.171834 	-2.06144e-05
0.178486 	79.2415 	0.17174 	-1.75243e-05