0 	31.3769 	-2.68875e-07 	-6.23642e-19
0.000254254 	31.3825 	-2.68468e-07 	8.17941e-16
0.000508509 	31.3881 	-2.68468e-07 	8.1794e-16
0.000762763 	31.3937 	-2.68468e-07 	8.1794e-16
0.00101702 	31.3994 	-2.68468e-07 	8.1794e-16
0.00127127 	31.405 	-2.68468e-07 	8.17939e-16
0.00152553 	31.4106 	-2.68468e-07 	8.17939e-16
0.00177978 	31.4162 	-2.68468e-07 	8.17938e-16
0.00203403 	31.4219 	-2.68468e-07 	8.17938e-16
0.00228829 	31.4275 	-2.68468e-07 	8.17938e-16
0.00254254 	31.4331 	-2.68468e-07 	8.17937e-16
0.0027968 	31.4463 	-2.73914e-07 	8.17161e-16
0.00305105 	31.4602 	-2.73914e-07 	8.1716e-16
0.00330531 	31.4741 	-2.73914e-07 	8.17159e-16
0.00355956 	31.488 	-2.73914e-07 	8.17158e-16
0.00381381 	31.502 	-2.73914e-07 	8.17157e-16
0.00406807 	31.5159 	-2.73914e-07 	8.17156e-16
0.00432232 	31.5298 	-2.73914e-07 	8.17155e-16
0.00457658 	31.5437 	-2.73914e-07 	8.17154e-16
0.00483083 	31.5577 	-2.73914e-07 	8.17153e-16
0.00508509 	31.5716 	-2.73914e-07 	8.17153e-16
0.00533934 	31.5881 	-2.97048e-07 	8.55954e-16
0.00559359 	31.6052 	-2.97048e-07 	8.55953e-16
0.00584785 	31.6222 	-2.97048e-07 	8.55952e-16
0.0061021 	31.6393 	-2.97048e-07 	8.55951e-16
0.00635636 	31.6563 	-2.97048e-07 	8.5595e-16
0.00661061 	31.6734 	-2.97048e-07 	8.55949e-16
0.00686486 	31.6905 	-2.97048e-07 	8.55948e-16
0.00711912 	31.7075 	-2.97048e-07 	8.55947e-16
0.00737337 	31.7246 	-2.97048e-07 	8.55945e-16
0.00762763 	31.7417 	-2.97048e-07 	8.55944e-16
0.00788188 	31.7595 	-3.36919e-07 	8.56262e-16
0.00813614 	31.7776 	-3.36919e-07 	8.5626e-16
0.00839039 	31.7957 	-3.36919e-07 	8.56259e-16
0.00864464 	31.8138 	-3.36919e-07 	8.56258e-16
0.0088989 	31.8319 	-3.36919e-07 	8.56257e-16
0.00915315 	31.85 	-3.36919e-07 	8.56256e-16
0.00940741 	31.8681 	-3.36919e-07 	8.56255e-16
0.00966166 	31.8862 	-3.36919e-07 	8.56253e-16
0.00991592 	31.9043 	-3.36919e-07 	8.56252e-16
0.0101702 	31.9225 	-3.36919e-07 	8.56251e-16
0.0104244 	31.9417 	-3.89675e-07 	9.01476e-16
0.0106787 	31.9616 	-3.89675e-07 	9.01475e-16
0.0109329 	31.9816 	-3.89675e-07 	9.01474e-16
0.0111872 	32.0015 	-3.89675e-07 	9.01472e-16
0.0114414 	32.0214 	-3.89675e-07 	9.01471e-16
0.0116957 	32.0413 	-3.89675e-07 	9.0147e-16
0.0119499 	32.0612 	-3.89675e-07 	9.01468e-16
0.0122042 	32.0812 	-3.89675e-07 	9.01467e-16
0.0124585 	32.1011 	-3.89675e-07 	9.01466e-16
0.0127127 	32.121 	-3.89675e-07 	9.01465e-16
0.012967 	32.1425 	-4.51887e-07 	9.39622e-16
0.0132212 	32.1653 	-4.51887e-07 	9.39621e-16
0.0134755 	32.1881 	-4.51887e-07 	9.39619e-16
0.0137297 	32.2109 	-4.51887e-07 	9.39618e-16
0.013984 	32.2336 	-4.51887e-07 	9.39616e-16
0.0142382 	32.2564 	-4.51887e-07 	9.39615e-16
0.0144925 	32.2792 	-4.51887e-07 	9.39613e-16
0.0147467 	32.302 	-4.51887e-07 	9.39612e-16
0.015001 	32.3248 	-4.51887e-07 	9.3961e-16
0.0152553 	32.3476 	-4.51887e-07 	9.39609e-16
0.0155095 	32.372 	-5.20988e-07 	9.45991e-16
0.0157638 	32.3984 	-5.20988e-07 	9.4599e-16
0.016018 	32.4247 	-5.20988e-07 	9.45988e-16
0.0162723 	32.451 	-5.20988e-07 	9.45986e-16
0.0165265 	32.4774 	-5.20988e-07 	9.45984e-16
0.0167808 	32.5037 	-5.20988e-07 	9.45983e-16
0.017035 	32.5301 	-5.20988e-07 	9.45981e-16
0.0172893 	32.5564 	-5.20988e-07 	9.45979e-16
0.0175435 	32.5827 	-5.20988e-07 	9.45978e-16
0.0177978 	32.6091 	-5.20988e-07 	9.45976e-16
0.0180521 	32.6368 	-5.95193e-07 	9.50711e-16
0.0183063 	32.6671 	-5.95193e-07 	9.50709e-16
0.0185606 	32.6974 	-5.95193e-07 	9.50707e-16
0.0188148 	32.7276 	-5.95193e-07 	9.50705e-16
0.0190691 	32.7579 	-5.95193e-07 	9.50703e-16
0.0193233 	32.7881 	-5.95193e-07 	9.50701e-16
0.0195776 	32.8184 	-5.95193e-07 	9.50699e-16
0.0198318 	32.8486 	-5.95193e-07 	9.50697e-16
0.0200861 	32.8789 	-5.95193e-07 	9.50695e-16
0.0203403 	32.9091 	-5.95193e-07 	9.50693e-16
0.0205946 	32.9405 	-6.73383e-07 	9.5605e-16
0.0208488 	32.9749 	-6.73383e-07 	9.56048e-16
0.0211031 	33.0093 	-6.73383e-07 	9.56046e-16
0.0213574 	33.0437 	-6.73383e-07 	9.56044e-16
0.0216116 	33.0781 	-6.73383e-07 	9.56042e-16
0.0218659 	33.1125 	-6.73383e-07 	9.56039e-16
0.0221201 	33.1469 	-6.73383e-07 	9.56037e-16
0.0223744 	33.1813 	-6.73383e-07 	9.56035e-16
0.0226286 	33.2157 	-6.73383e-07 	9.56033e-16
0.0228829 	33.2501 	-6.73383e-07 	9.56031e-16
0.0231371 	33.2853 	-7.54905e-07 	9.61977e-16
0.0233914 	33.324 	-7.54905e-07 	9.61975e-16
0.0236456 	33.3628 	-7.54905e-07 	9.61972e-16
0.0238999 	33.4015 	-7.54905e-07 	9.6197e-16
0.0241542 	33.4402 	-7.54905e-07 	9.61967e-16
0.0244084 	33.479 	-7.54905e-07 	9.61965e-16
0.0246627 	33.5177 	-7.54905e-07 	9.61962e-16
0.0249169 	33.5564 	-7.54905e-07 	9.6196e-16
0.0251712 	33.5952 	-7.54905e-07 	9.61957e-16
0.0254254 	33.6339 	-7.54905e-07 	9.61955e-16
0.0256797 	33.673 	-8.3916e-07 	9.68863e-16
0.0259339 	33.7163 	-8.3916e-07 	9.6886e-16
0.0261882 	33.7595 	-8.3916e-07 	9.68857e-16
0.0264424 	33.8027 	-8.3916e-07 	9.68854e-16
0.0266967 	33.846 	-8.3916e-07 	9.68852e-16
0.026951 	33.8892 	-8.3916e-07 	9.68849e-16
0.0272052 	33.9324 	-8.3916e-07 	9.68846e-16
0.0274595 	33.9757 	-8.3916e-07 	9.68843e-16
0.0277137 	34.0189 	-8.3916e-07 	9.68841e-16
0.027968 	34.0621 	-8.3916e-07 	9.68838e-16
0.0282222 	34.1054 	-9.75556e-07 	-2.27838e-18
0.0284765 	34.1533 	-9.24624e-07 	9.76937e-16
0.0287307 	34.2012 	-9.24624e-07 	9.76934e-16
0.028985 	34.2491 	-9.24624e-07 	9.76931e-16
0.0292392 	34.297 	-9.24624e-07 	9.76928e-16
0.0294935 	34.3449 	-9.24624e-07 	9.76925e-16
0.0297477 	34.3929 	-9.24624e-07 	9.76921e-16
0.030002 	34.4408 	-9.24624e-07 	9.76918e-16
0.0302563 	34.4887 	-9.24624e-07 	9.76915e-16
0.0305105 	34.5366 	-9.24624e-07 	9.76912e-16
0.0307648 	34.5845 	-9.24624e-07 	9.76909e-16
0.031019 	34.6369 	-1.00931e-06 	1.02381e-15
0.0312733 	34.6896 	-1.00931e-06 	1.02381e-15
0.0315275 	34.7424 	-1.00931e-06 	1.02381e-15
0.0317818 	34.7952 	-1.00931e-06 	1.0238e-15
0.032036 	34.848 	-1.00931e-06 	1.0238e-15
0.0322903 	34.9007 	-1.00931e-06 	1.0238e-15
0.0325445 	34.9535 	-1.00931e-06 	1.02379e-15
0.0327988 	35.0063 	-1.00931e-06 	1.02379e-15
0.0330531 	35.0591 	-1.00931e-06 	1.02379e-15
0.0333073 	35.1118 	-1.00931e-06 	1.02378e-15
0.0335616 	35.1687 	-1.09563e-06 	9.79549e-16
0.0338158 	35.2266 	-1.09563e-06 	9.79546e-16
0.0340701 	35.2844 	-1.09563e-06 	9.79542e-16
0.0343243 	35.3422 	-1.09563e-06 	9.79538e-16
0.0345786 	35.4 	-1.09563e-06 	9.79535e-16
0.0348328 	35.4578 	-1.09563e-06 	9.79531e-16
0.0350871 	35.5157 	-1.09563e-06 	9.79527e-16
0.0353413 	35.5735 	-1.09563e-06 	9.79523e-16
0.0355956 	35.6313 	-1.09563e-06 	9.7952e-16
0.0358498 	35.6891 	-1.09563e-06 	9.79516e-16
0.0361041 	35.7507 	-1.18461e-06 	1.04487e-15
0.0363584 	35.8138 	-1.18461e-06 	1.04487e-15
0.0366126 	35.8768 	-1.18461e-06 	1.04487e-15
0.0368669 	35.9399 	-1.18461e-06 	1.04486e-15
0.0371211 	36.003 	-1.18461e-06 	1.04486e-15
0.0373754 	36.066 	-1.18461e-06 	1.04485e-15
0.0376296 	36.1291 	-1.18461e-06 	1.04485e-15
0.0378839 	36.1921 	-1.18461e-06 	1.04485e-15
0.0381381 	36.2552 	-1.18461e-06 	1.04484e-15
0.0383924 	36.3182 	-1.18461e-06 	1.04484e-15
0.0386466 	36.3847 	-1.27782e-06 	1.10594e-15
0.0389009 	36.4532 	-1.27782e-06 	1.10593e-15
0.0391552 	36.5217 	-1.27782e-06 	1.10593e-15
0.0394094 	36.5902 	-1.27782e-06 	1.10593e-15
0.0396637 	36.6587 	-1.27782e-06 	1.10592e-15
0.0399179 	36.7272 	-1.27782e-06 	1.10592e-15
0.0401722 	36.7957 	-1.27782e-06 	1.10591e-15
0.0404264 	36.8642 	-1.27782e-06 	1.10591e-15
0.0406807 	36.9327 	-1.27782e-06 	1.1059e-15
0.0409349 	37.0012 	-1.27782e-06 	1.1059e-15
0.0411892 	37.0727 	-1.3747e-06 	1.16177e-15
0.0414434 	37.1469 	-1.3747e-06 	1.16177e-15
0.0416977 	37.221 	-1.3747e-06 	1.16176e-15
0.041952 	37.2951 	-1.3747e-06 	1.16176e-15
0.0422062 	37.3693 	-1.3747e-06 	1.16175e-15
0.0424605 	37.4434 	-1.3747e-06 	1.16175e-15
0.0427147 	37.5176 	-1.3747e-06 	1.16174e-15
0.042969 	37.5917 	-1.3747e-06 	1.16174e-15
0.0432232 	37.6658 	-1.3747e-06 	1.16173e-15
0.0434775 	37.74 	-1.3747e-06 	1.16173e-15
0.0437317 	37.8168 	-1.47496e-06 	1.1941e-15
0.043986 	37.8968 	-1.47496e-06 	1.1941e-15
0.0442402 	37.9768 	-1.47496e-06 	1.19409e-15
0.0444945 	38.0568 	-1.47496e-06 	1.19409e-15
0.0447487 	38.1368 	-1.47496e-06 	1.19408e-15
0.045003 	38.2168 	-1.47496e-06 	1.19408e-15
0.0452573 	38.2968 	-1.47496e-06 	1.19407e-15
0.0455115 	38.3768 	-1.47496e-06 	1.19407e-15
0.0457658 	38.4568 	-1.47496e-06 	1.19406e-15
0.04602 	38.5368 	-1.47496e-06 	1.19406e-15
0.0462743 	38.619 	-1.57851e-06 	1.17403e-15
0.0465285 	38.7051 	-1.57851e-06 	1.17403e-15
0.0467828 	38.7912 	-1.57851e-06 	1.17402e-15
0.047037 	38.8774 	-1.57851e-06 	1.17402e-15
0.0472913 	38.9635 	-1.57851e-06 	1.17401e-15
0.0475455 	39.0496 	-1.57851e-06 	1.17401e-15
0.0477998 	39.1357 	-1.57851e-06 	1.174e-15
0.0480541 	39.2218 	-1.57851e-06 	1.17399e-15
0.0483083 	39.3079 	-1.57851e-06 	1.17399e-15
0.0485626 	39.394 	-1.57851e-06 	1.17398e-15
0.0488168 	39.4818 	-1.68521e-06 	1.14767e-15
0.0490711 	39.5743 	-1.68521e-06 	1.14766e-15
0.0493253 	39.6667 	-1.68521e-06 	1.14765e-15
0.0495796 	39.7591 	-1.68521e-06 	1.14765e-15
0.0498338 	39.8516 	-1.68521e-06 	1.14764e-15
0.0500881 	39.944 	-1.68521e-06 	1.14764e-15
0.0503423 	40.0365 	-1.68521e-06 	1.14763e-15
0.0505966 	40.1289 	-1.68521e-06 	1.14762e-15
0.0508509 	40.2214 	-1.68521e-06 	1.14762e-15
0.0511051 	40.3138 	-1.68521e-06 	1.14761e-15
0.0513594 	40.4074 	-1.79476e-06 	1.17414e-15
0.0516136 	40.5065 	-1.79476e-06 	1.17413e-15
0.0518679 	40.6055 	-1.79476e-06 	1.17413e-15
0.0521221 	40.7045 	-1.79476e-06 	1.17412e-15
0.0523764 	40.8035 	-1.79476e-06 	1.17411e-15
0.0526306 	40.9026 	-1.79476e-06 	1.17411e-15
0.0528849 	41.0016 	-1.79476e-06 	1.1741e-15
0.0531391 	41.1006 	-1.79476e-06 	1.17409e-15
0.0533934 	41.1997 	-1.79476e-06 	1.17409e-15
0.0536476 	41.2987 	-1.79476e-06 	1.17408e-15
0.0539019 	41.3983 	-1.9067e-06 	1.15226e-15
0.0541562 	41.5042 	-1.9067e-06 	1.15225e-15
0.0544104 	41.61 	-1.9067e-06 	1.15224e-15
0.0546647 	41.7159 	-1.9067e-06 	1.15224e-15
0.0549189 	41.8218 	-1.9067e-06 	1.15223e-15
0.0551732 	41.9276 	-1.9067e-06 	1.15222e-15
0.0554274 	42.0335 	-1.9067e-06 	1.15222e-15
0.0556817 	42.1393 	-1.9067e-06 	1.15221e-15
0.0559359 	42.2452 	-1.9067e-06 	1.1522e-15
0.0561902 	42.351 	-1.9067e-06 	1.1522e-15
0.0564444 	42.4569 	-2.27631e-06 	-2.18475e-18
0.0566987 	42.5698 	-2.0203e-06 	1.17477e-15
0.056953 	42.6828 	-2.0203e-06 	1.17476e-15
0.0572072 	42.7957 	-2.0203e-06 	1.17475e-15
0.0574615 	42.9086 	-2.0203e-06 	1.17475e-15
0.0577157 	43.0216 	-2.0203e-06 	1.17474e-15
0.05797 	43.1345 	-2.0203e-06 	1.17473e-15
0.0582242 	43.2474 	-2.0203e-06 	1.17472e-15
0.0584785 	43.3604 	-2.0203e-06 	1.17472e-15
0.0587327 	43.4733 	-2.0203e-06 	1.17471e-15
0.058987 	43.5862 	-2.0203e-06 	1.1747e-15
0.0592412 	43.7058 	-2.13451e-06 	1.20615e-15
0.0594955 	43.8261 	-2.13451e-06 	1.20614e-15
0.0597497 	43.9463 	-2.13451e-06 	1.20613e-15
0.060004 	44.0666 	-2.13451e-06 	1.20612e-15
0.0602583 	44.1868 	-2.13451e-06 	1.20611e-15
0.0605125 	44.3071 	-2.13451e-06 	1.20611e-15
0.0607668 	44.4273 	-2.13451e-06 	1.2061e-15
0.061021 	44.5476 	-2.13451e-06 	1.20609e-15
0.0612753 	44.6678 	-2.13451e-06 	1.20608e-15
0.0615295 	44.7881 	-2.13451e-06 	1.20608e-15
0.0617838 	44.9145 	-2.24927e-06 	1.27697e-15
0.062038 	45.0423 	-2.24927e-06 	1.27696e-15
0.0622923 	45.1701 	-2.24927e-06 	1.27696e-15
0.0625465 	45.2979 	-2.24927e-06 	1.27695e-15
0.0628008 	45.4257 	-2.24927e-06 	1.27694e-15
0.0630551 	45.5535 	-2.24927e-06 	1.27693e-15
0.0633093 	45.6813 	-2.24927e-06 	1.27692e-15
0.0635636 	45.8091 	-2.24927e-06 	1.27691e-15
0.0638178 	45.9369 	-2.24927e-06 	1.27691e-15
0.0640721 	46.0647 	-2.24927e-06 	1.2769e-15
0.0643263 	46.1982 	-2.36404e-06 	1.26865e-15
0.0645806 	46.3337 	-2.36404e-06 	1.26864e-15
0.0648348 	46.4693 	-2.36404e-06 	1.26863e-15
0.0650891 	46.6049 	-2.36404e-06 	1.26862e-15
0.0653433 	46.7404 	-2.36404e-06 	1.26861e-15
0.0655976 	46.876 	-2.36404e-06 	1.2686e-15
0.0658519 	47.0116 	-2.36404e-06 	1.26859e-15
0.0661061 	47.1471 	-2.36404e-06 	1.26859e-15
0.0663604 	47.2827 	-2.36404e-06 	1.26858e-15
0.0666146 	47.4182 	-2.36404e-06 	1.26857e-15
0.0668689 	47.5589 	-2.47736e-06 	1.29444e-15
0.0671231 	47.7024 	-2.47736e-06 	1.29443e-15
0.0673774 	47.846 	-2.47736e-06 	1.29442e-15
0.0676316 	47.9896 	-2.47736e-06 	1.29441e-15
0.0678859 	48.1331 	-2.47736e-06 	1.29441e-15
0.0681401 	48.2767 	-2.47736e-06 	1.2944e-15
0.0683944 	48.4202 	-2.47736e-06 	1.29439e-15
0.0686486 	48.5638 	-2.47736e-06 	1.29438e-15
0.0689029 	48.7073 	-2.47736e-06 	1.29437e-15
0.0691572 	48.8509 	-2.47736e-06 	1.29436e-15
0.0694114 	48.9989 	-2.58808e-06 	1.33263e-15
0.0696657 	49.1507 	-2.58808e-06 	1.33262e-15
0.0699199 	49.3025 	-2.58808e-06 	1.33261e-15
0.0701742 	49.4543 	-2.58808e-06 	1.3326e-15
0.0704284 	49.6061 	-2.58808e-06 	1.33259e-15
0.0706827 	49.7578 	-2.58808e-06 	1.33258e-15
0.0709369 	49.9096 	-2.58808e-06 	1.33257e-15
0.0711912 	50.0614 	-2.58808e-06 	1.33256e-15
0.0714454 	50.2132 	-2.58808e-06 	1.33255e-15
0.0716997 	50.365 	-2.58808e-06 	1.33254e-15
0.071954 	50.5206 	-2.68072e-06 	1.36943e-15
0.0722082 	50.6808 	-2.68072e-06 	1.36942e-15
0.0724625 	50.841 	-2.68072e-06 	1.36941e-15
0.0727167 	51.0011 	-2.68072e-06 	1.3694e-15
0.072971 	51.1613 	-2.68072e-06 	1.36939e-15
0.0732252 	51.3215 	-2.68072e-06 	1.36938e-15
0.0734795 	51.4817 	-2.68072e-06 	1.36937e-15
0.0737337 	51.6419 	-2.68072e-06 	1.36936e-15
0.073988 	51.8021 	-2.68072e-06 	1.36935e-15
0.0742422 	51.9622 	-2.68072e-06 	1.36934e-15
0.0744965 	52.1255 	-2.75868e-06 	1.40459e-15
0.0747508 	52.2941 	-2.75868e-06 	1.40458e-15
0.075005 	52.4628 	-2.75868e-06 	1.40457e-15
0.0752593 	52.6314 	-2.75868e-06 	1.40455e-15
0.0755135 	52.8 	-2.75868e-06 	1.40454e-15
0.0757678 	52.9687 	-2.75868e-06 	1.40453e-15
0.076022 	53.1373 	-2.75868e-06 	1.40452e-15
0.0762763 	53.3059 	-2.75868e-06 	1.40451e-15
0.0765305 	53.4745 	-2.75868e-06 	1.4045e-15
0.0767848 	53.6432 	-2.75868e-06 	1.40449e-15
0.077039 	53.8141 	-2.82227e-06 	1.39337e-15
0.0772933 	53.9911 	-2.82227e-06 	1.39336e-15
0.0775475 	54.1682 	-2.82227e-06 	1.39335e-15
0.0778018 	54.3452 	-2.82227e-06 	1.39334e-15
0.0780561 	54.5223 	-2.82227e-06 	1.39333e-15
0.0783103 	54.6993 	-2.82227e-06 	1.39332e-15
0.0785646 	54.8763 	-2.82227e-06 	1.39331e-15
0.0788188 	55.0534 	-2.82227e-06 	1.39329e-15
0.0790731 	55.2304 	-2.82227e-06 	1.39328e-15
0.0793273 	55.4075 	-2.82227e-06 	1.39327e-15
0.0795816 	55.586 	-2.86222e-06 	1.3926e-15
0.0798358 	55.7713 	-2.86222e-06 	1.39259e-15
0.0800901 	55.9567 	-2.86222e-06 	1.39257e-15
0.0803443 	56.142 	-2.86222e-06 	1.39256e-15
0.0805986 	56.3273 	-2.86222e-06 	1.39255e-15
0.0808529 	56.5126 	-2.86222e-06 	1.39254e-15
0.0811071 	56.698 	-2.86222e-06 	1.39253e-15
0.0813614 	56.8833 	-2.86222e-06 	1.39251e-15
0.0816156 	57.0686 	-2.86222e-06 	1.3925e-15
0.0818699 	57.2539 	-2.86222e-06 	1.39249e-15
0.0821241 	57.44 	-2.87927e-06 	1.42451e-15
0.0823784 	57.6334 	-2.87927e-06 	1.4245e-15
0.0826326 	57.8267 	-2.87927e-06 	1.42448e-15
0.0828869 	58.0201 	-2.87927e-06 	1.42447e-15
0.0831411 	58.2135 	-2.87927e-06 	1.42446e-15
0.0833954 	58.4069 	-2.87927e-06 	1.42445e-15
0.0836496 	58.6003 	-2.87927e-06 	1.42443e-15
0.0839039 	58.7937 	-2.87927e-06 	1.42442e-15
0.0841582 	58.987 	-2.87927e-06 	1.42441e-15
0.0844124 	59.1804 	-2.87927e-06 	1.4244e-15
0.0846667 	59.3738 	-3.78967e-06 	8.45043e-19
0.0849209 	59.5749 	-2.88267e-06 	1.46012e-15
0.0851752 	59.7761 	-2.88267e-06 	1.4601e-15
0.0854294 	59.9772 	-2.88267e-06 	1.46009e-15
0.0856837 	60.1783 	-2.88267e-06 	1.46008e-15
0.0859379 	60.3795 	-2.88267e-06 	1.46007e-15
0.0861922 	60.5806 	-2.88267e-06 	1.46005e-15
0.0864464 	60.7817 	-2.88267e-06 	1.46004e-15
0.0867007 	60.9829 	-2.88267e-06 	1.46003e-15
0.086955 	61.184 	-2.88267e-06 	1.46001e-15
0.0872092 	61.3851 	-2.88267e-06 	1.46e-15
0.0874635 	61.5929 	-2.87672e-06 	1.49748e-15
0.0877177 	61.8014 	-2.87672e-06 	1.49747e-15
0.087972 	62.0098 	-2.87672e-06 	1.49746e-15
0.0882262 	62.2183 	-2.87672e-06 	1.49744e-15
0.0884805 	62.4267 	-2.87672e-06 	1.49743e-15
0.0887347 	62.6352 	-2.87672e-06 	1.49742e-15
0.088989 	62.8436 	-2.87672e-06 	1.4974e-15
0.0892432 	63.0521 	-2.87672e-06 	1.49739e-15
0.0894975 	63.2605 	-2.87672e-06 	1.49738e-15
0.0897518 	63.469 	-2.87672e-06 	1.49736e-15
0.090006 	63.6829 	-2.88016e-06 	1.53596e-15
0.0902603 	63.8981 	-2.88016e-06 	1.53595e-15
0.0905145 	64.1132 	-2.88016e-06 	1.53593e-15
0.0907688 	64.3284 	-2.88016e-06 	1.53592e-15
0.091023 	64.5436 	-2.88016e-06 	1.53591e-15
0.0912773 	64.7587 	-2.88016e-06 	1.53589e-15
0.0915315 	64.9739 	-2.88016e-06 	1.53588e-15
0.0917858 	65.1891 	-2.88016e-06 	1.53586e-15
0.09204 	65.4042 	-2.88016e-06 	1.53585e-15
0.0922943 	65.6194 	-2.88016e-06 	1.53584e-15
0.0925485 	65.8388 	-2.87908e-06 	1.57491e-15
0.0928028 	66.0599 	-2.87908e-06 	1.5749e-15
0.0930571 	66.281 	-2.87908e-06 	1.57489e-15
0.0933113 	66.5021 	-2.87908e-06 	1.57487e-15
0.0935656 	66.7232 	-2.87908e-06 	1.57486e-15
0.0938198 	66.9443 	-2.87908e-06 	1.57484e-15
0.0940741 	67.1653 	-2.87908e-06 	1.57483e-15
0.0943283 	67.3864 	-2.87908e-06 	1.57482e-15
0.0945826 	67.6075 	-2.87908e-06 	1.5748e-15
0.0948368 	67.8286 	-2.87908e-06 	1.57479e-15
0.0950911 	68.0528 	-2.83553e-06 	1.56525e-15
0.0953453 	68.2787 	-2.83553e-06 	1.56523e-15
0.0955996 	68.5046 	-2.83553e-06 	1.56522e-15
0.0958539 	68.7306 	-2.83553e-06 	1.5652e-15
0.0961081 	68.9565 	-2.83553e-06 	1.56519e-15
0.0963624 	69.1824 	-2.83553e-06 	1.56517e-15
0.0966166 	69.4084 	-2.83553e-06 	1.56516e-15
0.0968709 	69.6343 	-2.83553e-06 	1.56514e-15
0.0971251 	69.8602 	-2.83553e-06 	1.56513e-15
0.0973794 	70.0861 	-2.83553e-06 	1.56512e-15
0.0976336 	70.3139 	-2.75791e-06 	1.65504e-15
0.0978879 	70.5432 	-2.75791e-06 	1.65502e-15
0.0981421 	70.7725 	-2.75791e-06 	1.65501e-15
0.0983964 	71.0018 	-2.75791e-06 	1.65499e-15
0.0986507 	71.2311 	-2.75791e-06 	1.65498e-15
0.0989049 	71.4604 	-2.75791e-06 	1.65496e-15
0.0991592 	71.6897 	-2.75791e-06 	1.65495e-15
0.0994134 	71.919 	-2.75791e-06 	1.65493e-15
0.0996677 	72.1483 	-2.75791e-06 	1.65492e-15
0.0999219 	72.3777 	-2.75791e-06 	1.6549e-15
0.100176 	72.6077 	-2.64386e-06 	1.75098e-15
0.10043 	72.8385 	-2.64386e-06 	1.75097e-15
0.100685 	73.0694 	-2.64386e-06 	1.75095e-15
0.100939 	73.3002 	-2.64386e-06 	1.75094e-15
0.101193 	73.5311 	-2.64386e-06 	1.75092e-15
0.101447 	73.7619 	-2.64386e-06 	1.75091e-15
0.101702 	73.9928 	-2.64386e-06 	1.75089e-15
0.101956 	74.2236 	-2.64386e-06 	1.75088e-15
0.10221 	74.4544 	-2.64386e-06 	1.75086e-15
0.102464 	74.6853 	-2.64386e-06 	1.75085e-15
0.102719 	74.9159 	-2.47339e-06 	1.77685e-15
0.102973 	75.1462 	-2.47339e-06 	1.77683e-15
0.103227 	75.3764 	-2.47339e-06 	1.77682e-15
0.103481 	75.6067 	-2.47339e-06 	1.7768e-15
0.103736 	75.8369 	-2.47339e-06 	1.77679e-15
0.10399 	76.0672 	-2.47339e-06 	1.77677e-15
0.104244 	76.2974 	-2.47339e-06 	1.77676e-15
0.104498 	76.5276 	-2.47339e-06 	1.77675e-15
0.104753 	76.7579 	-2.47339e-06 	1.77673e-15
0.105007 	76.9881 	-2.47339e-06 	1.77672e-15
0.105261 	77.2176 	-2.28673e-06 	1.85595e-15
0.105516 	77.4448 	-2.28673e-06 	1.85593e-15
0.10577 	77.6721 	-2.28673e-06 	1.85592e-15
0.106024 	77.8993 	-2.28673e-06 	1.8559e-15
0.106278 	78.1265 	-2.28673e-06 	1.85589e-15
0.106533 	78.3538 	-2.28673e-06 	1.85588e-15
0.106787 	78.581 	-2.28673e-06 	1.85586e-15
0.107041 	78.8083 	-2.28673e-06 	1.85585e-15
0.107295 	79.0355 	-2.28673e-06 	1.85583e-15
0.10755 	79.2628 	-2.28673e-06 	1.85582e-15
0.107804 	79.489 	-2.01168e-06 	1.9565e-15
0.108058 	79.7107 	-2.01168e-06 	1.95649e-15
0.108312 	79.9324 	-2.01168e-06 	1.95647e-15
0.108567 	80.1541 	-2.01168e-06 	1.95646e-15
0.108821 	80.3758 	-2.01168e-06 	1.95644e-15
0.109075 	80.5975 	-2.01168e-06 	1.95643e-15
0.109329 	80.8192 	-2.01168e-06 	1.95642e-15
0.109584 	81.0409 	-2.01168e-06 	1.9564e-15
0.109838 	81.2626 	-2.01168e-06 	1.95639e-15
0.110092 	81.4843 	-2.01168e-06 	1.95637e-15
0.110346 	81.7052 	-1.71841e-06 	1.97551e-15
0.110601 	81.9186 	-1.71841e-06 	1.97549e-15
0.110855 	82.132 	-1.71841e-06 	1.97548e-15
0.111109 	82.3454 	-1.71841e-06 	1.97547e-15
0.111363 	82.5587 	-1.71841e-06 	1.97545e-15
0.111618 	82.7721 	-1.71841e-06 	1.97544e-15
0.111872 	82.9855 	-1.71841e-06 	1.97543e-15
0.112126 	83.1989 	-1.71841e-06 	1.97541e-15
0.11238 	83.4122 	-1.71841e-06 	1.9754e-15
0.112635 	83.6256 	-1.71841e-06 	1.97538e-15
0.112889 	83.839 	-2.8098e-06 	3.35097e-18
0.113143 	84.041 	-1.36311e-06 	1.9997e-15
0.113397 	84.243 	-1.36311e-06 	1.99969e-15
0.113652 	84.4451 	-1.36311e-06 	1.99968e-15
0.113906 	84.6471 	-1.36311e-06 	1.99966e-15
0.11416 	84.8491 	-1.36311e-06 	1.99965e-15
0.114414 	85.0512 	-1.36311e-06 	1.99964e-15
0.114669 	85.2532 	-1.36311e-06 	1.99963e-15
0.114923 	85.4553 	-1.36311e-06 	1.99961e-15
0.115177 	85.6573 	-1.36311e-06 	1.9996e-15
0.115431 	85.8593 	-1.36311e-06 	1.99959e-15
0.115686 	86.0481 	-9.73898e-07 	2.01717e-15
0.11594 	86.2356 	-9.73898e-07 	2.01716e-15
0.116194 	86.423 	-9.73898e-07 	2.01714e-15
0.116448 	86.6105 	-9.73898e-07 	2.01713e-15
0.116703 	86.7979 	-9.73898e-07 	2.01712e-15
0.116957 	86.9854 	-9.73898e-07 	2.01711e-15
0.117211 	87.1728 	-9.73898e-07 	2.0171e-15
0.117465 	87.3603 	-9.73898e-07 	2.01708e-15
0.11772 	87.5478 	-9.73898e-07 	2.01707e-15
0.117974 	87.7352 	-9.73898e-07 	2.01706e-15
0.118228 	87.908 	-5.8077e-07 	2.02842e-15
0.118482 	88.0775 	-5.8077e-07 	2.02841e-15
0.118737 	88.2471 	-5.8077e-07 	2.0284e-15
0.118991 	88.4166 	-5.8077e-07 	2.02839e-15
0.119245 	88.5862 	-5.8077e-07 	2.02838e-15
0.119499 	88.7557 	-5.8077e-07 	2.02837e-15
0.119754 	88.9252 	-5.8077e-07 	2.02836e-15
0.120008 	89.0948 	-5.8077e-07 	2.02835e-15
0.120262 	89.2643 	-5.8077e-07 	2.02834e-15
0.120517 	89.4338 	-5.8077e-07 	2.02832e-15
0.120771 	89.588 	-1.80455e-07 	2.03416e-15
0.121025 	89.7365 	-1.80455e-07 	2.03415e-15
0.121279 	89.8849 	-1.80455e-07 	2.03414e-15
0.121534 	90.0334 	-1.80455e-07 	2.03413e-15
0.121788 	90.1818 	-1.80455e-07 	2.03412e-15
0.122042 	90.3303 	-1.80455e-07 	2.03411e-15
0.122296 	90.4787 	-1.80455e-07 	2.0341e-15
0.122551 	90.6271 	-1.80455e-07 	2.03409e-15
0.122805 	90.7756 	-1.80455e-07 	2.03408e-15
0.123059 	90.924 	-1.80455e-07 	2.03407e-15
0.123313 	91.0573 	2.21166e-07 	2.03508e-15
0.123568 	91.1819 	2.21166e-07 	2.03507e-15
0.123822 	91.3065 	2.21166e-07 	2.03507e-15
0.124076 	91.4311 	2.21166e-07 	2.03506e-15
0.12433 	91.5557 	2.21166e-07 	2.03505e-15
0.124585 	91.6803 	2.21166e-07 	2.03504e-15
0.124839 	91.8049 	2.21166e-07 	2.03503e-15
0.125093 	91.9295 	2.21166e-07 	2.03503e-15
0.125347 	92.0541 	2.21166e-07 	2.03502e-15
0.125602 	92.1787 	2.21166e-07 	2.03501e-15
0.125856 	92.2891 	5.84513e-07 	2.03132e-15
0.12611 	92.3879 	5.84513e-07 	2.03132e-15
0.126364 	92.4866 	5.84513e-07 	2.03131e-15
0.126619 	92.5853 	5.84513e-07 	2.03131e-15
0.126873 	92.684 	5.84513e-07 	2.0313e-15
0.127127 	92.7827 	5.84513e-07 	2.03129e-15
0.127381 	92.8814 	5.84513e-07 	2.03129e-15
0.127636 	92.9802 	5.84513e-07 	2.03128e-15
0.12789 	93.0789 	5.84513e-07 	2.03127e-15
0.128144 	93.1776 	5.84513e-07 	2.03127e-15
0.128398 	93.2641 	9.08815e-07 	2.0217e-15
0.128653 	93.3359 	9.08815e-07 	2.0217e-15
0.128907 	93.4078 	9.08815e-07 	2.02169e-15
0.129161 	93.4796 	9.08815e-07 	2.02169e-15
0.129415 	93.5515 	9.08815e-07 	2.02169e-15
0.12967 	93.6233 	9.08815e-07 	2.02168e-15
0.129924 	93.6952 	9.08815e-07 	2.02168e-15
0.130178 	93.7671 	9.08815e-07 	2.02167e-15
0.130432 	93.8389 	9.08815e-07 	2.02167e-15
0.130687 	93.9108 	9.08815e-07 	2.02166e-15
0.130941 	93.9729 	1.18265e-06 	2.00702e-15
0.131195 	94.018 	1.18265e-06 	2.00701e-15
0.131449 	94.0632 	1.18265e-06 	2.00701e-15
0.131704 	94.1083 	1.18265e-06 	2.00701e-15
0.131958 	94.1535 	1.18265e-06 	2.007e-15
0.132212 	94.1986 	1.18265e-06 	2.007e-15
0.132466 	94.2438 	1.18265e-06 	2.007e-15
0.132721 	94.2889 	1.18265e-06 	2.00699e-15
0.132975 	94.334 	1.18265e-06 	2.00699e-15
0.133229 	94.3792 	1.18265e-06 	2.00699e-15
0.133483 	94.4174 	1.39716e-06 	1.98885e-15
0.133738 	94.437 	1.39716e-06 	1.98885e-15
0.133992 	94.4565 	1.39716e-06 	1.98884e-15
0.134246 	94.4761 	1.39716e-06 	1.98884e-15
0.134501 	94.4957 	1.39716e-06 	1.98884e-15
0.134755 	94.5153 	1.39716e-06 	1.98884e-15
0.135009 	94.5349 	1.39716e-06 	1.98884e-15
0.135263 	94.5545 	1.39716e-06 	1.98884e-15
0.135518 	94.5741 	1.39716e-06 	1.98884e-15
0.135772 	94.5936 	1.39716e-06 	1.98884e-15
0.136026 	94.6089 	1.58914e-06 	2.01974e-15
0.13628 	94.6048 	1.58914e-06 	2.01974e-15
0.136535 	94.6006 	1.58914e-06 	2.01974e-15
0.136789 	94.5965 	1.58914e-06 	2.01974e-15
0.137043 	94.5923 	1.58914e-06 	2.01974e-15
0.137297 	94.5882 	1.58914e-06 	2.01974e-15
0.137552 	94.584 	1.58914e-06 	2.01974e-15
0.137806 	94.5799 	1.58914e-06 	2.01974e-15
0.13806 	94.5758 	1.58914e-06 	2.01974e-15
0.138314 	94.5716 	1.58914e-06 	2.01974e-15
0.138569 	94.5655 	1.74149e-06 	1.95255e-15
0.138823 	94.5397 	1.74149e-06 	1.95255e-15
0.139077 	94.514 	1.74149e-06 	1.95256e-15
0.139331 	94.4882 	1.74149e-06 	1.95256e-15
0.139586 	94.4624 	1.74149e-06 	1.95256e-15
0.13984 	94.4367 	1.74149e-06 	1.95256e-15
0.140094 	94.4109 	1.74149e-06 	1.95256e-15
0.140348 	94.3851 	1.74149e-06 	1.95256e-15
0.140603 	94.3594 	1.74149e-06 	1.95257e-15
0.140857 	94.3336 	1.74149e-06 	1.95257e-15
0.141111 	94.3078 	9.33167e-07 	3.79831e-19
0.141365 	94.2626 	1.8654e-06 	1.9213e-15
0.14162 	94.2174 	1.8654e-06 	1.92131e-15
0.141874 	94.1722 	1.8654e-06 	1.92131e-15
0.142128 	94.127 	1.8654e-06 	1.92131e-15
0.142382 	94.0817 	1.8654e-06 	1.92132e-15
0.142637 	94.0365 	1.8654e-06 	1.92132e-15
0.142891 	93.9913 	1.8654e-06 	1.92132e-15
0.143145 	93.9461 	1.8654e-06 	1.92132e-15
0.143399 	93.9009 	1.8654e-06 	1.92133e-15
0.143654 	93.8557 	1.8654e-06 	1.92133e-15
0.143908 	93.7947 	1.98109e-06 	1.85153e-15
0.144162 	93.7321 	1.98109e-06 	1.85153e-15
0.144416 	93.6696 	1.98109e-06 	1.85154e-15
0.144671 	93.607 	1.98109e-06 	1.85154e-15
0.144925 	93.5444 	1.98109e-06 	1.85154e-15
0.145179 	93.4819 	1.98109e-06 	1.85155e-15
0.145433 	93.4193 	1.98109e-06 	1.85155e-15
0.145688 	93.3567 	1.98109e-06 	1.85156e-15
0.145942 	93.2942 	1.98109e-06 	1.85156e-15
0.146196 	93.2316 	1.98109e-06 	1.85156e-15
0.14645 	93.1565 	2.08636e-06 	1.77045e-15
0.146705 	93.0785 	2.08636e-06 	1.77046e-15
0.146959 	93.0005 	2.08636e-06 	1.77046e-15
0.147213 	92.9225 	2.08636e-06 	1.77047e-15
0.147467 	92.8445 	2.08636e-06 	1.77047e-15
0.147722 	92.7666 	2.08636e-06 	1.77048e-15
0.147976 	92.6886 	2.08636e-06 	1.77048e-15
0.14823 	92.6106 	2.08636e-06 	1.77049e-15
0.148484 	92.5326 	2.08636e-06 	1.77049e-15
0.148739 	92.4547 	2.08636e-06 	1.7705e-15
0.148993 	92.3667 	2.18652e-06 	1.73439e-15
0.149247 	92.2751 	2.18652e-06 	1.7344e-15
0.149502 	92.1835 	2.18652e-06 	1.7344e-15
0.149756 	92.0918 	2.18652e-06 	1.73441e-15
0.15001 	92.0002 	2.18652e-06 	1.73441e-15
0.150264 	91.9085 	2.18652e-06 	1.73442e-15
0.150519 	91.8169 	2.18652e-06 	1.73443e-15
0.150773 	91.7252 	2.18652e-06 	1.73443e-15
0.151027 	91.6336 	2.18652e-06 	1.73444e-15
0.151281 	91.542 	2.18652e-06 	1.73444e-15
0.151536 	91.4427 	2.28122e-06 	1.70683e-15
0.15179 	91.339 	2.28122e-06 	1.70683e-15
0.152044 	91.2353 	2.28122e-06 	1.70684e-15
0.152298 	91.1317 	2.28122e-06 	1.70685e-15
0.152553 	91.028 	2.28122e-06 	1.70685e-15
0.152807 	90.9243 	2.28122e-06 	1.70686e-15
0.153061 	90.8207 	2.28122e-06 	1.70687e-15
0.153315 	90.717 	2.28122e-06 	1.70687e-15
0.15357 	90.6133 	2.28122e-06 	1.70688e-15
0.153824 	90.5097 	2.28122e-06 	1.70689e-15
0.154078 	90.4003 	2.3673e-06 	1.67937e-15
0.154332 	90.2862 	2.3673e-06 	1.67938e-15
0.154587 	90.1722 	2.3673e-06 	1.67939e-15
0.154841 	90.0581 	2.3673e-06 	1.67939e-15
0.155095 	89.944 	2.3673e-06 	1.6794e-15
0.155349 	89.83 	2.3673e-06 	1.67941e-15
0.155604 	89.7159 	2.3673e-06 	1.67942e-15
0.155858 	89.6018 	2.3673e-06 	1.67942e-15
0.156112 	89.4877 	2.3673e-06 	1.67943e-15
0.156366 	89.3737 	2.3673e-06 	1.67944e-15
0.156621 	89.2556 	2.44165e-06 	1.65232e-15
0.156875 	89.1328 	2.44165e-06 	1.65233e-15
0.157129 	89.0099 	2.44165e-06 	1.65234e-15
0.157383 	88.8871 	2.44165e-06 	1.65235e-15
0.157638 	88.7643 	2.44165e-06 	1.65236e-15
0.157892 	88.6414 	2.44165e-06 	1.65236e-15
0.158146 	88.5186 	2.44165e-06 	1.65237e-15
0.1584 	88.3958 	2.44165e-06 	1.65238e-15
0.158655 	88.273 	2.44165e-06 	1.65239e-15
0.158909 	88.1501 	2.44165e-06 	1.6524e-15
0.159163 	88.0247 	2.50241e-06 	1.66656e-15
0.159417 	87.8948 	2.50241e-06 	1.66657e-15
0.159672 	87.7649 	2.50241e-06 	1.66658e-15
0.159926 	87.635 	2.50241e-06 	1.66659e-15
0.16018 	87.5051 	2.50241e-06 	1.6666e-15
0.160434 	87.3751 	2.50241e-06 	1.66661e-15
0.160689 	87.2452 	2.50241e-06 	1.66661e-15
0.160943 	87.1153 	2.50241e-06 	1.66662e-15
0.161197 	86.9854 	2.50241e-06 	1.66663e-15
0.161451 	86.8555 	2.50241e-06 	1.66664e-15
0.161706 	86.7241 	2.54909e-06 	1.68934e-15
0.16196 	86.5888 	2.54909e-06 	1.68934e-15
0.162214 	86.4535 	2.54909e-06 	1.68935e-15
0.162468 	86.3181 	2.54909e-06 	1.68936e-15
0.162723 	86.1828 	2.54909e-06 	1.68937e-15
0.162977 	86.0475 	2.54909e-06 	1.68938e-15
0.163231 	85.9122 	2.54909e-06 	1.68939e-15
0.163485 	85.7768 	2.54909e-06 	1.6894e-15
0.16374 	85.6415 	2.54909e-06 	1.68941e-15
0.163994 	85.5062 	2.54909e-06 	1.68941e-15
0.164248 	85.3702 	2.58213e-06 	1.65863e-15
0.164503 	85.2311 	2.58213e-06 	1.65864e-15
0.164757 	85.092 	2.58213e-06 	1.65865e-15
0.165011 	84.9529 	2.58213e-06 	1.65865e-15
0.165265 	84.8137 	2.58213e-06 	1.65866e-15
0.16552 	84.6746 	2.58213e-06 	1.65867e-15
0.165774 	84.5355 	2.58213e-06 	1.65868e-15
0.166028 	84.3964 	2.58213e-06 	1.65869e-15
0.166282 	84.2573 	2.58213e-06 	1.6587e-15
0.166537 	84.1182 	2.58213e-06 	1.65871e-15
0.166791 	83.9789 	2.60221e-06 	1.6276e-15
0.167045 	83.8375 	2.60221e-06 	1.6276e-15
0.167299 	83.6961 	2.60221e-06 	1.62761e-15
0.167554 	83.5547 	2.60221e-06 	1.62762e-15
0.167808 	83.4133 	2.60221e-06 	1.62763e-15
0.168062 	83.2719 	2.60221e-06 	1.62764e-15
0.168316 	83.1305 	2.60221e-06 	1.62765e-15
0.168571 	82.9891 	2.60221e-06 	1.62766e-15
0.168825 	82.8477 	2.60221e-06 	1.62767e-15
0.169079 	82.7063 	2.60221e-06 	1.62768e-15
0.169333 	82.565 	1.9614e-06 	-1.21611e-18