0 	31.3768 	-0.0268875 	1.30175e-13
0.000254254 	31.3769 	-0.0268811 	1.30163e-11
0.000508509 	31.3769 	-0.0268747 	2.59024e-11
0.000762763 	31.3801 	-0.0270339 	-7.07302e-06
0.00101702 	31.3857 	-0.0273184 	-1.9496e-05
0.00127127 	31.3913 	-0.027603 	-3.1919e-05
0.00152553 	31.3969 	-0.0278875 	-2.06483e-05
0.00177978 	31.4025 	-0.0281721 	-8.23535e-06
0.00203403 	31.41 	-0.0284906 	2.6988e-11
0.00228829 	31.4212 	-0.0288762 	1.40848e-11
0.00254254 	31.4324 	-0.0292618 	1.18167e-12
0.0027968 	31.4437 	-0.0290247 	1.17077e-11
0.00305105 	31.4549 	-0.0287249 	2.45959e-11
0.00330531 	31.4675 	-0.0286679 	-4.25143e-06
0.00355956 	31.4814 	-0.0288693 	-1.30259e-05
0.00381381 	31.4953 	-0.0290707 	-2.18004e-05
0.00406807 	31.5092 	-0.0292721 	-1.54584e-05
0.00432232 	31.5231 	-0.0294734 	-6.69986e-06
0.00457658 	31.5376 	-0.0297608 	2.81197e-11
0.00483083 	31.5541 	-0.0303281 	1.52394e-11
0.00508509 	31.5707 	-0.0308954 	2.35907e-12
0.00533934 	31.5873 	-0.0308331 	1.10151e-11
0.00559359 	31.604 	-0.0306296 	2.45001e-11
0.00584785 	31.6208 	-0.0306807 	-7.49589e-06
0.0061021 	31.6379 	-0.0311036 	-2.59387e-05
0.00635636 	31.6549 	-0.0315265 	-4.43816e-05
0.00661061 	31.6719 	-0.0319494 	-3.44549e-05
0.00686486 	31.6889 	-0.0323722 	-1.60678e-05
0.00711912 	31.706 	-0.0328383 	3.06435e-11
0.00737337 	31.7234 	-0.0336036 	1.71721e-11
0.00762763 	31.7408 	-0.034369 	3.70065e-12
0.00788188 	31.7583 	-0.0344782 	9.76841e-12
0.00813614 	31.776 	-0.034339 	2.32367e-11
0.00839039 	31.7938 	-0.0344524 	-8.98271e-06
0.00864464 	31.8118 	-0.0350651 	-3.57128e-05
0.0088989 	31.8299 	-0.0356778 	-6.24429e-05
0.00915315 	31.848 	-0.0362904 	-5.29825e-05
0.00940741 	31.8661 	-0.0369031 	-2.63654e-05
0.00966166 	31.8842 	-0.037519 	3.1824e-11
0.00991592 	31.9027 	-0.038472 	1.83747e-11
0.0101702 	31.9212 	-0.0394251 	4.9254e-12
0.0104244 	31.94 	-0.0396941 	8.96575e-12
0.0106787 	31.9589 	-0.0395678 	2.31124e-11
0.0109329 	31.978 	-0.0396824 	-9.0055e-06
0.0111872 	31.9979 	-0.0404374 	-4.19469e-05
0.0114414 	32.0178 	-0.0411924 	-7.48883e-05
0.0116957 	32.0377 	-0.0419474 	-6.92937e-05
0.0119499 	32.0576 	-0.0427024 	-3.65311e-05
0.0122042 	32.0775 	-0.0434574 	-3.76855e-06
0.0124585 	32.0983 	-0.0445429 	2.0584e-11
0.0127127 	32.1193 	-0.0456713 	6.46303e-12
0.012967 	32.1404 	-0.0461032 	7.97327e-12
0.0132212 	32.1618 	-0.0459472 	2.26759e-11
0.0134755 	32.1834 	-0.0460127 	-8.17394e-06
0.0137297 	32.2062 	-0.0468705 	-4.55923e-05
0.013984 	32.229 	-0.0477283 	-8.30107e-05
0.0142382 	32.2518 	-0.0485861 	-8.35359e-05
0.0144925 	32.2745 	-0.0494439 	-4.63653e-05
0.0147467 	32.2973 	-0.0503017 	-9.19484e-06
0.015001 	32.3212 	-0.0514873 	2.27255e-11
0.0152553 	32.3454 	-0.0527806 	8.05539e-12
0.0155095 	32.3699 	-0.0533932 	6.65143e-12
0.0157638 	32.3945 	-0.0531766 	2.14032e-11
0.016018 	32.4195 	-0.0531567 	-6.96031e-06
0.0162723 	32.4458 	-0.0540887 	-4.7595e-05
0.0165265 	32.4722 	-0.0550206 	-8.82297e-05
0.0167808 	32.4985 	-0.0559526 	-9.62625e-05
0.017035 	32.5248 	-0.0568845 	-5.59454e-05
0.0172893 	32.5512 	-0.0578165 	-1.56283e-05
0.0175435 	32.5785 	-0.059066 	2.41364e-11
0.0177978 	32.6065 	-0.0605166 	9.42311e-12
0.0180521 	32.6347 	-0.0613382 	5.30904e-12
0.0183063 	32.6632 	-0.0610397 	2.00751e-11
0.0185606 	32.6919 	-0.0609109 	-5.67553e-06
0.0188148 	32.7221 	-0.061898 	-4.86879e-05
0.0190691 	32.7524 	-0.0628852 	-9.17003e-05
0.0193233 	32.7827 	-0.0638724 	-0.000108093
0.0195776 	32.8129 	-0.0648595 	-6.54677e-05
0.0198318 	32.8432 	-0.0658467 	-2.28425e-05
0.0200861 	32.8743 	-0.0671198 	2.54938e-11
0.0203403 	32.9063 	-0.0687231 	1.07721e-11
0.0205946 	32.9384 	-0.0697905 	3.96532e-12
0.0208488 	32.971 	-0.0693959 	1.87461e-11
0.0211031 	33.0037 	-0.0691445 	-4.51024e-06
0.0213574 	33.0381 	-0.0701756 	-4.93964e-05
0.0216116 	33.0725 	-0.0712067 	-9.42825e-05
0.0218659 	33.1069 	-0.0722378 	-0.000119613
0.0221201 	33.1413 	-0.0732689 	-7.51841e-05
0.0223744 	33.1757 	-0.0742999 	-3.07548e-05
0.0226286 	33.2107 	-0.0755538 	2.68522e-11
0.0228829 	33.247 	-0.0773085 	1.21217e-11
0.0231371 	33.2833 	-0.0786639 	2.62018e-12
0.0233914 	33.3201 	-0.0781633 	1.74156e-11
0.0236456 	33.357 	-0.0777835 	-3.5786e-06
0.0238999 	33.3958 	-0.0788531 	-5.00896e-05
0.0241542 	33.4345 	-0.0799226 	-9.66005e-05
0.0244084 	33.4733 	-0.0809922 	-0.00013136
0.0246627 	33.512 	-0.0820617 	-8.53772e-05
0.0249169 	33.5508 	-0.0831313 	-3.9394e-05
0.0251712 	33.5898 	-0.084321 	2.82105e-11
0.0254254 	33.6304 	-0.0862294 	1.34713e-11
0.0256797 	33.6711 	-0.0879204 	1.2743e-12
0.0259339 	33.7124 	-0.0873013 	1.60896e-11
0.0261882 	33.7537 	-0.0867883 	-2.95433e-06
0.0264424 	33.7969 	-0.0878963 	-5.10757e-05
0.0266967 	33.8402 	-0.0890042 	-9.9197e-05
0.026951 	33.8835 	-0.0901122 	-0.000143957
0.0272052 	33.9267 	-0.0912202 	-9.64378e-05
0.0274595 	33.97 	-0.0923282 	-4.89184e-05
0.0277137 	34.0132 	-0.0934362 	-1.39898e-06
0.027968 	34.0584 	-0.0954817 	1.48264e-11
0.0282222 	34.1037 	-0.0975556 	7.31017e-14
0.0284765 	34.1495 	-0.096796 	1.47703e-11
0.0287307 	34.1954 	-0.0961259 	-2.68466e-06
0.028985 	34.2433 	-0.0972745 	-5.24839e-05
0.0292392 	34.2913 	-0.098423 	-0.000102283
0.0294935 	34.3392 	-0.0995716 	-0.000152083
0.0297477 	34.3871 	-0.10072 	-0.000108579
0.030002 	34.4351 	-0.101869 	-5.94598e-05
0.0302563 	34.483 	-0.103017 	-1.03407e-05
0.0305105 	34.5326 	-0.105057 	1.61919e-11
0.0307648 	34.5826 	-0.107334 	1.41576e-12
0.031019 	34.6331 	-0.106651 	1.3967e-11
0.0312733 	34.6839 	-0.105773 	-2.80636e-06
0.0315275 	34.7367 	-0.106962 	-5.42389e-05
0.0317818 	34.7895 	-0.108151 	-0.000105671
0.032036 	34.8423 	-0.109341 	-0.000157104
0.0322903 	34.8951 	-0.11053 	-0.000121615
0.0325445 	34.9479 	-0.111719 	-7.09429e-05
0.0327988 	35.0007 	-0.112908 	-2.02713e-05
0.0330531 	35.0547 	-0.114912 	1.8238e-11
0.0333073 	35.1097 	-0.117459 	2.86738e-12
0.0335616 	35.1651 	-0.116917 	1.19335e-11
0.0338158 	35.2208 	-0.115823 	-3.35756e-06
0.0340701 	35.2787 	-0.11705 	-5.62877e-05
0.0343243 	35.3365 	-0.118278 	-0.000109218
0.0345786 	35.3944 	-0.119505 	-0.000162148
0.0348328 	35.4522 	-0.120732 	-0.00013533
0.0350871 	35.51 	-0.12196 	-8.32428e-05
0.0353413 	35.5679 	-0.123187 	-3.11553e-05
0.0355956 	35.6266 	-0.125064 	1.86363e-11
0.0358498 	35.6867 	-0.127907 	4.04422e-12
0.0361041 	35.7472 	-0.127599 	1.1219e-11
0.0363584 	35.8081 	-0.126306 	-4.37518e-06
0.0366126 	35.8712 	-0.127569 	-5.86587e-05
0.0368669 	35.9343 	-0.128832 	-0.000112942
0.0371211 	35.9974 	-0.130094 	-0.000167226
0.0373754 	36.0604 	-0.131357 	-0.000149665
0.0376296 	36.1235 	-0.13262 	-9.63061e-05
0.0378839 	36.1866 	-0.133883 	-4.29467e-05
0.0381381 	36.2501 	-0.135513 	2.11051e-11
0.0383924 	36.3155 	-0.138661 	5.67297e-12
0.0386466 	36.3813 	-0.138699 	1.02982e-11
0.0389009 	36.4476 	-0.137256 	-5.89541e-06
0.0391552 	36.5161 	-0.138553 	-6.14398e-05
0.0394094 	36.5847 	-0.139849 	-0.000116984
0.0396637 	36.6532 	-0.141145 	-0.000172529
0.0399179 	36.7217 	-0.142442 	-0.000164724
0.0401722 	36.7902 	-0.143738 	-0.000110186
0.0404264 	36.8587 	-0.145034 	-5.56477e-05
0.0406807 	36.9273 	-0.146331 	-1.10946e-06
0.0409349 	36.9981 	-0.149721 	7.41186e-12
0.0411892 	37.0694 	-0.150202 	9.18739e-12
0.0414434 	37.1414 	-0.148658 	-7.95514e-06
0.0416977 	37.2155 	-0.149987 	-6.47298e-05
0.041952 	37.2897 	-0.151317 	-0.000121504
0.0422062 	37.3639 	-0.152646 	-0.000178279
0.0424605 	37.438 	-0.153976 	-0.000180682
0.0427147 	37.5122 	-0.155305 	-0.000124997
0.042969 	37.5864 	-0.156635 	-6.93111e-05
0.0432232 	37.6605 	-0.157964 	-1.36256e-05
0.0434775 	37.7366 	-0.161093 	9.22992e-12
0.0437317 	37.8136 	-0.162109 	7.79552e-12
0.043986 	37.8914 	-0.160515 	-1.05873e-05
0.0442402 	37.9715 	-0.161878 	-6.85676e-05
0.0444945 	38.0515 	-0.16324 	-0.000126548
0.0447487 	38.1315 	-0.164603 	-0.000184528
0.045003 	38.2116 	-0.165965 	-0.000197574
0.0452573 	38.2916 	-0.167327 	-0.000140766
0.0455115 	38.3717 	-0.16869 	-8.39587e-05
0.0457658 	38.4517 	-0.170052 	-2.71512e-05
0.04602 	38.5331 	-0.172784 	1.09336e-11
0.0462743 	38.616 	-0.174424 	6.07534e-12
0.0465285 	38.7 	-0.172839 	-1.38158e-05
0.0467828 	38.7861 	-0.174233 	-7.29432e-05
0.047037 	38.8723 	-0.175628 	-0.000132071
0.0472913 	38.9584 	-0.177022 	-0.000191198
0.0475455 	39.0446 	-0.178416 	-0.000215293
0.0477998 	39.1307 	-0.17981 	-0.000157422
0.0480541 	39.2169 	-0.181205 	-9.95508e-05
0.0483083 	39.303 	-0.182599 	-4.16796e-05
0.0485626 	39.3899 	-0.184794 	1.21348e-11
0.0488168 	39.4789 	-0.187149 	4.41654e-12
0.0490711 	39.5694 	-0.185634 	-1.76522e-05
0.0493253 	39.6619 	-0.187058 	-7.78297e-05
0.0495796 	39.7543 	-0.188482 	-0.000138007
0.0498338 	39.8468 	-0.189907 	-0.000198185
0.0500881 	39.9393 	-0.191331 	-0.000233683
0.0503423 	40.0318 	-0.192755 	-0.000174843
0.0505966 	40.1243 	-0.194179 	-0.000116004
0.0508509 	40.2168 	-0.195603 	-5.71638e-05
0.0511051 	40.3093 	-0.197116 	1.31776e-11
0.0513594 	40.4047 	-0.200273 	2.99422e-12
0.0516136 	40.5019 	-0.198896 	-2.20887e-05
0.0518679 	40.601 	-0.200347 	-8.3167e-05
0.0521221 	40.7 	-0.201799 	-0.000144245
0.0523764 	40.7991 	-0.20325 	-0.000205323
0.0526306 	40.8982 	-0.204701 	-0.000252484
0.0528849 	40.9972 	-0.206152 	-0.000192822
0.0531391 	41.0963 	-0.207603 	-0.00013316
0.0533934 	41.1954 	-0.209054 	-7.34973e-05
0.0536476 	41.2945 	-0.210505 	-1.38351e-05
0.0539019 	41.3958 	-0.213779 	1.4776e-12
0.0541562 	41.5 	-0.212612 	-2.70864e-05
0.0544104 	41.6059 	-0.214085 	-8.88432e-05
0.0546647 	41.7118 	-0.215559 	-0.0001506
0.0549189 	41.8177 	-0.217032 	-0.000212357
0.0551732 	41.9236 	-0.218505 	-0.000271289
0.0554274 	42.0295 	-0.219978 	-0.00021102
0.0556817 	42.1354 	-0.221452 	-0.000150751
0.0559359 	42.2413 	-0.222925 	-9.04826e-05
0.0561902 	42.3472 	-0.224398 	-3.02139e-05
0.0564444 	42.4546 	-0.227631 	5.37902e-14
0.0566987 	42.5661 	-0.226751 	-3.2564e-05
0.056953 	42.6791 	-0.228239 	-9.46894e-05
0.0572072 	42.792 	-0.229728 	-0.000156815
0.0574615 	42.905 	-0.231217 	-0.00021894
0.0577157 	43.018 	-0.232706 	-0.000281066
0.05797 	43.131 	-0.234195 	-0.000228957
0.0582242 	43.244 	-0.235683 	-0.000168382
0.0584785 	43.357 	-0.237172 	-0.000107808
0.0587327 	43.47 	-0.238661 	-4.72332e-05
0.058987 	43.5836 	-0.240995 	1.36646e-12
0.0592412 	43.7026 	-0.241265 	-3.84744e-05
0.0594955 	43.8229 	-0.242763 	-0.000100702
0.0597497 	43.9432 	-0.244262 	-0.00016293
0.060004 	44.0635 	-0.245761 	-0.000225159
0.0602583 	44.1838 	-0.247259 	-0.000287387
0.0605125 	44.3041 	-0.248758 	-0.000246562
0.0607668 	44.4244 	-0.250257 	-0.000185938
0.061021 	44.5447 	-0.251756 	-0.000125315
0.0612753 	44.665 	-0.253254 	-6.46907e-05
0.0615295 	44.7853 	-0.254753 	-4.06694e-06
0.0617838 	44.9119 	-0.256119 	-4.47409e-05
0.062038 	45.0397 	-0.257622 	-0.000106809
0.0622923 	45.1676 	-0.259125 	-0.000168876
0.0625465 	45.2954 	-0.260628 	-0.000230944
0.0628008 	45.4233 	-0.262131 	-0.000293012
0.0630551 	45.5511 	-0.263539 	-0.000262559
0.0633093 	45.6789 	-0.264864 	-0.000200139
0.0635636 	45.8066 	-0.266188 	-0.00013772
0.0638178 	45.9343 	-0.267513 	-7.53006e-05
0.0640721 	46.0621 	-0.268837 	-1.28813e-05
0.0643263 	46.1955 	-0.270225 	-4.02717e-05
0.0645806 	46.331 	-0.271532 	-9.97803e-05
0.0648348 	46.4666 	-0.272839 	-0.000159289
0.0650891 	46.6021 	-0.274146 	-0.000218797
0.0653433 	46.7376 	-0.275453 	-0.000278306
0.0655976 	46.8731 	-0.27676 	-0.000257935
0.0658519 	47.0086 	-0.278068 	-0.000196081
0.0661061 	47.1441 	-0.279375 	-0.000134228
0.0663604 	47.2796 	-0.280682 	-7.23749e-05
0.0666146 	47.4151 	-0.281989 	-1.05216e-05
0.0668689 	47.5558 	-0.283532 	-2.73908e-05
0.0671231 	47.6993 	-0.28484 	-8.7071e-05
0.0673774 	47.8428 	-0.286147 	-0.000146751
0.0676316 	47.9863 	-0.287455 	-0.000206431
0.0678859 	48.1298 	-0.288763 	-0.000266111
0.0681401 	48.2733 	-0.29007 	-0.000256366
0.0683944 	48.4167 	-0.291378 	-0.000194278
0.0686486 	48.5602 	-0.292685 	-0.000132191
0.0689029 	48.7037 	-0.293993 	-7.01042e-05
0.0691572 	48.8472 	-0.2953 	-8.01712e-06
0.0694114 	48.9953 	-0.297062 	-1.41049e-05
0.0696657 	49.147 	-0.298367 	-7.37746e-05
0.0699199 	49.2988 	-0.299673 	-0.000133444
0.0701742 	49.4505 	-0.300979 	-0.000193114
0.0704284 	49.6022 	-0.302285 	-0.000252784
0.0706827 	49.754 	-0.303591 	-0.000253696
0.0709369 	49.9057 	-0.304897 	-0.000191572
0.0711912 	50.0575 	-0.306203 	-0.000129447
0.0714454 	50.2092 	-0.307509 	-6.73229e-05
0.0716997 	50.3609 	-0.308814 	-5.1984e-06
0.071954 	50.5166 	-0.310833 	-5.42203e-07
0.0722082 	50.6767 	-0.312114 	-5.91082e-05
0.0724625 	50.8368 	-0.313396 	-0.000117674
0.0727167 	50.997 	-0.314677 	-0.00017624
0.072971 	51.1571 	-0.315958 	-0.000234806
0.0732252 	51.3172 	-0.317239 	-0.000246137
0.0734795 	51.4774 	-0.31852 	-0.000185123
0.0737337 	51.6375 	-0.319802 	-0.000124108
0.073988 	51.7976 	-0.321083 	-6.30932e-05
0.0742422 	51.9578 	-0.322364 	-2.07844e-06
0.0744965 	52.1219 	-0.324476 	6.26236e-05
0.0747508 	52.2897 	-0.325933 	-4.45074e-05
0.075005 	52.4583 	-0.327186 	-0.000101722
0.0752593 	52.6269 	-0.32844 	-0.000158937
0.0755135 	52.7954 	-0.329693 	-0.000216151
0.0757678 	52.964 	-0.330947 	-0.000237393
0.076022 	53.1326 	-0.332201 	-0.000177757
0.0762763 	53.3012 	-0.333454 	-0.00011812
0.0765305 	53.4697 	-0.334708 	-5.84837e-05
0.0767848 	53.6384 	-0.335962 	5.99692e-06
0.077039 	53.8109 	-0.337756 	0.000137433
0.0772933 	53.9864 	-0.33978 	-2.92421e-05
0.0775475 	54.1634 	-0.340963 	-8.31235e-05
0.0778018 	54.3404 	-0.342145 	-0.000137005
0.0780561 	54.5173 	-0.343328 	-0.000190886
0.0783103 	54.6943 	-0.34451 	-0.000220451
0.0785646 	54.8713 	-0.345693 	-0.00016427
0.0788188 	55.0483 	-0.346875 	-0.000108089
0.0790731 	55.2253 	-0.348058 	-5.19085e-05
0.0793273 	55.4026 	-0.34916 	2.5214e-05
0.0795816 	55.5833 	-0.350078 	0.000223456
0.0798358 	55.7663 	-0.353176 	-1.46463e-05
0.0800901 	55.9516 	-0.354234 	-6.27974e-05
0.0803443 	56.1369 	-0.355291 	-0.000110948
0.0805986 	56.3221 	-0.356349 	-0.0001591
0.0808529 	56.5074 	-0.357407 	-0.000194049
0.0811071 	56.6927 	-0.358464 	-0.000143836
0.0813614 	56.878 	-0.359522 	-9.36218e-05
0.0816156 	57.0632 	-0.36058 	-4.34079e-05
0.0818699 	57.249 	-0.361329 	4.75564e-05
0.0821241 	57.4378 	-0.360831 	0.000318469
0.0823784 	57.6282 	-0.365565 	-2.56546e-06
0.0826326 	57.8215 	-0.366462 	-4.33696e-05
0.0828869 	58.0148 	-0.367359 	-8.41737e-05
0.0831411 	58.2081 	-0.368256 	-0.000124978
0.0833954 	58.4015 	-0.369154 	-0.000161812
0.0836496 	58.5948 	-0.370051 	-0.000119262
0.0839039 	58.7881 	-0.370948 	-7.67117e-05
0.0841582 	58.9814 	-0.371845 	-3.41615e-05
0.0844124 	59.1754 	-0.372039 	7.21996e-05
0.0846667 	59.3721 	-0.369603 	0.00041877
0.0849209 	59.5701 	-0.375425 	6.40301e-05
0.0851752 	59.7706 	-0.377069 	-2.69921e-05
0.0854294 	59.9717 	-0.377792 	-5.99293e-05
0.0856837 	60.1727 	-0.378516 	-9.28665e-05
0.0859379 	60.3738 	-0.37924 	-0.000125804
0.0861922 	60.5749 	-0.379963 	-9.40809e-05
0.0864464 	60.7759 	-0.380687 	-5.97432e-05
0.0867007 	60.977 	-0.381411 	-2.54055e-05
0.086955 	61.1789 	-0.380919 	9.78235e-05
0.0872092 	61.3832 	-0.376971 	0.000473886
0.0874635 	61.5885 	-0.382827 	0.000154909
0.0877177 	61.7957 	-0.385909 	-1.46244e-05
0.087972 	62.0041 	-0.386468 	-4.00641e-05
0.0882262 	62.2125 	-0.387026 	-6.55038e-05
0.0884805 	62.4208 	-0.387584 	-9.09435e-05
0.0887347 	62.6292 	-0.388143 	-7.09465e-05
0.088989 	62.8376 	-0.388701 	-4.44383e-05
0.0892432 	63.046 	-0.389259 	-1.79302e-05
0.0894975 	63.2553 	-0.387982 	0.000124167
0.0897518 	63.4668 	-0.382867 	0.000507876
0.090006 	63.6791 	-0.387925 	0.00024925
0.0902603 	63.8923 	-0.39263 	-5.23366e-06
0.0905145 	64.1075 	-0.392971 	-2.10977e-05
0.0907688 	64.3226 	-0.393313 	-3.69617e-05
0.091023 	64.5377 	-0.393655 	-5.28257e-05
0.0912773 	64.7528 	-0.393997 	-4.31682e-05
0.0915315 	64.9679 	-0.394339 	-2.66503e-05
0.0917858 	65.183 	-0.394681 	-1.01325e-05
0.09204 	65.3993 	-0.3925 	0.000151583
0.0922943 	65.6173 	-0.386318 	0.000543708
0.0925485 	65.8359 	-0.390075 	0.000347785
0.0928028 	66.0548 	-0.396363 	-1.72429e-07
0.0930571 	66.2758 	-0.396386 	-2.18555e-06
0.0933113 	66.4969 	-0.396409 	-4.19867e-06
0.0935656 	66.718 	-0.396432 	-6.21179e-06
0.0938198 	66.939 	-0.396455 	-5.34379e-06
0.0940741 	67.1601 	-0.396478 	-3.24985e-06
0.0943283 	67.3812 	-0.396501 	-1.15591e-06
0.0945826 	67.6034 	-0.393353 	0.000176448
0.0948368 	67.827 	-0.386296 	0.00057036
0.0950911 	68.051 	-0.388503 	0.000442346
0.0953453 	68.2751 	-0.395227 	5.98926e-05
0.0955996 	68.5008 	-0.396017 	1.05419e-05
0.0958539 	68.7267 	-0.395706 	2.3041e-05
0.0961081 	68.9527 	-0.395395 	3.55402e-05
0.0963624 	69.1786 	-0.395084 	3.23758e-05
0.0966166 	69.4045 	-0.394773 	1.9392e-05
0.0968709 	69.6305 	-0.394462 	6.40808e-06
0.0971251 	69.8574 	-0.390369 	0.00019663
0.0973794 	70.0853 	-0.382591 	0.000584868
0.0976336 	70.3135 	-0.3832 	0.00052667
0.0978879 	70.5417 	-0.389805 	0.000149305
0.0981421 	70.7707 	-0.392038 	1.59888e-05
0.0983964 	71 	-0.391408 	4.2445e-05
0.0986507 	71.2293 	-0.390778 	6.89011e-05
0.0989049 	71.4587 	-0.390149 	6.69258e-05
0.0991592 	71.688 	-0.389519 	3.9488e-05
0.0994134 	71.9173 	-0.388889 	1.20503e-05
0.0996677 	72.1473 	-0.383799 	0.000212822
0.0999219 	72.3779 	-0.375216 	0.000592307
0.100176 	72.6085 	-0.374039 	0.00060206
0.10043 	72.8393 	-0.380456 	0.000232705
0.100685 	73.0701 	-0.384131 	1.56896e-05
0.100939 	73.301 	-0.383137 	5.80976e-05
0.101193 	73.5319 	-0.382143 	0.000100506
0.101447 	73.7628 	-0.381149 	0.000104933
0.101702 	73.9937 	-0.380155 	6.10363e-05
0.101956 	74.2246 	-0.379161 	1.71395e-05
0.10221 	74.4557 	-0.373048 	0.000222408
0.102464 	74.6868 	-0.363655 	0.00058728
0.102719 	74.918 	-0.360582 	0.000660961
0.102973 	75.1493 	-0.366827 	0.000305266
0.103227 	75.3804 	-0.372002 	7.93747e-06
0.103481 	75.6107 	-0.370701 	6.39232e-05
0.103736 	75.841 	-0.369399 	0.000119909
0.10399 	76.0713 	-0.368097 	0.000135814
0.104244 	76.3017 	-0.366795 	7.79928e-05
0.104498 	76.532 	-0.365493 	2.01714e-05
0.104753 	76.7618 	-0.35843 	0.000227371
0.105007 	76.9913 	-0.34828 	0.000576558
0.105261 	77.2208 	-0.343278 	0.000708871
0.105516 	77.4503 	-0.349512 	0.000367845
0.10577 	77.6797 	-0.355745 	2.68178e-05
0.106024 	77.9072 	-0.354702 	6.63604e-05
0.106278 	78.1346 	-0.353037 	0.000138384
0.106533 	78.3619 	-0.351373 	0.000171835
0.106787 	78.5892 	-0.349708 	9.76394e-05
0.107041 	78.8166 	-0.348043 	2.34438e-05
0.107295 	79.0426 	-0.33991 	0.000223865
0.10755 	79.268 	-0.32879 	0.000551139
0.107804 	79.4933 	-0.321525 	0.000733347
0.108058 	79.7184 	-0.327618 	0.000413059
0.108312 	79.9436 	-0.333711 	9.27702e-05
0.108567 	80.1664 	-0.334037 	6.24603e-05
0.108821 	80.3882 	-0.332013 	0.000150388
0.109075 	80.61 	-0.329988 	0.000207139
0.109329 	80.8318 	-0.327964 	0.000116819
0.109584 	81.0536 	-0.325939 	2.64994e-05
0.109838 	81.2731 	-0.316925 	0.000210435
0.110092 	81.4917 	-0.305009 	0.000508247
0.110346 	81.7102 	-0.295508 	0.000727283
0.110601 	81.9284 	-0.301678 	0.000435158
0.110855 	82.1467 	-0.307849 	0.000143033
0.111109 	82.3625 	-0.309683 	5.17331e-05
0.111363 	82.576 	-0.307358 	0.000153096
0.111618 	82.7895 	-0.305032 	0.000236924
0.111872 	83.003 	-0.302706 	0.000133133
0.112126 	83.2165 	-0.300381 	2.93411e-05
0.11238 	83.4267 	-0.290487 	0.000191231
0.112635 	83.6356 	-0.27761 	0.000457826
0.112889 	83.8444 	-0.265548 	0.000701818
0.113143 	84.0528 	-0.271751 	0.000439654
0.113397 	84.2612 	-0.277955 	0.00017749
0.113652 	84.4676 	-0.281296 	3.74867e-05
0.113906 	84.6698 	-0.278639 	0.000153551
0.11416 	84.8719 	-0.275982 	0.000269615
0.114414 	85.0741 	-0.273325 	0.000152235
0.114669 	85.2762 	-0.270668 	3.37979e-05
0.114923 	85.474 	-0.259971 	0.000167703
0.115177 	85.6701 	-0.246064 	0.000402373
0.115431 	85.8661 	-0.232157 	0.000637042
0.115686 	86.0615 	-0.23762 	0.000428165
0.11594 	86.2569 	-0.244067 	0.000196769
0.116194 	86.4511 	-0.249111 	1.91459e-05
0.116448 	86.6387 	-0.246187 	0.000147086
0.116703 	86.8262 	-0.243263 	0.000275026
0.116957 	87.0138 	-0.240339 	0.000169463
0.117211 	87.2014 	-0.237414 	3.93865e-05
0.117465 	87.3836 	-0.225995 	0.000145905
0.11772 	87.5635 	-0.210885 	0.000355175
0.117974 	87.7434 	-0.195776 	0.000564446
0.118228 	87.9225 	-0.199397 	0.000415619
0.118482 	88.1015 	-0.206059 	0.000208671
0.118737 	88.2805 	-0.212721 	1.72321e-06
0.118991 	88.4502 	-0.209658 	0.000136458
0.119245 	88.6199 	-0.206515 	0.000274063
0.119499 	88.7895 	-0.203371 	0.00018621
0.119754 	88.9592 	-0.200227 	4.68515e-05
0.120008 	89.1227 	-0.188492 	0.000125154
0.120262 	89.2832 	-0.172405 	0.000313694
0.120517 	89.4436 	-0.156318 	0.000502234
0.120771 	89.6032 	-0.15798 	0.000402047
0.121025 	89.7625 	-0.16498 	0.000215034
0.121279 	89.9218 	-0.17198 	2.80215e-05
0.121534 	90.0719 	-0.170247 	0.000121746
0.121788 	90.2205 	-0.166974 	0.000264949
0.122042 	90.369 	-0.163702 	0.000200278
0.122296 	90.5176 	-0.160429 	5.58348e-05
0.122551 	90.6596 	-0.148862 	0.000103021
0.122805 	90.7974 	-0.132067 	0.000270958
0.123059 	90.9353 	-0.115272 	0.000438896
0.123313 	91.0723 	-0.114899 	0.000379994
0.123568 	91.2089 	-0.122359 	0.000212897
0.123822 	91.3455 	-0.129819 	4.58003e-05
0.124076 	91.4735 	-0.129519 	0.000102536
0.12433 	91.5981 	-0.126289 	0.000243787
0.124585 	91.7228 	-0.123059 	0.00020637
0.124839 	91.8475 	-0.119829 	6.44808e-05
0.125093 	91.9657 	-0.109009 	8.17515e-05
0.125347 	92.0784 	-0.0918661 	0.000231601
0.125602 	92.1911 	-0.0747234 	0.00038145
0.125856 	92.3031 	-0.0723617 	0.000356103
0.12611 	92.4146 	-0.0804781 	0.000206561
0.126364 	92.5261 	-0.0885945 	5.70195e-05
0.126619 	92.6297 	-0.0898204 	8.16298e-05
0.126873 	92.7285 	-0.0867999 	0.000213566
0.127127 	92.8272 	-0.0837793 	0.000203166
0.127381 	92.926 	-0.0807588 	7.11159e-05
0.127636 	93.0189 	-0.0711869 	6.29332e-05
0.12789 	93.1049 	-0.0539689 	0.000199315
0.128144 	93.191 	-0.0367509 	0.000335696
0.128398 	93.2764 	-0.0324073 	0.000337538
0.128653 	93.3612 	-0.0412926 	0.000201136
0.128907 	93.446 	-0.0501778 	6.47344e-05
0.129161 	93.5241 	-0.052975 	6.1928e-05
0.129415 	93.5959 	-0.0502731 	0.000179793
0.12967 	93.6678 	-0.0475712 	0.000192297
0.129924 	93.7397 	-0.0448693 	7.45812e-05
0.130178 	93.8068 	-0.036914 	4.61009e-05
0.130432 	93.8657 	-0.0198755 	0.000171911
0.130687 	93.9246 	-0.00283687 	0.000297721
0.130941 	93.9831 	0.00345938 	0.0003225
0.131195 	94.0409 	-0.00627644 	0.000196498
0.131449 	94.0986 	-0.0160123 	7.04968e-05
0.131704 	94.1509 	-0.0204442 	4.42079e-05
0.131958 	94.196 	-0.0181396 	0.000144564
0.132212 	94.2412 	-0.0158351 	0.00017371
0.132466 	94.2864 	-0.0135305 	7.3628e-05
0.132721 	94.3282 	-0.0074187 	3.12846e-05
0.132975 	94.3607 	0.00928971 	0.000149642
0.133229 	94.3931 	0.0259981 	0.000267999
0.133483 	94.4253 	0.0342879 	0.000313066
0.133738 	94.4568 	0.0237704 	0.000194399
0.133992 	94.4884 	0.0132529 	7.57328e-05
0.134246 	94.5156 	0.00723501 	3.01559e-05
0.134501 	94.5352 	0.00915433 	0.000113505
0.134755 	94.5548 	0.0110737 	0.00015305
0.135009 	94.5744 	0.012993 	7.00437e-05
0.135263 	94.5922 	0.0171531 	1.72595e-05
0.135518 	94.5998 	0.0334213 	0.000127778
0.135772 	94.6074 	0.0496894 	0.000238297
0.136026 	94.6148 	0.0599723 	0.000300717
0.13628 	94.6217 	0.0486848 	0.000189794
0.136535 	94.6286 	0.0373972 	7.88712e-05
0.136789 	94.6323 	0.0298287 	1.97741e-05
0.137043 	94.6282 	0.0314114 	8.82059e-05
0.137297 	94.6241 	0.0329942 	0.000133247
0.137552 	94.6199 	0.0345769 	6.51881e-05
0.137806 	94.6153 	0.0367659 	4.29489e-06
0.13806 	94.6001 	0.0527222 	0.000106117
0.138314 	94.5849 	0.0686785 	0.000207939
0.138569 	94.5696 	0.0811474 	0.000284204
0.138823 	94.5539 	0.0692493 	0.000181906
0.139077 	94.5382 	0.0573512 	7.96071e-05
0.139331 	94.5202 	0.0483841 	1.25359e-05
0.139586 	94.4945 	0.0496993 	6.90496e-05
0.13984 	94.4687 	0.0510145 	0.000116611
0.140094 	94.443 	0.0523298 	6.04794e-05
0.140348 	94.4172 	0.053645 	4.34786e-06
0.140603 	94.3822 	0.0682986 	8.80718e-05
0.140857 	94.3464 	0.084072 	0.000183538
0.141111 	94.3106 	0.0989126 	0.000272644
0.141365 	94.2744 	0.0866003 	0.000176637
0.14162 	94.2382 	0.074288 	8.06296e-05
0.141874 	94.2006 	0.0641344 	7.96176e-06
0.142128 	94.1554 	0.0652991 	5.76677e-05
0.142382 	94.1102 	0.0664637 	0.000107374
0.142637 	94.065 	0.0676284 	5.92925e-05
0.142891 	94.0198 	0.068793 	9.98527e-06
0.143145 	93.9674 	0.0815673 	7.16791e-05
0.143399 	93.9132 	0.0972895 	0.00016156
0.143654 	93.859 	0.113012 	0.00025144
0.143908 	93.8045 	0.102114 	0.000171562
0.144162 	93.75 	0.0895538 	8.10862e-05
0.144416 	93.6947 	0.0784102 	4.78394e-06
0.144671 	93.6321 	0.0794972 	5.08787e-05
0.144925 	93.5696 	0.0805842 	9.69735e-05
0.145179 	93.507 	0.0816713 	6.08644e-05
0.145433 	93.4445 	0.0827583 	1.51948e-05
0.145688 	93.3766 	0.0936077 	5.63237e-05
0.145942 	93.306 	0.109325 	0.00014073
0.146196 	93.2354 	0.125042 	0.000225136
0.14645 	93.1647 	0.116585 	0.000165632
0.146705 	93.0939 	0.103839 	8.05897e-05
0.146959 	93.0227 	0.0918136 	2.27906e-06
0.147213 	92.9447 	0.0928468 	4.58067e-05
0.147467 	92.8668 	0.09388 	8.93344e-05
0.147722 	92.7888 	0.0949131 	6.32257e-05
0.147976 	92.7108 	0.0959463 	2.01493e-05
0.14823 	92.6291 	0.104802 	4.21896e-05
0.148484 	92.544 	0.120532 	0.000121456
0.148739 	92.4589 	0.136262 	0.000200723
0.148993 	92.3736 	0.130311 	0.000159418
0.149247 	92.2883 	0.117414 	7.9486e-05
0.149502 	92.203 	0.104594 	2.3063e-07
0.149756 	92.1114 	0.105581 	4.15366e-05
0.15001 	92.0197 	0.106568 	8.28426e-05
0.150264 	91.9281 	0.107555 	6.56319e-05
0.150519 	91.8364 	0.108542 	2.47985e-05
0.150773 	91.7423 	0.115313 	2.89519e-05
0.151027 	91.6443 	0.131029 	0.000102678
0.151281 	91.5464 	0.146745 	0.000176404
0.151536 	91.4483 	0.143311 	0.000151553
0.15179 	91.3502 	0.130251 	7.7149e-05
0.152044 	91.2521 	0.117191 	2.74473e-06
0.152298 	91.1487 	0.117597 	3.68362e-05
0.152553 	91.045 	0.118519 	7.50831e-05
0.152807 	90.9413 	0.119441 	6.61376e-05
0.153061 	90.8377 	0.120362 	2.83664e-05
0.153315 	90.7326 	0.124953 	1.6891e-05
0.15357 	90.6234 	0.140608 	8.47274e-05
0.153824 	90.5141 	0.156264 	0.000152564
0.154078 	90.4049 	0.155338 	0.000142189
0.154332 	90.2956 	0.142085 	7.36778e-05
0.154587 	90.1863 	0.128832 	5.16662e-06
0.154841 	90.0726 	0.128601 	3.14888e-05
0.155095 	89.9585 	0.129432 	6.55457e-05
0.155349 	89.8444 	0.130262 	6.37923e-05
0.155604 	89.7303 	0.131093 	3.01905e-05
0.155858 	89.6157 	0.133418 	6.2943e-06
0.156112 	89.4969 	0.148974 	6.829e-05
0.156366 	89.378 	0.164529 	0.000130286
0.156621 	89.2591 	0.1661 	0.000132225
0.156875 	89.1403 	0.152631 	6.95704e-05
0.157129 	89.0214 	0.139162 	6.9154e-06
0.157383 	88.899 	0.138317 	2.58298e-05
0.157638 	88.7761 	0.139037 	5.4864e-05
0.157892 	88.6533 	0.139758 	5.86552e-05
0.158146 	88.5305 	0.140478 	3.00334e-05
0.1584 	88.4076 	0.141198 	1.41162e-06
0.158655 	88.2809 	0.155901 	5.37718e-05
0.158909 	88.1541 	0.171329 	0.000110333
0.159163 	88.0273 	0.1754 	0.000122527
0.159417 	87.9005 	0.161708 	6.5329e-05
0.159672 	87.7738 	0.148016 	8.13118e-06
0.159926 	87.6443 	0.146586 	2.03006e-05
0.16018 	87.5144 	0.147188 	4.39652e-05
0.160434 	87.3844 	0.14779 	5.13562e-05
0.160689 	87.2545 	0.148393 	2.80456e-05
0.160943 	87.1246 	0.148995 	4.73514e-06
0.161197 	86.9921 	0.1613 	4.12308e-05
0.161451 	86.8589 	0.176588 	9.29713e-05
0.161706 	86.7259 	0.183169 	0.000113665
0.16196 	86.5929 	0.169265 	6.13132e-05
0.162214 	86.4599 	0.155361 	8.96109e-06
0.162468 	86.325 	0.153383 	1.52046e-05
0.162723 	86.1897 	0.153867 	3.35492e-05
0.162977 	86.0543 	0.154352 	4.26074e-05
0.163231 	85.919 	0.154836 	2.45497e-05
0.163485 	85.7837 	0.155321 	6.49195e-06
0.16374 	85.6468 	0.165194 	3.04772e-05
0.163994 	85.509 	0.180336 	7.80609e-05
0.164248 	85.3713 	0.189439 	0.000105867
0.164503 	85.2338 	0.175344 	5.76975e-05
0.164757 	85.0963 	0.16125 	9.52805e-06
0.165011 	84.9575 	0.15876 	1.06438e-05
0.165265 	84.8184 	0.159133 	2.39119e-05
0.16552 	84.6792 	0.159505 	3.28679e-05
0.165774 	84.5401 	0.159877 	1.98149e-05
0.166028 	84.401 	0.16025 	6.76202e-06
0.166282 	84.2611 	0.167667 	2.12183e-05
0.166537 	84.1203 	0.182657 	6.52428e-05
0.166791 	83.9795 	0.194287 	9.90887e-05
0.167045 	83.839 	0.180029 	5.45034e-05
0.167299 	83.6985 	0.165772 	9.91815e-06
0.167554 	83.5573 	0.162807 	6.60002e-06
0.167808 	83.4159 	0.163073 	1.50881e-05
0.168062 	83.2745 	0.16334 	2.23539e-05
0.168316 	83.1331 	0.163606 	1.40077e-05
0.168571 	82.9917 	0.163872 	5.66155e-06
0.168825 	82.85 	0.168823 	1.31691e-05
0.169079 	82.7076 	0.183651 	5.41081e-05
0.169333 	82.5653 	0.197801 	9.31329e-05
0.169588 	82.4232 	0.183412 	5.16577e-05
0.169842 	82.2812 	0.169022 	1.01826e-05
0.170096 	82.139 	0.165616 	3.062e-06
0.17035 	81.9966 	0.165784 	7.12023e-06
0.170605 	81.8543 	0.165952 	1.11785e-05
0.170859 	81.712 	0.16612 	7.33922e-06
0.171113 	81.5697 	0.166287 	3.35053e-06
0.171367 	81.4273 	0.168774 	6.11812e-06
0.171622 	81.2846 	0.183431 	4.43509e-05
0.171876 	81.142 	0.198089 	8.25838e-05
0.17213 	80.9997 	0.185599 	4.91033e-05
0.172384 	80.8574 	0.171116 	1.03586e-05
0.172639 	80.7153 	0.1673 	-3.02815e-08
0.172893 	80.5732 	0.167376 	-7.17533e-08
0.173147 	80.4312 	0.167453 	-1.13225e-07
0.173401 	80.2892 	0.167529 	-8.14995e-08
0.173656 	80.1471 	0.167605 	-4.07525e-08
0.17391 	80.0051 	0.167681 	-5.40118e-12
0.174164 	79.8633 	0.182112 	3.56644e-05
0.174418 	79.7214 	0.196581 	7.14222e-05
0.174673 	79.5799 	0.186683 	4.66958e-05
0.174927 	79.4385 	0.172144 	1.04514e-05
0.175181 	79.2976 	0.167948 	-2.63688e-06
0.175435 	79.1569 	0.167942 	-6.34236e-06
0.17569 	79.0161 	0.167936 	-1.00478e-05
0.175944 	78.8754 	0.16793 	-7.88333e-06
0.176198 	78.7347 	0.167924 	-4.24347e-06
0.176452 	78.594 	0.167918 	-6.03615e-07
0.176707 	78.4538 	0.179817 	2.77466e-05
0.176961 	78.3137 	0.194083 	6.10103e-05
0.177215 	78.174 	0.186791 	4.41373e-05
0.177469 	78.0344 	0.172255 	1.04155e-05
0.177724 	77.8955 	0.16771 	-4.83236e-06
0.177978 	77.7569 	0.16763 	-1.18244e-05
0.178232 	77.6184 	0.167549 	-1.88164e-05
0.178486 	77.4798 	0.167469 	-1.59958e-05