0 	29.88 	-5.79122e-17 	-1.92099e-18
0.000254254 	29.88 	-5.79119e-17 	-1.92096e-18
0.000508509 	29.88 	-5.79119e-17 	-1.92096e-18
0.000762763 	29.88 	-5.79119e-17 	-1.92096e-18
0.00101702 	29.88 	-5.79119e-17 	-1.92096e-18
0.00127127 	29.88 	-5.79119e-17 	-1.92096e-18
0.00152553 	29.88 	-5.79119e-17 	-1.92096e-18
0.00177978 	29.88 	-5.79119e-17 	-1.92096e-18
0.00203403 	29.88 	-5.79119e-17 	-1.92096e-18
0.00228829 	29.88 	-5.79119e-17 	-1.92096e-18
0.00254254 	29.88 	-5.79119e-17 	-1.92096e-18
0.0027968 	29.88 	-5.79119e-17 	-1.92096e-18
0.00305105 	29.88 	-5.79119e-17 	-1.92096e-18
0.00330531 	29.88 	-5.79119e-17 	-1.92096e-18
0.00355956 	29.88 	-5.79119e-17 	-1.92096e-18
0.00381381 	29.88 	-5.79119e-17 	-1.92096e-18
0.00406807 	29.88 	-5.79119e-17 	-1.92096e-18
0.00432232 	29.88 	-5.79119e-17 	-1.92096e-18
0.00457658 	29.88 	-5.79119e-17 	-1.92096e-18
0.00483083 	29.88 	-5.79119e-17 	-1.92096e-18
0.00508509 	29.88 	-5.79119e-17 	-1.92096e-18
0.00533934 	29.88 	-5.79119e-17 	-1.92096e-18
0.00559359 	29.88 	-5.79119e-17 	-1.92096e-18
0.00584785 	29.88 	-5.79119e-17 	-1.92096e-18
0.0061021 	29.88 	-5.79119e-17 	-1.92096e-18
0.00635636 	29.88 	-5.79119e-17 	-1.92096e-18
0.00661061 	29.88 	-5.79119e-17 	-1.92096e-18
0.00686486 	29.88 	-5.79119e-17 	-1.92096e-18
0.00711912 	29.88 	-5.79119e-17 	-1.92096e-18
0.00737337 	29.88 	-5.79119e-17 	-1.92096e-18
0.00762763 	29.88 	-5.79119e-17 	-1.92096e-18
0.00788188 	29.88 	-5.79119e-17 	-1.92096e-18
0.00813614 	29.88 	-5.79119e-17 	-1.92096e-18
0.00839039 	29.88 	-5.79119e-17 	-1.92096e-18
0.00864464 	29.88 	-5.79119e-17 	-1.92096e-18
0.0088989 	29.88 	-5.79119e-17 	-1.92096e-18
0.00915315 	29.88 	-5.79119e-17 	-1.92096e-18
0.00940741 	29.88 	-5.79119e-17 	-1.92096e-18
0.00966166 	29.88 	-5.79119e-17 	-1.92096e-18
0.00991592 	29.88 	-5.79119e-17 	-1.92096e-18
0.0101702 	29.88 	-5.79119e-17 	-1.92096e-18
0.0104244 	29.88 	-5.79119e-17 	-1.92096e-18
0.0106787 	29.88 	-5.79119e-17 	-1.92096e-18
0.0109329 	29.88 	-5.79119e-17 	-1.92096e-18
0.0111872 	29.88 	-5.79119e-17 	-1.92096e-18
0.0114414 	29.88 	-5.79119e-17 	-1.92096e-18
0.0116957 	29.88 	-5.79119e-17 	-1.92096e-18
0.0119499 	29.88 	-5.79119e-17 	-1.92096e-18
0.0122042 	29.88 	-5.79119e-17 	-1.92096e-18
0.0124585 	29.88 	-5.79119e-17 	-1.92096e-18
0.0127127 	29.88 	-5.79119e-17 	-1.92096e-18
0.012967 	29.88 	-5.79119e-17 	-1.92096e-18
0.0132212 	29.88 	-5.79119e-17 	-1.92096e-18
0.0134755 	29.88 	-5.79119e-17 	-1.92096e-18
0.0137297 	29.88 	-5.79119e-17 	-1.92096e-18
0.013984 	29.88 	-5.79119e-17 	-1.92096e-18
0.0142382 	29.88 	-5.79119e-17 	-1.92096e-18
0.0144925 	29.88 	-5.79119e-17 	-1.92096e-18
0.0147467 	29.88 	-5.79119e-17 	-1.92096e-18
0.015001 	29.88 	-5.79119e-17 	-1.92096e-18
0.0152553 	29.88 	-5.79119e-17 	-1.92096e-18
0.0155095 	29.88 	-5.79119e-17 	-1.92096e-18
0.0157638 	29.88 	-5.79119e-17 	-1.92096e-18
0.016018 	29.88 	-5.79119e-17 	-1.92096e-18
0.0162723 	29.88 	-5.79119e-17 	-1.92096e-18
0.0165265 	29.88 	-5.79119e-17 	-1.92096e-18
0.0167808 	29.88 	-5.79119e-17 	-1.92096e-18
0.017035 	29.88 	-5.79119e-17 	-1.92096e-18
0.0172893 	29.88 	-5.79119e-17 	-1.92096e-18
0.0175435 	29.88 	-5.79119e-17 	-1.92096e-18
0.0177978 	29.88 	-5.79119e-17 	-1.92096e-18
0.0180521 	29.88 	-5.79119e-17 	-1.92096e-18
0.0183063 	29.88 	-5.79119e-17 	-1.92096e-18
0.0185606 	29.88 	-5.79119e-17 	-1.92096e-18
0.0188148 	29.88 	-5.79119e-17 	-1.92096e-18
0.0190691 	29.88 	-5.79119e-17 	-1.92096e-18
0.0193233 	29.88 	-5.79119e-17 	-1.92096e-18
0.0195776 	29.88 	-5.79119e-17 	-1.92096e-18
0.0198318 	29.88 	-5.79119e-17 	-1.92096e-18
0.0200861 	29.88 	-5.79119e-17 	-1.92096e-18
0.0203403 	29.88 	-5.79119e-17 	-1.92096e-18
0.0205946 	29.88 	-5.79119e-17 	-1.92096e-18
0.0208488 	29.88 	-5.79119e-17 	-1.92096e-18
0.0211031 	29.88 	-5.79119e-17 	-1.92096e-18
0.0213574 	29.88 	-5.79119e-17 	-1.92096e-18
0.0216116 	29.88 	-5.79119e-17 	-1.92096e-18
0.0218659 	29.88 	-5.79119e-17 	-1.92096e-18
0.0221201 	29.88 	-5.79119e-17 	-1.92096e-18
0.0223744 	29.88 	-5.79119e-17 	-1.92096e-18
0.0226286 	29.88 	-5.79119e-17 	-1.92096e-18
0.0228829 	29.88 	-5.79119e-17 	-1.92096e-18
0.0231371 	29.88 	-5.79119e-17 	-1.92096e-18
0.0233914 	29.88 	-5.79119e-17 	-1.92096e-18
0.0236456 	29.88 	-5.79119e-17 	-1.92096e-18
0.0238999 	29.88 	-5.79119e-17 	-1.92096e-18
0.0241542 	29.88 	-5.79119e-17 	-1.92096e-18
0.0244084 	29.88 	-5.79119e-17 	-1.92096e-18
0.0246627 	29.88 	-5.79119e-17 	-1.92096e-18
0.0249169 	29.88 	-5.79119e-17 	-1.92096e-18
0.0251712 	29.88 	-5.79119e-17 	-1.92096e-18
0.0254254 	29.88 	-5.79119e-17 	-1.92096e-18
0.0256797 	29.88 	-5.79119e-17 	-1.92096e-18
0.0259339 	29.88 	-5.79119e-17 	-1.92096e-18
0.0261882 	29.88 	-5.79119e-17 	-1.92096e-18
0.0264424 	29.88 	-5.79119e-17 	-1.92096e-18
0.0266967 	29.88 	-5.79119e-17 	-1.92096e-18
0.026951 	29.88 	-5.79119e-17 	-1.92096e-18
0.0272052 	29.88 	-5.79119e-17 	-1.92096e-18
0.0274595 	29.88 	-5.79119e-17 	-1.92096e-18
0.0277137 	29.88 	-5.79119e-17 	-1.92096e-18
0.027968 	29.88 	-5.79119e-17 	-1.92096e-18
0.0282222 	29.88 	-5.79122e-17 	-1.92147e-18
0.0284765 	29.88 	-5.79119e-17 	-1.92096e-18
0.0287307 	29.88 	-5.79119e-17 	-1.92096e-18
0.028985 	29.88 	-5.79119e-17 	-1.92096e-18
0.0292392 	29.88 	-5.79119e-17 	-1.92096e-18
0.0294935 	29.88 	-5.79119e-17 	-1.92096e-18
0.0297477 	29.88 	-5.79119e-17 	-1.92096e-18
0.030002 	29.88 	-5.79119e-17 	-1.92096e-18
0.0302563 	29.88 	-5.79119e-17 	-1.92096e-18
0.0305105 	29.88 	-5.79119e-17 	-1.92096e-18
0.0307648 	29.88 	-5.79119e-17 	-1.92096e-18
0.031019 	29.88 	-5.79119e-17 	-1.92096e-18
0.0312733 	29.88 	-5.79119e-17 	-1.92096e-18
0.0315275 	29.88 	-5.79119e-17 	-1.92096e-18
0.0317818 	29.88 	-5.79119e-17 	-1.92096e-18
0.032036 	29.88 	-5.79119e-17 	-1.92096e-18
0.0322903 	29.88 	-5.79119e-17 	-1.92096e-18
0.0325445 	29.88 	-5.79119e-17 	-1.92096e-18
0.0327988 	29.88 	-5.79119e-17 	-1.92096e-18
0.0330531 	29.88 	-5.79119e-17 	-1.92096e-18
0.0333073 	29.88 	-5.79119e-17 	-1.92096e-18
0.0335616 	29.88 	-5.79119e-17 	-1.92096e-18
0.0338158 	29.88 	-5.79119e-17 	-1.92096e-18
0.0340701 	29.88 	-5.79119e-17 	-1.92096e-18
0.0343243 	29.88 	-5.79119e-17 	-1.92096e-18
0.0345786 	29.88 	-5.79119e-17 	-1.92096e-18
0.0348328 	29.88 	-5.79119e-17 	-1.92096e-18
0.0350871 	29.88 	-5.79119e-17 	-1.92096e-18
0.0353413 	29.88 	-5.79119e-17 	-1.92096e-18
0.0355956 	29.88 	-5.79119e-17 	-1.92096e-18
0.0358498 	29.88 	-5.79119e-17 	-1.92096e-18
0.0361041 	29.88 	-5.79119e-17 	-1.92096e-18
0.0363584 	29.88 	-5.79119e-17 	-1.92096e-18
0.0366126 	29.88 	-5.79119e-17 	-1.92096e-18
0.0368669 	29.88 	-5.79119e-17 	-1.92096e-18
0.0371211 	29.88 	-5.79119e-17 	-1.92096e-18
0.0373754 	29.88 	-5.79119e-17 	-1.92096e-18
0.0376296 	29.88 	-5.79119e-17 	-1.92096e-18
0.0378839 	29.88 	-5.79119e-17 	-1.92096e-18
0.0381381 	29.88 	-5.79119e-17 	-1.92096e-18
0.0383924 	29.88 	-5.79119e-17 	-1.92096e-18
0.0386466 	29.88 	-5.79119e-17 	-1.92096e-18
0.0389009 	29.88 	-5.79119e-17 	-1.92096e-18
0.0391552 	29.88 	-5.79119e-17 	-1.92096e-18
0.0394094 	29.88 	-5.79119e-17 	-1.92096e-18
0.0396637 	29.88 	-5.79119e-17 	-1.92096e-18
0.0399179 	29.88 	-5.79119e-17 	-1.92096e-18
0.0401722 	29.88 	-5.79119e-17 	-1.92096e-18
0.0404264 	29.88 	-5.79119e-17 	-1.92096e-18
0.0406807 	29.88 	-5.79119e-17 	-1.92096e-18
0.0409349 	29.88 	-5.79119e-17 	-1.92096e-18
0.0411892 	29.88 	-5.79119e-17 	-1.92096e-18
0.0414434 	29.88 	-5.79119e-17 	-1.92096e-18
0.0416977 	29.88 	-5.79119e-17 	-1.92096e-18
0.041952 	29.88 	-5.79119e-17 	-1.92096e-18
0.0422062 	29.88 	-5.79119e-17 	-1.92096e-18
0.0424605 	29.88 	-5.79119e-17 	-1.92096e-18
0.0427147 	29.88 	-5.79119e-17 	-1.92096e-18
0.042969 	29.88 	-5.79119e-17 	-1.92096e-18
0.0432232 	29.88 	-5.79119e-17 	-1.92096e-18
0.0434775 	29.88 	-5.79119e-17 	-1.92096e-18
0.0437317 	29.88 	-5.79119e-17 	-1.92096e-18
0.043986 	29.88 	-5.79119e-17 	-1.92096e-18
0.0442402 	29.88 	-5.79119e-17 	-1.92096e-18
0.0444945 	29.88 	-5.79119e-17 	-1.92096e-18
0.0447487 	29.88 	-5.79119e-17 	-1.92096e-18
0.045003 	29.88 	-5.79119e-17 	-1.92096e-18
0.0452573 	29.88 	-5.79119e-17 	-1.92096e-18
0.0455115 	29.88 	-5.79119e-17 	-1.92096e-18
0.0457658 	29.88 	-5.79119e-17 	-1.92096e-18
0.04602 	29.88 	-5.79119e-17 	-1.92096e-18
0.0462743 	29.88 	-5.79119e-17 	-1.92096e-18
0.0465285 	29.88 	-5.79119e-17 	-1.92096e-18
0.0467828 	29.88 	-5.79119e-17 	-1.92096e-18
0.047037 	29.88 	-5.79119e-17 	-1.92096e-18
0.0472913 	29.88 	-5.79119e-17 	-1.92096e-18
0.0475455 	29.88 	-5.79119e-17 	-1.92096e-18
0.0477998 	29.88 	-5.79119e-17 	-1.92096e-18
0.0480541 	29.88 	-5.79119e-17 	-1.92096e-18
0.0483083 	29.88 	-5.79119e-17 	-1.92096e-18
0.0485626 	29.88 	-5.79119e-17 	-1.92096e-18
0.0488168 	29.88 	-5.79119e-17 	-1.92096e-18
0.0490711 	29.88 	-5.79119e-17 	-1.92096e-18
0.0493253 	29.88 	-5.79119e-17 	-1.92096e-18
0.0495796 	29.88 	-5.79119e-17 	-1.92096e-18
0.0498338 	29.88 	-5.79119e-17 	-1.92096e-18
0.0500881 	29.88 	-5.79119e-17 	-1.92096e-18
0.0503423 	29.88 	-5.79119e-17 	-1.92096e-18
0.0505966 	29.88 	-5.79119e-17 	-1.92096e-18
0.0508509 	29.88 	-5.79119e-17 	-1.92096e-18
0.0511051 	29.88 	-5.79119e-17 	-1.92096e-18
0.0513594 	29.88 	-5.79119e-17 	-1.92096e-18
0.0516136 	29.88 	-5.79119e-17 	-1.92096e-18
0.0518679 	29.88 	-5.79119e-17 	-1.92096e-18
0.0521221 	29.88 	-5.79119e-17 	-1.92096e-18
0.0523764 	29.88 	-5.79119e-17 	-1.92096e-18
0.0526306 	29.88 	-5.79119e-17 	-1.92096e-18
0.0528849 	29.88 	-5.79119e-17 	-1.92096e-18
0.0531391 	29.88 	-5.79119e-17 	-1.92096e-18
0.0533934 	29.88 	-5.79119e-17 	-1.92096e-18
0.0536476 	29.88 	-5.79119e-17 	-1.92096e-18
0.0539019 	29.88 	-5.79118e-17 	-1.92096e-18
0.0541562 	29.88 	-5.79118e-17 	-1.92096e-18
0.0544104 	29.88 	-5.79118e-17 	-1.92096e-18
0.0546647 	29.88 	-5.79118e-17 	-1.92096e-18
0.0549189 	29.88 	-5.79118e-17 	-1.92096e-18
0.0551732 	29.88 	-5.79118e-17 	-1.92096e-18
0.0554274 	29.88 	-5.79118e-17 	-1.92096e-18
0.0556817 	29.88 	-5.79118e-17 	-1.92096e-18
0.0559359 	29.88 	-5.79118e-17 	-1.92096e-18
0.0561902 	29.88 	-5.79118e-17 	-1.92096e-18
0.0564444 	29.88 	-5.79121e-17 	-1.92153e-18
0.0566987 	29.88 	-5.79118e-17 	-1.92096e-18
0.056953 	29.88 	-5.79118e-17 	-1.92096e-18
0.0572072 	29.88 	-5.79118e-17 	-1.92096e-18
0.0574615 	29.88 	-5.79118e-17 	-1.92096e-18
0.0577157 	29.88 	-5.79118e-17 	-1.92096e-18
0.05797 	29.88 	-5.79118e-17 	-1.92096e-18
0.0582242 	29.88 	-5.79118e-17 	-1.92096e-18
0.0584785 	29.88 	-5.79118e-17 	-1.92096e-18
0.0587327 	29.88 	-5.79118e-17 	-1.92096e-18
0.058987 	29.88 	-5.79118e-17 	-1.92096e-18
0.0592412 	29.88 	-5.79118e-17 	-1.92096e-18
0.0594955 	29.88 	-5.79118e-17 	-1.92096e-18
0.0597497 	29.88 	-5.79118e-17 	-1.92096e-18
0.060004 	29.88 	-5.79118e-17 	-1.92096e-18
0.0602583 	29.88 	-5.79118e-17 	-1.92096e-18
0.0605125 	29.88 	-5.79118e-17 	-1.92096e-18
0.0607668 	29.88 	-5.79118e-17 	-1.92096e-18
0.061021 	29.88 	-5.79118e-17 	-1.92096e-18
0.0612753 	29.88 	-5.79118e-17 	-1.92096e-18
0.0615295 	29.88 	-5.79118e-17 	-1.92096e-18
0.0617838 	29.88 	-5.79118e-17 	-1.92096e-18
0.062038 	29.88 	-5.79118e-17 	-1.92096e-18
0.0622923 	29.88 	-5.79118e-17 	-1.92096e-18
0.0625465 	29.88 	-5.79118e-17 	-1.92096e-18
0.0628008 	29.88 	-5.79118e-17 	-1.92096e-18
0.0630551 	29.88 	-5.79118e-17 	-1.92096e-18
0.0633093 	29.88 	-5.79118e-17 	-1.92096e-18
0.0635636 	29.88 	-5.79118e-17 	-1.92096e-18
0.0638178 	29.88 	-5.79118e-17 	-1.92096e-18
0.0640721 	29.88 	-5.79118e-17 	-1.92096e-18
0.0643263 	29.88 	-5.79118e-17 	-1.92096e-18
0.0645806 	29.88 	-5.79118e-17 	-1.92096e-18
0.0648348 	29.88 	-5.79118e-17 	-1.92096e-18
0.0650891 	29.88 	-5.79118e-17 	-1.92096e-18
0.0653433 	29.88 	-5.79118e-17 	-1.92096e-18
0.0655976 	29.88 	-5.79118e-17 	-1.92096e-18
0.0658519 	29.88 	-5.79118e-17 	-1.92096e-18
0.0661061 	29.88 	-5.79118e-17 	-1.92096e-18
0.0663604 	29.88 	-5.79118e-17 	-1.92096e-18
0.0666146 	29.88 	-5.79118e-17 	-1.92096e-18
0.0668689 	29.88 	-5.79118e-17 	-1.92096e-18
0.0671231 	29.88 	-5.79118e-17 	-1.92096e-18
0.0673774 	29.88 	-5.79118e-17 	-1.92096e-18
0.0676316 	29.88 	-5.79118e-17 	-1.92096e-18
0.0678859 	29.88 	-5.79118e-17 	-1.92096e-18
0.0681401 	29.88 	-5.79118e-17 	-1.92096e-18
0.0683944 	29.88 	-5.79118e-17 	-1.92096e-18
0.0686486 	29.88 	-5.79118e-17 	-1.92096e-18
0.0689029 	29.88 	-5.79118e-17 	-1.92096e-18
0.0691572 	29.88 	-5.79118e-17 	-1.92096e-18
0.0694114 	29.88 	-5.79118e-17 	-1.92096e-18
0.0696657 	29.88 	-5.79118e-17 	-1.92096e-18
0.0699199 	29.88 	-5.79118e-17 	-1.92096e-18
0.0701742 	29.88 	-5.79118e-17 	-1.92096e-18
0.0704284 	29.88 	-5.79118e-17 	-1.92096e-18
0.0706827 	29.88 	-5.79118e-17 	-1.92096e-18
0.0709369 	29.88 	-5.79118e-17 	-1.92096e-18
0.0711912 	29.88 	-5.79118e-17 	-1.92096e-18
0.0714454 	29.88 	-5.79118e-17 	-1.92096e-18
0.0716997 	29.88 	-5.79118e-17 	-1.92096e-18
0.071954 	29.88 	-5.79118e-17 	-1.92096e-18
0.0722082 	29.88 	-5.79118e-17 	-1.92096e-18
0.0724625 	29.88 	-5.79118e-17 	-1.92096e-18
0.0727167 	29.88 	-5.79118e-17 	-1.92096e-18
0.072971 	29.88 	-5.79118e-17 	-1.92096e-18
0.0732252 	29.88 	-5.79118e-17 	-1.92096e-18
0.0734795 	29.88 	-5.79118e-17 	-1.92096e-18
0.0737337 	29.88 	-5.79118e-17 	-1.92096e-18
0.073988 	29.88 	-5.79118e-17 	-1.92096e-18
0.0742422 	29.88 	-5.79118e-17 	-1.92096e-18
0.0744965 	29.88 	-5.79117e-17 	-1.92096e-18
0.0747508 	29.88 	-5.79117e-17 	-1.92096e-18
0.075005 	29.88 	-5.79117e-17 	-1.92096e-18
0.0752593 	29.88 	-5.79117e-17 	-1.92096e-18
0.0755135 	29.88 	-5.79117e-17 	-1.92096e-18
0.0757678 	29.88 	-5.79117e-17 	-1.92096e-18
0.076022 	29.88 	-5.79117e-17 	-1.92096e-18
0.0762763 	29.88 	-5.79117e-17 	-1.92096e-18
0.0765305 	29.88 	-5.79117e-17 	-1.92096e-18
0.0767848 	29.88 	-5.79117e-17 	-1.92096e-18
0.077039 	29.88 	-5.79117e-17 	-1.92096e-18
0.0772933 	29.88 	-5.79117e-17 	-1.92096e-18
0.0775475 	29.88 	-5.79117e-17 	-1.92096e-18
0.0778018 	29.88 	-5.79117e-17 	-1.92096e-18
0.0780561 	29.88 	-5.79117e-17 	-1.92096e-18
0.0783103 	29.88 	-5.79117e-17 	-1.92096e-18
0.0785646 	29.88 	-5.79117e-17 	-1.92096e-18
0.0788188 	29.88 	-5.79117e-17 	-1.92096e-18
0.0790731 	29.88 	-5.79117e-17 	-1.92096e-18
0.0793273 	29.88 	-5.79117e-17 	-1.92096e-18
0.0795816 	29.88 	-5.79117e-17 	-1.92096e-18
0.0798358 	29.88 	-5.79117e-17 	-1.92096e-18
0.0800901 	29.88 	-5.79117e-17 	-1.92096e-18
0.0803443 	29.88 	-5.79117e-17 	-1.92096e-18
0.0805986 	29.88 	-5.79117e-17 	-1.92096e-18
0.0808529 	29.88 	-5.79117e-17 	-1.92096e-18
0.0811071 	29.88 	-5.79117e-17 	-1.92096e-18
0.0813614 	29.88 	-5.79117e-17 	-1.92096e-18
0.0816156 	29.88 	-5.79117e-17 	-1.92096e-18
0.0818699 	29.88 	-5.79117e-17 	-1.92096e-18
0.0821241 	29.88 	-5.79117e-17 	-1.92096e-18
0.0823784 	29.88 	-5.79117e-17 	-1.92096e-18
0.0826326 	29.88 	-5.79117e-17 	-1.92096e-18
0.0828869 	29.88 	-5.79117e-17 	-1.92096e-18
0.0831411 	29.88 	-5.79117e-17 	-1.92096e-18
0.0833954 	29.88 	-5.79117e-17 	-1.92096e-18
0.0836496 	29.88 	-5.79117e-17 	-1.92096e-18
0.0839039 	29.88 	-5.79117e-17 	-1.92096e-18
0.0841582 	29.88 	-5.79117e-17 	-1.92096e-18
0.0844124 	29.88 	-5.79117e-17 	-1.92096e-18
0.0846667 	29.88 	-5.7912e-17 	-1.92162e-18
0.0849209 	29.88 	-5.79117e-17 	-1.92096e-18
0.0851752 	29.88 	-5.79117e-17 	-1.92096e-18
0.0854294 	29.88 	-5.79117e-17 	-1.92096e-18
0.0856837 	29.88 	-5.79117e-17 	-1.92096e-18
0.0859379 	29.88 	-5.79117e-17 	-1.92096e-18
0.0861922 	29.88 	-5.79117e-17 	-1.92096e-18
0.0864464 	29.88 	-5.79117e-17 	-1.92096e-18
0.0867007 	29.88 	-5.79117e-17 	-1.92096e-18
0.086955 	29.88 	-5.79117e-17 	-1.92096e-18
0.0872092 	29.88 	-5.79117e-17 	-1.92096e-18
0.0874635 	29.88 	-5.79117e-17 	-1.92096e-18
0.0877177 	29.88 	-5.79117e-17 	-1.92096e-18
0.087972 	29.88 	-5.79117e-17 	-1.92096e-18
0.0882262 	29.88 	-5.79117e-17 	-1.92096e-18
0.0884805 	29.88 	-5.79117e-17 	-1.92096e-18
0.0887347 	29.88 	-5.79117e-17 	-1.92096e-18
0.088989 	29.88 	-5.79117e-17 	-1.92096e-18
0.0892432 	29.88 	-5.79117e-17 	-1.92096e-18
0.0894975 	29.88 	-5.79117e-17 	-1.92096e-18
0.0897518 	29.88 	-5.79117e-17 	-1.92096e-18
0.090006 	29.88 	-5.79117e-17 	-1.92096e-18
0.0902603 	29.88 	-5.79117e-17 	-1.92096e-18
0.0905145 	29.88 	-5.79117e-17 	-1.92096e-18
0.0907688 	29.88 	-5.79117e-17 	-1.92096e-18
0.091023 	29.88 	-5.79117e-17 	-1.92096e-18
0.0912773 	29.88 	-5.79117e-17 	-1.92096e-18
0.0915315 	29.88 	-5.79117e-17 	-1.92096e-18
0.0917858 	29.88 	-5.79117e-17 	-1.92096e-18
0.09204 	29.88 	-5.79117e-17 	-1.92096e-18
0.0922943 	29.88 	-5.79117e-17 	-1.92096e-18
0.0925485 	29.88 	-5.79116e-17 	-1.92095e-18
0.0928028 	29.88 	-5.79116e-17 	-1.92095e-18
0.0930571 	29.88 	-5.79116e-17 	-1.92095e-18
0.0933113 	29.88 	-5.79116e-17 	-1.92095e-18
0.0935656 	29.88 	-5.79116e-17 	-1.92095e-18
0.0938198 	29.88 	-5.79116e-17 	-1.92095e-18
0.0940741 	29.88 	-5.79116e-17 	-1.92095e-18
0.0943283 	29.88 	-5.79116e-17 	-1.92095e-18
0.0945826 	29.88 	-5.79116e-17 	-1.92095e-18
0.0948368 	29.88 	-5.79116e-17 	-1.92095e-18
0.0950911 	29.88 	-5.79116e-17 	-1.92095e-18
0.0953453 	29.88 	-5.79116e-17 	-1.92095e-18
0.0955996 	29.88 	-5.79116e-17 	-1.92095e-18
0.0958539 	29.88 	-5.79116e-17 	-1.92095e-18
0.0961081 	29.88 	-5.79116e-17 	-1.92095e-18
0.0963624 	29.88 	-5.79116e-17 	-1.92095e-18
0.0966166 	29.88 	-5.79116e-17 	-1.92095e-18
0.0968709 	29.88 	-5.79116e-17 	-1.92095e-18
0.0971251 	29.88 	-5.79116e-17 	-1.92095e-18
0.0973794 	29.88 	-5.79116e-17 	-1.92095e-18
0.0976336 	29.88 	-5.79116e-17 	-1.92095e-18
0.0978879 	29.88 	-5.79116e-17 	-1.92095e-18
0.0981421 	29.88 	-5.79116e-17 	-1.92095e-18
0.0983964 	29.88 	-5.79116e-17 	-1.92095e-18
0.0986507 	29.88 	-5.79116e-17 	-1.92095e-18
0.0989049 	29.88 	-5.79116e-17 	-1.92095e-18
0.0991592 	29.88 	-5.79116e-17 	-1.92095e-18
0.0994134 	29.88 	-5.79116e-17 	-1.92095e-18
0.0996677 	29.88 	-5.79116e-17 	-1.92095e-18
0.0999219 	29.88 	-5.79116e-17 	-1.92095e-18
0.100176 	29.88 	-5.79116e-17 	-1.92095e-18
0.10043 	29.88 	-5.79116e-17 	-1.92095e-18
0.100685 	29.88 	-5.79116e-17 	-1.92095e-18
0.100939 	29.88 	-5.79116e-17 	-1.92095e-18
0.101193 	29.88 	-5.79116e-17 	-1.92095e-18
0.101447 	29.88 	-5.79116e-17 	-1.92095e-18
0.101702 	29.88 	-5.79116e-17 	-1.92095e-18
0.101956 	29.88 	-5.79116e-17 	-1.92095e-18
0.10221 	29.88 	-5.79116e-17 	-1.92095e-18
0.102464 	29.88 	-5.79116e-17 	-1.92095e-18
0.102719 	29.88 	-5.79116e-17 	-1.92095e-18
0.102973 	29.88 	-5.79116e-17 	-1.92095e-18
0.103227 	29.88 	-5.79116e-17 	-1.92095e-18
0.103481 	29.88 	-5.79116e-17 	-1.92095e-18
0.103736 	29.88 	-5.79116e-17 	-1.92095e-18
0.10399 	29.88 	-5.79116e-17 	-1.92095e-18
0.104244 	29.88 	-5.79116e-17 	-1.92095e-18
0.104498 	29.88 	-5.79116e-17 	-1.92095e-18
0.104753 	29.88 	-5.79116e-17 	-1.92095e-18
0.105007 	29.88 	-5.79116e-17 	-1.92095e-18
0.105261 	29.88 	-5.79116e-17 	-1.92095e-18
0.105516 	29.88 	-5.79116e-17 	-1.92095e-18
0.10577 	29.88 	-5.79116e-17 	-1.92095e-18
0.106024 	29.88 	-5.79116e-17 	-1.92095e-18
0.106278 	29.88 	-5.79116e-17 	-1.92095e-18
0.106533 	29.88 	-5.79116e-17 	-1.92095e-18
0.106787 	29.88 	-5.79116e-17 	-1.92095e-18
0.107041 	29.88 	-5.79116e-17 	-1.92095e-18
0.107295 	29.88 	-5.79116e-17 	-1.92095e-18
0.10755 	29.88 	-5.79116e-17 	-1.92095e-18
0.107804 	29.88 	-5.79116e-17 	-1.92095e-18
0.108058 	29.88 	-5.79116e-17 	-1.92095e-18
0.108312 	29.88 	-5.79116e-17 	-1.92095e-18
0.108567 	29.88 	-5.79116e-17 	-1.92095e-18
0.108821 	29.88 	-5.79116e-17 	-1.92095e-18
0.109075 	29.88 	-5.79116e-17 	-1.92095e-18
0.109329 	29.88 	-5.79116e-17 	-1.92095e-18
0.109584 	29.88 	-5.79116e-17 	-1.92095e-18
0.109838 	29.88 	-5.79116e-17 	-1.92095e-18
0.110092 	29.88 	-5.79116e-17 	-1.92095e-18
0.110346 	29.88 	-5.79116e-17 	-1.92095e-18
0.110601 	29.88 	-5.79116e-17 	-1.92095e-18
0.110855 	29.88 	-5.79116e-17 	-1.92095e-18
0.111109 	29.88 	-5.79116e-17 	-1.92095e-18
0.111363 	29.88 	-5.79116e-17 	-1.92095e-18
0.111618 	29.88 	-5.79116e-17 	-1.92095e-18
0.111872 	29.88 	-5.79116e-17 	-1.92095e-18
0.112126 	29.88 	-5.79116e-17 	-1.92095e-18
0.11238 	29.88 	-5.79116e-17 	-1.92095e-18
0.112635 	29.88 	-5.79116e-17 	-1.92095e-18
0.112889 	29.88 	-5.79119e-17 	-1.92171e-18
0.113143 	29.88 	-5.79115e-17 	-1.92095e-18
0.113397 	29.88 	-5.79115e-17 	-1.92095e-18
0.113652 	29.88 	-5.79115e-17 	-1.92095e-18
0.113906 	29.88 	-5.79115e-17 	-1.92095e-18
0.11416 	29.88 	-5.79115e-17 	-1.92095e-18
0.114414 	29.88 	-5.79115e-17 	-1.92095e-18
0.114669 	29.88 	-5.79115e-17 	-1.92095e-18
0.114923 	29.88 	-5.79115e-17 	-1.92095e-18
0.115177 	29.88 	-5.79115e-17 	-1.92095e-18
0.115431 	29.88 	-5.79115e-17 	-1.92095e-18
0.115686 	29.88 	-5.79115e-17 	-1.92095e-18
0.11594 	29.88 	-5.79115e-17 	-1.92095e-18
0.116194 	29.88 	-5.79115e-17 	-1.92095e-18
0.116448 	29.88 	-5.79115e-17 	-1.92095e-18
0.116703 	29.88 	-5.79115e-17 	-1.92095e-18
0.116957 	29.88 	-5.79115e-17 	-1.92095e-18
0.117211 	29.88 	-5.79115e-17 	-1.92095e-18
0.117465 	29.88 	-5.79115e-17 	-1.92095e-18
0.11772 	29.88 	-5.79115e-17 	-1.92095e-18
0.117974 	29.88 	-5.79115e-17 	-1.92095e-18
0.118228 	29.88 	-5.79115e-17 	-1.92095e-18
0.118482 	29.88 	-5.79115e-17 	-1.92095e-18
0.118737 	29.88 	-5.79115e-17 	-1.92095e-18
0.118991 	29.88 	-5.79115e-17 	-1.92095e-18
0.119245 	29.88 	-5.79115e-17 	-1.92095e-18
0.119499 	29.88 	-5.79115e-17 	-1.92095e-18
0.119754 	29.88 	-5.79115e-17 	-1.92095e-18
0.120008 	29.88 	-5.79115e-17 	-1.92095e-18
0.120262 	29.88 	-5.79115e-17 	-1.92095e-18
0.120517 	29.88 	-5.79115e-17 	-1.92095e-18
0.120771 	29.88 	-5.79115e-17 	-1.92095e-18
0.121025 	29.88 	-5.79115e-17 	-1.92095e-18
0.121279 	29.88 	-5.79115e-17 	-1.92095e-18
0.121534 	29.88 	-5.79115e-17 	-1.92095e-18
0.121788 	29.88 	-5.79115e-17 	-1.92095e-18
0.122042 	29.88 	-5.79115e-17 	-1.92095e-18
0.122296 	29.88 	-5.79115e-17 	-1.92095e-18
0.122551 	29.88 	-5.79115e-17 	-1.92095e-18
0.122805 	29.88 	-5.79115e-17 	-1.92095e-18
0.123059 	29.88 	-5.79115e-17 	-1.92095e-18
0.123313 	29.88 	-5.79115e-17 	-1.92095e-18
0.123568 	29.88 	-5.79115e-17 	-1.92095e-18
0.123822 	29.88 	-5.79115e-17 	-1.92095e-18
0.124076 	29.88 	-5.79115e-17 	-1.92095e-18
0.12433 	29.88 	-5.79115e-17 	-1.92095e-18
0.124585 	29.88 	-5.79115e-17 	-1.92095e-18
0.124839 	29.88 	-5.79115e-17 	-1.92095e-18
0.125093 	29.88 	-5.79115e-17 	-1.92095e-18
0.125347 	29.88 	-5.79115e-17 	-1.92095e-18
0.125602 	29.88 	-5.79115e-17 	-1.92095e-18
0.125856 	29.88 	-5.79115e-17 	-1.92095e-18
0.12611 	29.88 	-5.79115e-17 	-1.92095e-18
0.126364 	29.88 	-5.79115e-17 	-1.92095e-18
0.126619 	29.88 	-5.79115e-17 	-1.92095e-18
0.126873 	29.88 	-5.79115e-17 	-1.92095e-18
0.127127 	29.88 	-5.79115e-17 	-1.92095e-18
0.127381 	29.88 	-5.79115e-17 	-1.92095e-18
0.127636 	29.88 	-5.79115e-17 	-1.92095e-18
0.12789 	29.88 	-5.79115e-17 	-1.92095e-18
0.128144 	29.88 	-5.79115e-17 	-1.92095e-18
0.128398 	29.88 	-5.79115e-17 	-1.92095e-18
0.128653 	29.88 	-5.79115e-17 	-1.92095e-18
0.128907 	29.88 	-5.79115e-17 	-1.92095e-18
0.129161 	29.88 	-5.79115e-17 	-1.92095e-18
0.129415 	29.88 	-5.79115e-17 	-1.92095e-18
0.12967 	29.88 	-5.79115e-17 	-1.92095e-18
0.129924 	29.88 	-5.79115e-17 	-1.92095e-18
0.130178 	29.88 	-5.79115e-17 	-1.92095e-18
0.130432 	29.88 	-5.79115e-17 	-1.92095e-18
0.130687 	29.88 	-5.79115e-17 	-1.92095e-18
0.130941 	29.88 	-5.79115e-17 	-1.92095e-18
0.131195 	29.88 	-5.79115e-17 	-1.92095e-18
0.131449 	29.88 	-5.79115e-17 	-1.92095e-18
0.131704 	29.88 	-5.79115e-17 	-1.92095e-18
0.131958 	29.88 	-5.79115e-17 	-1.92095e-18
0.132212 	29.88 	-5.79115e-17 	-1.92095e-18
0.132466 	29.88 	-5.79115e-17 	-1.92095e-18
0.132721 	29.88 	-5.79115e-17 	-1.92095e-18
0.132975 	29.88 	-5.79115e-17 	-1.92095e-18
0.133229 	29.88 	-5.79115e-17 	-1.92095e-18
0.133483 	29.88 	-5.79115e-17 	-1.92095e-18
0.133738 	29.88 	-5.79115e-17 	-1.92095e-18
0.133992 	29.88 	-5.79115e-17 	-1.92095e-18
0.134246 	29.88 	-5.79115e-17 	-1.92095e-18
0.134501 	29.88 	-5.79115e-17 	-1.92095e-18
0.134755 	29.88 	-5.79115e-17 	-1.92095e-18
0.135009 	29.88 	-5.79115e-17 	-1.92095e-18
0.135263 	29.88 	-5.79115e-17 	-1.92095e-18
0.135518 	29.88 	-5.79115e-17 	-1.92095e-18
0.135772 	29.88 	-5.79115e-17 	-1.92095e-18
0.136026 	29.88 	-5.79115e-17 	-1.92095e-18
0.13628 	29.88 	-5.79115e-17 	-1.92095e-18
0.136535 	29.88 	-5.79115e-17 	-1.92095e-18
0.136789 	29.88 	-5.79115e-17 	-1.92095e-18
0.137043 	29.88 	-5.79115e-17 	-1.92095e-18
0.137297 	29.88 	-5.79115e-17 	-1.92095e-18
0.137552 	29.88 	-5.79115e-17 	-1.92095e-18
0.137806 	29.88 	-5.79115e-17 	-1.92095e-18
0.13806 	29.88 	-5.79115e-17 	-1.92095e-18
0.138314 	29.88 	-5.79115e-17 	-1.92095e-18
0.138569 	29.88 	-5.79115e-17 	-1.92095e-18
0.138823 	29.88 	-5.79115e-17 	-1.92095e-18
0.139077 	29.88 	-5.79115e-17 	-1.92095e-18
0.139331 	29.88 	-5.79115e-17 	-1.92095e-18
0.139586 	29.88 	-5.79115e-17 	-1.92095e-18
0.13984 	29.88 	-5.79115e-17 	-1.92095e-18
0.140094 	29.88 	-5.79115e-17 	-1.92095e-18
0.140348 	29.88 	-5.79115e-17 	-1.92095e-18
0.140603 	29.88 	-5.79115e-17 	-1.92095e-18
0.140857 	29.88 	-5.79115e-17 	-1.92095e-18
0.141111 	29.88 	-5.79119e-17 	-1.92172e-18
0.141365 	29.88 	-5.79115e-17 	-1.92095e-18
0.14162 	29.88 	-5.79115e-17 	-1.92095e-18
0.141874 	29.88 	-5.79115e-17 	-1.92095e-18
0.142128 	29.88 	-5.79115e-17 	-1.92095e-18
0.142382 	29.88 	-5.79115e-17 	-1.92095e-18
0.142637 	29.88 	-5.79115e-17 	-1.92095e-18
0.142891 	29.88 	-5.79115e-17 	-1.92095e-18
0.143145 	29.88 	-5.79115e-17 	-1.92095e-18
0.143399 	29.88 	-5.79115e-17 	-1.92095e-18
0.143654 	29.88 	-5.79115e-17 	-1.92095e-18
0.143908 	29.88 	-5.79115e-17 	-1.92095e-18
0.144162 	29.88 	-5.79115e-17 	-1.92095e-18
0.144416 	29.88 	-5.79115e-17 	-1.92095e-18
0.144671 	29.88 	-5.79115e-17 	-1.92095e-18
0.144925 	29.88 	-5.79115e-17 	-1.92095e-18
0.145179 	29.88 	-5.79115e-17 	-1.92095e-18
0.145433 	29.88 	-5.79115e-17 	-1.92095e-18
0.145688 	29.88 	-5.79115e-17 	-1.92095e-18
0.145942 	29.88 	-5.79115e-17 	-1.92095e-18
0.146196 	29.88 	-5.79115e-17 	-1.92095e-18
0.14645 	29.88 	-5.79115e-17 	-1.92095e-18
0.146705 	29.88 	-5.79115e-17 	-1.92095e-18
0.146959 	29.88 	-5.79115e-17 	-1.92095e-18
0.147213 	29.88 	-5.79115e-17 	-1.92095e-18
0.147467 	29.88 	-5.79115e-17 	-1.92095e-18
0.147722 	29.88 	-5.79115e-17 	-1.92095e-18
0.147976 	29.88 	-5.79115e-17 	-1.92095e-18
0.14823 	29.88 	-5.79115e-17 	-1.92095e-18
0.148484 	29.88 	-5.79115e-17 	-1.92095e-18
0.148739 	29.88 	-5.79115e-17 	-1.92095e-18
0.148993 	29.88 	-5.79115e-17 	-1.92095e-18
0.149247 	29.88 	-5.79115e-17 	-1.92095e-18
0.149502 	29.88 	-5.79115e-17 	-1.92095e-18
0.149756 	29.88 	-5.79115e-17 	-1.92095e-18
0.15001 	29.88 	-5.79115e-17 	-1.92095e-18
0.150264 	29.88 	-5.79115e-17 	-1.92095e-18
0.150519 	29.88 	-5.79115e-17 	-1.92095e-18
0.150773 	29.88 	-5.79115e-17 	-1.92095e-18
0.151027 	29.88 	-5.79115e-17 	-1.92095e-18
0.151281 	29.88 	-5.79115e-17 	-1.92095e-18
0.151536 	29.88 	-5.79116e-17 	-1.92095e-18
0.15179 	29.88 	-5.79116e-17 	-1.92095e-18
0.152044 	29.88 	-5.79116e-17 	-1.92095e-18
0.152298 	29.88 	-5.79116e-17 	-1.92095e-18
0.152553 	29.88 	-5.79116e-17 	-1.92095e-18
0.152807 	29.88 	-5.79116e-17 	-1.92095e-18
0.153061 	29.88 	-5.79116e-17 	-1.92095e-18
0.153315 	29.88 	-5.79116e-17 	-1.92095e-18
0.15357 	29.88 	-5.79116e-17 	-1.92095e-18
0.153824 	29.88 	-5.79116e-17 	-1.92095e-18
0.154078 	29.88 	-5.79116e-17 	-1.92095e-18
0.154332 	29.88 	-5.79116e-17 	-1.92095e-18
0.154587 	29.88 	-5.79116e-17 	-1.92095e-18
0.154841 	29.88 	-5.79116e-17 	-1.92095e-18
0.155095 	29.88 	-5.79116e-17 	-1.92095e-18
0.155349 	29.88 	-5.79116e-17 	-1.92095e-18
0.155604 	29.88 	-5.79116e-17 	-1.92095e-18
0.155858 	29.88 	-5.79116e-17 	-1.92095e-18
0.156112 	29.88 	-5.79116e-17 	-1.92095e-18
0.156366 	29.88 	-5.79116e-17 	-1.92095e-18
0.156621 	29.88 	-5.79116e-17 	-1.92095e-18
0.156875 	29.88 	-5.79116e-17 	-1.92095e-18
0.157129 	29.88 	-5.79116e-17 	-1.92095e-18
0.157383 	29.88 	-5.79116e-17 	-1.92095e-18
0.157638 	29.88 	-5.79116e-17 	-1.92095e-18
0.157892 	29.88 	-5.79116e-17 	-1.92095e-18
0.158146 	29.88 	-5.79116e-17 	-1.92095e-18
0.1584 	29.88 	-5.79116e-17 	-1.92095e-18
0.158655 	29.88 	-5.79116e-17 	-1.92095e-18
0.158909 	29.88 	-5.79116e-17 	-1.92095e-18
0.159163 	29.88 	-5.79116e-17 	-1.92095e-18
0.159417 	29.88 	-5.79116e-17 	-1.92095e-18
0.159672 	29.88 	-5.79116e-17 	-1.92095e-18
0.159926 	29.88 	-5.79116e-17 	-1.92095e-18
0.16018 	29.88 	-5.79116e-17 	-1.92095e-18
0.160434 	29.88 	-5.79116e-17 	-1.92095e-18
0.160689 	29.88 	-5.79116e-17 	-1.92095e-18
0.160943 	29.88 	-5.79116e-17 	-1.92095e-18
0.161197 	29.88 	-5.79116e-17 	-1.92095e-18
0.161451 	29.88 	-5.79116e-17 	-1.92095e-18
0.161706 	29.88 	-5.79116e-17 	-1.92095e-18
0.16196 	29.88 	-5.79116e-17 	-1.92095e-18
0.162214 	29.88 	-5.79116e-17 	-1.92095e-18
0.162468 	29.88 	-5.79116e-17 	-1.92095e-18
0.162723 	29.88 	-5.79116e-17 	-1.92095e-18
0.162977 	29.88 	-5.79116e-17 	-1.92095e-18
0.163231 	29.88 	-5.79116e-17 	-1.92095e-18
0.163485 	29.88 	-5.79116e-17 	-1.92095e-18
0.16374 	29.88 	-5.79116e-17 	-1.92095e-18
0.163994 	29.88 	-5.79116e-17 	-1.92095e-18
0.164248 	29.88 	-5.79116e-17 	-1.92095e-18
0.164503 	29.88 	-5.79116e-17 	-1.92095e-18
0.164757 	29.88 	-5.79116e-17 	-1.92095e-18
0.165011 	29.88 	-5.79116e-17 	-1.92095e-18
0.165265 	29.88 	-5.79116e-17 	-1.92095e-18
0.16552 	29.88 	-5.79116e-17 	-1.92095e-18
0.165774 	29.88 	-5.79116e-17 	-1.92095e-18
0.166028 	29.88 	-5.79116e-17 	-1.92095e-18
0.166282 	29.88 	-5.79116e-17 	-1.92095e-18
0.166537 	29.88 	-5.79116e-17 	-1.92095e-18
0.166791 	29.88 	-5.79116e-17 	-1.92095e-18
0.167045 	29.88 	-5.79116e-17 	-1.92095e-18
0.167299 	29.88 	-5.79116e-17 	-1.92095e-18
0.167554 	29.88 	-5.79116e-17 	-1.92095e-18
0.167808 	29.88 	-5.79116e-17 	-1.92095e-18
0.168062 	29.88 	-5.79116e-17 	-1.92095e-18
0.168316 	29.88 	-5.79116e-17 	-1.92095e-18
0.168571 	29.88 	-5.79116e-17 	-1.92095e-18
0.168825 	29.88 	-5.79116e-17 	-1.92095e-18
0.169079 	29.88 	-5.79116e-17 	-1.92095e-18
0.169333 	29.88 	-5.79119e-17 	-1.92169e-18
0.169588 	29.88 	-5.79116e-17 	-1.92095e-18
0.169842 	29.88 	-5.79116e-17 	-1.92095e-18
0.170096 	29.88 	-5.79116e-17 	-1.92095e-18
0.17035 	29.88 	-5.79116e-17 	-1.92095e-18
0.170605 	29.88 	-5.79116e-17 	-1.92095e-18
0.170859 	29.88 	-5.79116e-17 	-1.92095e-18