0 	29.88 	-9.38462e-18 	-1.91832e-18
0.000254254 	29.88 	-5.5441e-18 	-1.53797e-18
0.000508509 	29.88 	-1.70357e-18 	-1.15763e-18
0.000762763 	29.88 	2.01468e-19 	-6.73294e-18
0.00101702 	29.88 	6.42531e-19 	-1.6813e-17
0.00127127 	29.88 	1.08359e-18 	-2.68931e-17
0.00152553 	29.88 	1.06969e-18 	-2.83029e-17
0.00177978 	29.88 	1.03386e-18 	-2.92947e-17
0.00203403 	29.88 	-1.90229e-19 	-3.25627e-17
0.00228829 	29.88 	-3.75674e-18 	-4.03177e-17
0.00254254 	29.88 	-7.32324e-18 	-4.80727e-17
0.0027968 	29.88 	-4.40387e-18 	-4.17395e-17
0.00305105 	29.88 	-8.3061e-19 	-3.39859e-17
0.00330531 	29.88 	1.01167e-18 	-2.99986e-17
0.00355956 	29.88 	1.01242e-18 	-3.00181e-17
0.00381381 	29.88 	1.01317e-18 	-3.00376e-17
0.00406807 	29.88 	1.01353e-18 	-3.00503e-17
0.00432232 	29.88 	1.01384e-18 	-3.0062e-17
0.00457658 	29.88 	1.76393e-19 	-3.18939e-17
0.00483083 	29.88 	-3.38752e-18 	-3.96495e-17
0.00508509 	29.88 	-6.95143e-18 	-4.7405e-17
0.00533934 	29.88 	-4.68285e-18 	-4.24926e-17
0.00559359 	29.88 	-1.10647e-18 	-3.47397e-17
0.00584785 	29.88 	1.01683e-18 	-3.01511e-17
0.0061021 	29.88 	1.01808e-18 	-3.01835e-17
0.00635636 	29.88 	1.01933e-18 	-3.0216e-17
0.00661061 	29.88 	1.02e-18 	-3.02385e-17
0.00686486 	29.88 	1.02051e-18 	-3.0258e-17
0.00711912 	29.88 	5.71818e-19 	-3.12533e-17
0.00737337 	29.88 	-2.98899e-18 	-3.90096e-17
0.00762763 	29.88 	-6.54979e-18 	-4.67659e-17
0.00788188 	29.88 	-4.93179e-18 	-4.32739e-17
0.00813614 	29.88 	-1.35229e-18 	-3.55216e-17
0.00839039 	29.88 	1.02489e-18 	-3.03898e-17
0.00864464 	29.88 	1.02664e-18 	-3.04353e-17
0.0088989 	29.88 	1.02839e-18 	-3.04807e-17
0.00915315 	29.88 	1.02943e-18 	-3.05139e-17
0.00940741 	29.88 	1.03014e-18 	-3.05411e-17
0.00966166 	29.88 	9.97193e-19 	-3.06415e-17
0.00991592 	29.88 	-2.56051e-18 	-3.83985e-17
0.0101702 	29.88 	-6.11822e-18 	-4.61554e-17
0.0104244 	29.88 	-5.15056e-18 	-4.40834e-17
0.0106787 	29.88 	-1.56794e-18 	-3.63317e-17
0.0109329 	29.88 	1.03587e-18 	-3.07152e-17
0.0111872 	29.88 	1.03811e-18 	-3.07736e-17
0.0114414 	29.88 	1.04036e-18 	-3.0832e-17
0.0116957 	29.88 	1.04182e-18 	-3.08767e-17
0.0119499 	29.88 	1.04273e-18 	-3.09118e-17
0.0122042 	29.88 	1.04364e-18 	-3.09469e-17
0.0124585 	29.88 	-2.102e-18 	-3.78162e-17
0.0127127 	29.88 	-5.65661e-18 	-4.55739e-17
0.012967 	29.88 	-5.33897e-18 	-4.49211e-17
0.0132212 	29.88 	-1.75325e-18 	-3.717e-17
0.0134755 	29.88 	1.04978e-18 	-3.11278e-17
0.0137297 	29.88 	1.05252e-18 	-3.11991e-17
0.013984 	29.88 	1.05527e-18 	-3.12705e-17
0.0142382 	29.88 	1.0572e-18 	-3.13277e-17
0.0144925 	29.88 	1.05831e-18 	-3.13705e-17
0.0147467 	29.88 	1.05942e-18 	-3.14133e-17
0.015001 	29.88 	-1.6133e-18 	-3.72631e-17
0.0152553 	29.88 	-5.16483e-18 	-4.50214e-17
0.0155095 	29.88 	-5.49683e-18 	-4.5787e-17
0.0157638 	29.88 	-1.908e-18 	-3.80366e-17
0.016018 	29.88 	1.06665e-18 	-3.16282e-17
0.0162723 	29.88 	1.06989e-18 	-3.17124e-17
0.0165265 	29.88 	1.07313e-18 	-3.17966e-17
0.0167808 	29.88 	1.07559e-18 	-3.18673e-17
0.017035 	29.88 	1.0769e-18 	-3.19179e-17
0.0172893 	29.88 	1.07821e-18 	-3.19684e-17
0.0175435 	29.88 	-1.09424e-18 	-3.67394e-17
0.0177978 	29.88 	-4.64271e-18 	-4.44985e-17
0.0180521 	29.88 	-5.62387e-18 	-4.66814e-17
0.0183063 	29.88 	-2.03195e-18 	-3.89315e-17
0.0185606 	29.88 	1.0865e-18 	-3.22171e-17
0.0188148 	29.88 	1.09024e-18 	-3.23142e-17
0.0190691 	29.88 	1.09397e-18 	-3.24113e-17
0.0193233 	29.88 	1.09701e-18 	-3.24963e-17
0.0195776 	29.88 	1.09852e-18 	-3.25545e-17
0.0198318 	29.88 	1.10003e-18 	-3.26128e-17
0.0200861 	29.88 	-5.44614e-19 	-3.62454e-17
0.0203403 	29.88 	-4.09003e-18 	-4.40052e-17
0.0205946 	29.88 	-5.71982e-18 	-4.76042e-17
0.0208488 	29.88 	-2.12482e-18 	-3.9855e-17
0.0211031 	29.88 	1.10937e-18 	-3.28955e-17
0.0213574 	29.88 	1.11359e-18 	-3.30053e-17
0.0216116 	29.88 	1.11782e-18 	-3.31152e-17
0.0218659 	29.88 	1.12149e-18 	-3.32154e-17
0.0221201 	29.88 	1.1232e-18 	-3.32814e-17
0.0223744 	29.88 	1.12491e-18 	-3.33473e-17
0.0226286 	29.88 	3.5825e-20 	-3.57815e-17
0.0228829 	29.88 	-3.50655e-18 	-4.3542e-17
0.0231371 	29.88 	-5.78437e-18 	-4.85559e-17
0.0233914 	29.88 	-2.1863e-18 	-4.08072e-17
0.0236456 	29.88 	1.13529e-18 	-3.36642e-17
0.0238999 	29.88 	1.14e-18 	-3.37867e-17
0.0241542 	29.88 	1.14471e-18 	-3.39093e-17
0.0244084 	29.88 	1.14907e-18 	-3.40257e-17
0.0246627 	29.88 	1.15098e-18 	-3.40992e-17
0.0249169 	29.88 	1.15288e-18 	-3.41728e-17
0.0251712 	29.88 	6.4735e-19 	-3.5348e-17
0.0254254 	29.88 	-2.89201e-18 	-4.31092e-17
0.0256797 	29.88 	-5.81718e-18 	-4.95364e-17
0.0259339 	29.88 	-2.21606e-18 	-4.17883e-17
0.0261882 	29.88 	1.16428e-18 	-3.45242e-17
0.0264424 	29.88 	1.16948e-18 	-3.46594e-17
0.0266967 	29.88 	1.17468e-18 	-3.47946e-17
0.026951 	29.88 	1.17977e-18 	-3.49279e-17
0.0272052 	29.88 	1.18187e-18 	-3.50091e-17
0.0274595 	29.88 	1.18398e-18 	-3.50902e-17
0.0277137 	29.88 	1.18609e-18 	-3.51714e-17
0.027968 	29.88 	-2.2461e-18 	-4.27072e-17
0.0282222 	29.88 	-5.78247e-18 	-5.04691e-17
0.0284765 	29.88 	-2.21374e-18 	-4.27985e-17
0.0287307 	29.88 	1.1964e-18 	-3.54767e-17
0.028985 	29.88 	1.20208e-18 	-3.56244e-17
0.0292392 	29.88 	1.20776e-18 	-3.57721e-17
0.0294935 	29.88 	1.21344e-18 	-3.59198e-17
0.0297477 	29.88 	1.21593e-18 	-3.60119e-17
0.030002 	29.88 	1.21824e-18 	-3.61006e-17
0.0302563 	29.88 	1.22054e-18 	-3.61892e-17
0.0305105 	29.88 	-1.56852e-18 	-4.23364e-17
0.0307648 	29.88 	-5.10192e-18 	-5.0099e-17
0.031019 	29.88 	-2.17897e-18 	-4.38382e-17
0.0312733 	29.88 	1.23168e-18 	-3.65227e-17
0.0315275 	29.88 	1.23784e-18 	-3.66828e-17
0.0317818 	29.88 	1.24399e-18 	-3.68429e-17
0.032036 	29.88 	1.25015e-18 	-3.70031e-17
0.0322903 	29.88 	1.25319e-18 	-3.71087e-17
0.0325445 	29.88 	1.25569e-18 	-3.72049e-17
0.0327988 	29.88 	1.25818e-18 	-3.7301e-17
0.0330531 	29.88 	-8.58909e-19 	-4.19971e-17
0.0333073 	29.88 	-4.38937e-18 	-4.97605e-17
0.0335616 	29.88 	-2.11136e-18 	-4.49075e-17
0.0338158 	29.88 	1.27016e-18 	-3.76634e-17
0.0340701 	29.88 	1.27679e-18 	-3.78358e-17
0.0343243 	29.88 	1.28342e-18 	-3.80082e-17
0.0345786 	29.88 	1.29004e-18 	-3.81806e-17
0.0348328 	29.88 	1.29368e-18 	-3.83007e-17
0.0350871 	29.88 	1.29637e-18 	-3.84042e-17
0.0353413 	29.88 	1.29906e-18 	-3.85077e-17
0.0355956 	29.88 	-1.16939e-19 	-4.16898e-17
0.0358498 	29.88 	-3.6445e-18 	-4.94539e-17
0.0361041 	29.88 	-2.01052e-18 	-4.60067e-17
0.0363584 	29.88 	1.31188e-18 	-3.89e-17
0.0366126 	29.88 	1.31897e-18 	-3.90845e-17
0.0368669 	29.88 	1.32607e-18 	-3.9269e-17
0.0371211 	29.88 	1.33316e-18 	-3.94535e-17
0.0373754 	29.88 	1.33744e-18 	-3.95889e-17
0.0376296 	29.88 	1.34032e-18 	-3.96997e-17
0.0378839 	29.88 	1.3432e-18 	-3.98105e-17
0.0381381 	29.88 	6.57706e-19 	-4.14149e-17
0.0383924 	29.88 	-2.86699e-18 	-4.91797e-17
0.0386466 	29.88 	-1.87604e-18 	-4.71361e-17
0.0389009 	29.88 	1.35688e-18 	-4.02336e-17
0.0391552 	29.88 	1.36443e-18 	-4.04301e-17
0.0394094 	29.88 	1.37199e-18 	-4.06265e-17
0.0396637 	29.88 	1.37954e-18 	-4.0823e-17
0.0399179 	29.88 	1.38452e-18 	-4.09743e-17
0.0401722 	29.88 	1.38758e-18 	-4.10923e-17
0.0404264 	29.88 	1.39065e-18 	-4.12103e-17
0.0406807 	29.88 	1.39371e-18 	-4.13282e-17
0.0409349 	29.88 	-2.05645e-18 	-4.89382e-17
0.0411892 	29.88 	-1.7076e-18 	-4.8296e-17
0.0414434 	29.88 	1.4052e-18 	-4.16655e-17
0.0416977 	29.88 	1.41321e-18 	-4.18737e-17
0.041952 	29.88 	1.42122e-18 	-4.20818e-17
0.0422062 	29.88 	1.42922e-18 	-4.229e-17
0.0424605 	29.88 	1.43493e-18 	-4.2458e-17
0.0427147 	29.88 	1.43818e-18 	-4.2583e-17
0.042969 	29.88 	1.44143e-18 	-4.27081e-17
0.0432232 	29.88 	1.44468e-18 	-4.28331e-17
0.0434775 	29.88 	-1.21255e-18 	-4.87296e-17
0.0437317 	29.88 	-1.50487e-18 	-4.94867e-17
0.043986 	29.88 	1.45689e-18 	-4.31966e-17
0.0442402 	29.88 	1.46534e-18 	-4.34163e-17
0.0444945 	29.88 	1.47379e-18 	-4.36359e-17
0.0447487 	29.88 	1.48223e-18 	-4.38556e-17
0.045003 	29.88 	1.48872e-18 	-4.40409e-17
0.0452573 	29.88 	1.49215e-18 	-4.41728e-17
0.0455115 	29.88 	1.49558e-18 	-4.43048e-17
0.0457658 	29.88 	1.49901e-18 	-4.44367e-17
0.04602 	29.88 	-3.35082e-19 	-4.85544e-17
0.0462743 	29.88 	-1.26748e-18 	-5.07084e-17
0.0465285 	29.88 	1.51197e-18 	-4.48279e-17
0.0467828 	29.88 	1.52084e-18 	-4.50587e-17
0.047037 	29.88 	1.52972e-18 	-4.52896e-17
0.0472913 	29.88 	1.5386e-18 	-4.55204e-17
0.0475455 	29.88 	1.5459e-18 	-4.57237e-17
0.0477998 	29.88 	1.54951e-18 	-4.58623e-17
0.0480541 	29.88 	1.55311e-18 	-4.6001e-17
0.0483083 	29.88 	1.55672e-18 	-4.61397e-17
0.0485626 	29.88 	5.76209e-19 	-4.84128e-17
0.0488168 	29.88 	-9.95225e-19 	-5.19612e-17
0.0490711 	29.88 	1.57046e-18 	-4.65601e-17
0.0493253 	29.88 	1.57976e-18 	-4.68018e-17
0.0495796 	29.88 	1.58906e-18 	-4.70435e-17
0.0498338 	29.88 	1.59835e-18 	-4.72852e-17
0.0500881 	29.88 	1.60651e-18 	-4.75069e-17
0.0503423 	29.88 	1.61028e-18 	-4.76521e-17
0.0505966 	29.88 	1.61406e-18 	-4.77973e-17
0.0508509 	29.88 	1.61783e-18 	-4.79426e-17
0.0511051 	29.88 	1.52149e-18 	-4.83049e-17
0.0513594 	29.88 	-6.87935e-19 	-5.32453e-17
0.0516136 	29.88 	1.63239e-18 	-4.83938e-17
0.0518679 	29.88 	1.6421e-18 	-4.8646e-17
0.0521221 	29.88 	1.6518e-18 	-4.88982e-17
0.0523764 	29.88 	1.6615e-18 	-4.91504e-17
0.0526306 	29.88 	1.67054e-18 	-4.9391e-17
0.0528849 	29.88 	1.67448e-18 	-4.95425e-17
0.0531391 	29.88 	1.67842e-18 	-4.9694e-17
0.0533934 	29.88 	1.68236e-18 	-4.98456e-17
0.0536476 	29.88 	1.6863e-18 	-4.99971e-17
0.0539019 	29.88 	-3.45547e-19 	-5.45608e-17
0.0541562 	29.88 	1.69777e-18 	-5.03291e-17
0.0544104 	29.88 	1.70786e-18 	-5.05914e-17
0.0546647 	29.88 	1.71795e-18 	-5.08537e-17
0.0549189 	29.88 	1.72804e-18 	-5.1116e-17
0.0551732 	29.88 	1.73799e-18 	-5.13758e-17
0.0554274 	29.88 	1.74209e-18 	-5.15334e-17
0.0556817 	29.88 	1.74619e-18 	-5.1691e-17
0.0559359 	29.88 	1.75029e-18 	-5.18486e-17
0.0561902 	29.88 	1.75439e-18 	-5.20062e-17
0.0564444 	29.88 	3.18777e-20 	-5.59076e-17
0.0566987 	29.88 	1.76659e-18 	-5.23661e-17
0.056953 	29.88 	1.77705e-18 	-5.26379e-17
0.0572072 	29.88 	1.78751e-18 	-5.29098e-17
0.0574615 	29.88 	1.79797e-18 	-5.31816e-17
0.0577157 	29.88 	1.80843e-18 	-5.34535e-17
0.05797 	29.88 	1.81311e-18 	-5.36243e-17
0.0582242 	29.88 	1.81736e-18 	-5.37877e-17
0.0584785 	29.88 	1.82161e-18 	-5.3951e-17
0.0587327 	29.88 	1.82586e-18 	-5.41144e-17
0.058987 	29.88 	1.05741e-18 	-5.59531e-17
0.0592412 	29.88 	1.83883e-18 	-5.45039e-17
0.0594955 	29.88 	1.84964e-18 	-5.47848e-17
0.0597497 	29.88 	1.86045e-18 	-5.50657e-17
0.060004 	29.88 	1.87125e-18 	-5.53466e-17
0.0602583 	29.88 	1.88206e-18 	-5.56275e-17
0.0605125 	29.88 	1.88749e-18 	-5.58143e-17
0.0607668 	29.88 	1.89188e-18 	-5.59831e-17
0.061021 	29.88 	1.89627e-18 	-5.61519e-17
0.0612753 	29.88 	1.90066e-18 	-5.63207e-17
0.0615295 	29.88 	1.90506e-18 	-5.64895e-17
0.0617838 	29.88 	1.91446e-18 	-5.67415e-17
0.062038 	29.88 	1.92559e-18 	-5.70308e-17
0.0622923 	29.88 	1.93672e-18 	-5.73201e-17
0.0625465 	29.88 	1.94785e-18 	-5.76094e-17
0.0628008 	29.88 	1.95898e-18 	-5.78987e-17
0.0630551 	29.88 	1.95848e-18 	-5.7904e-17
0.0633093 	29.88 	1.95045e-18 	-5.77067e-17
0.0635636 	29.88 	1.94241e-18 	-5.75094e-17
0.0638178 	29.88 	1.93437e-18 	-5.7312e-17
0.0640721 	29.88 	1.92634e-18 	-5.71147e-17
0.0643263 	29.88 	1.92283e-18 	-5.69916e-17
0.0645806 	29.88 	1.92136e-18 	-5.69076e-17
0.0648348 	29.88 	1.91989e-18 	-5.68236e-17
0.0650891 	29.88 	1.91842e-18 	-5.67396e-17
0.0653433 	29.88 	1.91695e-18 	-5.66555e-17
0.0655976 	29.88 	1.91102e-18 	-5.64935e-17
0.0658519 	29.88 	1.90277e-18 	-5.62909e-17
0.0661061 	29.88 	1.89452e-18 	-5.60883e-17
0.0663604 	29.88 	1.88627e-18 	-5.58857e-17
0.0666146 	29.88 	1.87802e-18 	-5.56831e-17
0.0668689 	29.88 	1.87313e-18 	-5.55262e-17
0.0671231 	29.88 	1.87162e-18 	-5.54402e-17
0.0673774 	29.88 	1.87012e-18 	-5.53542e-17
0.0676316 	29.88 	1.86862e-18 	-5.52683e-17
0.0678859 	29.88 	1.86711e-18 	-5.51823e-17
0.0681401 	29.88 	1.86165e-18 	-5.50271e-17
0.0683944 	29.88 	1.85321e-18 	-5.48198e-17
0.0686486 	29.88 	1.84477e-18 	-5.46125e-17
0.0689029 	29.88 	1.83632e-18 	-5.44052e-17
0.0691572 	29.88 	1.82788e-18 	-5.41979e-17
0.0694114 	29.88 	1.82154e-18 	-5.40054e-17
0.0696657 	29.88 	1.82e-18 	-5.39177e-17
0.0699199 	29.88 	1.81847e-18 	-5.383e-17
0.0701742 	29.88 	1.81693e-18 	-5.37423e-17
0.0704284 	29.88 	1.8154e-18 	-5.36546e-17
0.0706827 	29.88 	1.81045e-18 	-5.35072e-17
0.0709369 	29.88 	1.80184e-18 	-5.32959e-17
0.0711912 	29.88 	1.79323e-18 	-5.30845e-17
0.0714454 	29.88 	1.78462e-18 	-5.28731e-17
0.0716997 	29.88 	1.77601e-18 	-5.26617e-17
0.071954 	29.88 	1.76816e-18 	-5.24322e-17
0.0722082 	29.88 	1.7666e-18 	-5.23431e-17
0.0724625 	29.88 	1.76504e-18 	-5.22539e-17
0.0727167 	29.88 	1.76348e-18 	-5.21648e-17
0.072971 	29.88 	1.76192e-18 	-5.20757e-17
0.0732252 	29.88 	1.75752e-18 	-5.19369e-17
0.0734795 	29.88 	1.74877e-18 	-5.17221e-17
0.0737337 	29.88 	1.74002e-18 	-5.15073e-17
0.073988 	29.88 	1.73127e-18 	-5.12925e-17
0.0742422 	29.88 	1.72252e-18 	-5.10777e-17
0.0744965 	29.88 	1.73924e-18 	-5.23016e-17
0.0747508 	29.88 	1.71155e-18 	-5.072e-17
0.075005 	29.88 	1.70997e-18 	-5.06298e-17
0.0752593 	29.88 	1.70839e-18 	-5.05396e-17
0.0755135 	29.88 	1.70681e-18 	-5.04494e-17
0.0757678 	29.88 	1.70299e-18 	-5.032e-17
0.076022 	29.88 	1.69413e-18 	-5.01026e-17
0.0762763 	29.88 	1.68527e-18 	-4.98851e-17
0.0765305 	29.88 	1.67642e-18 	-4.96677e-17
0.0767848 	29.88 	1.66979e-18 	-4.95809e-17
0.077039 	29.88 	1.71038e-18 	-5.22151e-17
0.0772933 	29.88 	1.655e-18 	-4.90534e-17
0.0775475 	29.88 	1.65341e-18 	-4.89624e-17
0.0778018 	29.88 	1.65182e-18 	-4.88714e-17
0.0780561 	29.88 	1.65022e-18 	-4.87805e-17
0.0783103 	29.88 	1.64701e-18 	-4.86612e-17
0.0785646 	29.88 	1.63808e-18 	-4.8442e-17
0.0788188 	29.88 	1.62915e-18 	-4.82228e-17
0.0790731 	29.88 	1.62022e-18 	-4.80036e-17
0.0793273 	29.88 	1.62009e-18 	-4.82984e-17
0.0795816 	29.88 	1.68062e-18 	-5.21127e-17
0.0798358 	29.88 	1.59717e-18 	-4.73487e-17
0.0800901 	29.88 	1.59557e-18 	-4.72574e-17
0.0803443 	29.88 	1.59397e-18 	-4.71661e-17
0.0805986 	29.88 	1.59237e-18 	-4.70748e-17
0.0808529 	29.88 	1.58978e-18 	-4.69662e-17
0.0811071 	29.88 	1.58082e-18 	-4.67462e-17
0.0813614 	29.88 	1.57186e-18 	-4.65262e-17
0.0816156 	29.88 	1.5629e-18 	-4.63062e-17
0.0818699 	29.88 	1.5696e-18 	-4.70024e-17
0.0821241 	29.88 	1.6501e-18 	-5.19973e-17
0.0823784 	29.88 	1.53828e-18 	-4.5613e-17
0.0826326 	29.88 	1.53668e-18 	-4.55218e-17
0.0828869 	29.88 	1.53508e-18 	-4.54306e-17
0.0831411 	29.88 	1.53349e-18 	-4.53394e-17
0.0833954 	29.88 	1.53154e-18 	-4.52421e-17
0.0836496 	29.88 	1.52259e-18 	-4.50223e-17
0.0839039 	29.88 	1.51363e-18 	-4.48025e-17
0.0841582 	29.88 	1.50468e-18 	-4.45827e-17
0.0844124 	29.88 	1.51852e-18 	-4.56957e-17
0.0846667 	29.88 	1.61902e-18 	-5.18719e-17
0.0849209 	29.88 	1.49984e-18 	-4.50664e-17
0.0851752 	29.88 	1.47703e-18 	-4.37637e-17
0.0854294 	29.88 	1.47544e-18 	-4.36731e-17
0.0856837 	29.88 	1.47385e-18 	-4.35824e-17
0.0859379 	29.88 	1.47227e-18 	-4.34918e-17
0.0861922 	29.88 	1.46365e-18 	-4.32784e-17
0.0864464 	29.88 	1.45476e-18 	-4.306e-17
0.0867007 	29.88 	1.44586e-18 	-4.28416e-17
0.086955 	29.88 	1.46703e-18 	-4.43815e-17
0.0872092 	29.88 	1.57372e-18 	-5.09221e-17
0.0874635 	29.88 	1.46847e-18 	-4.49366e-17
0.0877177 	29.88 	1.41693e-18 	-4.19926e-17
0.087972 	29.88 	1.41536e-18 	-4.19031e-17
0.0882262 	29.88 	1.4138e-18 	-4.18135e-17
0.0884805 	29.88 	1.41223e-18 	-4.1724e-17
0.0887347 	29.88 	1.40435e-18 	-4.15241e-17
0.088989 	29.88 	1.39556e-18 	-4.13083e-17
0.0892432 	29.88 	1.38677e-18 	-4.10926e-17
0.0894975 	29.88 	1.41537e-18 	-4.30637e-17
0.0897518 	29.88 	1.52214e-18 	-4.96058e-17
0.090006 	29.88 	1.43701e-18 	-4.48058e-17
0.0902603 	29.88 	1.35677e-18 	-4.02194e-17
0.0905145 	29.88 	1.35523e-18 	-4.01315e-17
0.0907688 	29.88 	1.3537e-18 	-4.00436e-17
0.091023 	29.88 	1.35216e-18 	-3.99558e-17
0.0912773 	29.88 	1.34503e-18 	-3.97703e-17
0.0915315 	29.88 	1.33641e-18 	-3.95585e-17
0.0917858 	29.88 	1.32778e-18 	-3.93467e-17
0.09204 	29.88 	1.36381e-18 	-4.17467e-17
0.0922943 	29.88 	1.47068e-18 	-4.82911e-17
0.0925485 	29.88 	1.40574e-18 	-4.46791e-17
0.0928028 	29.88 	1.29697e-18 	-3.84564e-17
0.0930571 	29.88 	1.29547e-18 	-3.83708e-17
0.0933113 	29.88 	1.29397e-18 	-3.82852e-17
0.0935656 	29.88 	1.29248e-18 	-3.81996e-17
0.0938198 	29.88 	1.28613e-18 	-3.80293e-17
0.0940741 	29.88 	1.27773e-18 	-3.78229e-17
0.0943283 	29.88 	1.26932e-18 	-3.76166e-17
0.0945826 	29.88 	1.31263e-18 	-4.04355e-17
0.0948368 	29.88 	1.41965e-18 	-4.69831e-17
0.0950911 	29.88 	1.37498e-18 	-4.45618e-17
0.0953453 	29.88 	1.25634e-18 	-3.77683e-17
0.0955996 	29.88 	1.23655e-18 	-3.66346e-17
0.0958539 	29.88 	1.2351e-18 	-3.6552e-17
0.0961081 	29.88 	1.23366e-18 	-3.64693e-17
0.0963624 	29.88 	1.22811e-18 	-3.63148e-17
0.0966166 	29.88 	1.21999e-18 	-3.61154e-17
0.0968709 	29.88 	1.21187e-18 	-3.5916e-17
0.0971251 	29.88 	1.26216e-18 	-3.91357e-17
0.0973794 	29.88 	1.36939e-18 	-4.56873e-17
0.0976336 	29.88 	1.34505e-18 	-4.44602e-17
0.0978879 	29.88 	1.22666e-18 	-3.76719e-17
0.0981421 	29.88 	1.17899e-18 	-3.49383e-17
0.0983964 	29.88 	1.17761e-18 	-3.48592e-17
0.0986507 	29.88 	1.17623e-18 	-3.478e-17
0.0989049 	29.88 	1.17147e-18 	-3.46419e-17
0.0991592 	29.88 	1.1637e-18 	-3.4451e-17
0.0994134 	29.88 	1.15593e-18 	-3.42601e-17
0.0996677 	29.88 	1.21278e-18 	-3.78533e-17
0.0999219 	29.88 	1.32024e-18 	-4.44098e-17
0.100176 	29.88 	1.31634e-18 	-4.43806e-17
0.10043 	29.88 	1.19824e-18 	-3.75987e-17
0.100685 	29.88 	1.12335e-18 	-3.32982e-17
0.100939 	29.88 	1.12205e-18 	-3.32233e-17
0.101193 	29.88 	1.12074e-18 	-3.31484e-17
0.101447 	29.88 	1.11677e-18 	-3.30269e-17
0.101702 	29.88 	1.10941e-18 	-3.28461e-17
0.101956 	29.88 	1.10205e-18 	-3.26654e-17
0.10221 	29.88 	1.16486e-18 	-3.6595e-17
0.102464 	29.88 	1.27261e-18 	-4.31574e-17
0.102719 	29.88 	1.28923e-18 	-4.43302e-17
0.102973 	29.88 	1.17147e-18 	-3.75556e-17
0.103227 	29.88 	1.07023e-18 	-3.17316e-17
0.103481 	29.88 	1.06902e-18 	-3.16616e-17
0.103736 	29.88 	1.0678e-18 	-3.15916e-17
0.10399 	29.88 	1.06459e-18 	-3.14868e-17
0.104244 	29.88 	1.05771e-18 	-3.13179e-17
0.104498 	29.88 	1.05083e-18 	-3.11489e-17
0.104753 	29.88 	1.11881e-18 	-3.53676e-17
0.105007 	29.88 	1.2269e-18 	-4.1937e-17
0.105261 	29.88 	1.26415e-18 	-4.43162e-17
0.105516 	29.88 	1.14677e-18 	-3.755e-17
0.10577 	29.88 	1.02939e-18 	-3.07838e-17
0.106024 	29.88 	1.01913e-18 	-3.01924e-17
0.106278 	29.88 	1.01802e-18 	-3.0128e-17
0.106533 	29.88 	1.01553e-18 	-3.00396e-17
0.106787 	29.88 	1.0092e-18 	-2.98841e-17
0.107041 	29.88 	1.00287e-18 	-2.97286e-17
0.107295 	29.88 	1.07506e-18 	-3.41786e-17
0.10755 	29.88 	1.18353e-18 	-4.07559e-17
0.107804 	29.88 	1.24151e-18 	-4.43461e-17
0.108058 	29.88 	1.12456e-18 	-3.75892e-17
0.108312 	29.88 	1.00762e-18 	-3.08323e-17
0.108567 	29.88 	9.73031e-19 	-2.88339e-17
0.108821 	29.88 	9.72026e-19 	-2.87758e-17
0.109075 	29.88 	9.70196e-19 	-2.87033e-17
0.109329 	29.88 	9.64482e-19 	-2.85629e-17
0.109584 	29.88 	9.58768e-19 	-2.84225e-17
0.109838 	29.88 	1.03404e-18 	-3.30352e-17
0.110092 	29.88 	1.14294e-18 	-3.96215e-17
0.110346 	29.88 	1.22174e-18 	-4.44273e-17
0.110601 	29.88 	1.10527e-18 	-3.76807e-17
0.110855 	29.88 	9.88805e-19 	-3.09341e-17
0.111109 	29.88 	9.31327e-19 	-2.76046e-17
0.111363 	29.88 	9.30443e-19 	-2.75534e-17
0.111618 	29.88 	9.29205e-19 	-2.7496e-17
0.111872 	29.88 	9.24167e-19 	-2.73722e-17
0.112126 	29.88 	9.1913e-19 	-2.72484e-17
0.11238 	29.88 	9.96159e-19 	-3.19449e-17
0.112635 	29.88 	1.10553e-18 	-3.8541e-17
0.112889 	29.88 	1.20527e-18 	-4.45671e-17
0.113143 	29.88 	1.08932e-18 	-3.78316e-17
0.113397 	29.88 	9.73364e-19 	-3.10961e-17
0.113652 	29.88 	8.94619e-19 	-2.65219e-17
0.113906 	29.88 	8.93867e-19 	-2.64782e-17
0.11416 	29.88 	8.93114e-19 	-2.64345e-17
0.114414 	29.88 	8.88827e-19 	-2.6329e-17
0.114669 	29.88 	8.84524e-19 	-2.62232e-17
0.114923 	29.88 	9.61825e-19 	-3.09145e-17
0.115177 	29.88 	1.07171e-18 	-3.75214e-17
0.115431 	29.88 	1.1816e-18 	-4.41282e-17
0.115686 	29.88 	1.07708e-18 	-3.80486e-17
0.11594 	29.88 	9.61681e-19 	-3.1325e-17
0.116194 	29.88 	8.63459e-19 	-2.56022e-17
0.116448 	29.88 	8.62846e-19 	-2.55665e-17
0.116703 	29.88 	8.62233e-19 	-2.55308e-17
0.116957 	29.88 	8.58991e-19 	-2.54491e-17
0.117211 	29.88 	8.55474e-19 	-2.53626e-17
0.117465 	29.88 	9.31405e-19 	-2.99508e-17
0.11772 	29.88 	1.04184e-18 	-3.65692e-17
0.117974 	29.88 	1.15228e-18 	-4.31875e-17
0.118228 	29.88 	1.06892e-18 	-3.83377e-17
0.118482 	29.88 	9.54101e-19 	-3.16266e-17
0.118737 	29.88 	8.39285e-19 	-2.49155e-17
0.118991 	29.88 	8.37866e-19 	-2.48325e-17
0.119245 	29.88 	8.37399e-19 	-2.48052e-17
0.119499 	29.88 	8.35122e-19 	-2.47463e-17
0.119754 	29.88 	8.32433e-19 	-2.46802e-17
0.120008 	29.88 	9.05223e-19 	-2.90594e-17
0.120262 	29.88 	1.01624e-18 	-3.56899e-17
0.120517 	29.88 	1.12726e-18 	-4.23205e-17
0.120771 	29.88 	1.06512e-18 	-3.87039e-17
0.121025 	29.88 	9.50914e-19 	-3.20058e-17
0.121279 	29.88 	8.36707e-19 	-2.53077e-17
0.121534 	29.88 	8.19325e-19 	-2.42883e-17
0.121788 	29.88 	8.19009e-19 	-2.42697e-17
0.122042 	29.88 	8.176e-19 	-2.42321e-17
0.122296 	29.88 	8.15772e-19 	-2.41871e-17
0.122551 	29.88 	8.83541e-19 	-2.82451e-17
0.122805 	29.88 	9.95165e-19 	-3.48884e-17
0.123059 	29.88 	1.10679e-18 	-4.15317e-17
0.123313 	29.88 	1.06593e-18 	-3.9151e-17
0.123568 	29.88 	9.52338e-19 	-3.2466e-17
0.123822 	29.88 	8.38748e-19 	-2.57811e-17
0.124076 	29.88 	8.07494e-19 	-2.39418e-17
0.12433 	29.88 	8.0733e-19 	-2.39321e-17
0.124585 	29.88 	8.06667e-19 	-2.39137e-17
0.124839 	29.88 	8.05712e-19 	-2.38902e-17
0.125093 	29.88 	8.66511e-19 	-2.75109e-17
0.125347 	29.88 	9.7875e-19 	-3.41672e-17
0.125602 	29.88 	1.09099e-18 	-4.08235e-17
0.125856 	29.88 	1.0714e-18 	-3.96796e-17
0.12611 	29.88 	9.58355e-19 	-3.30063e-17
0.126364 	29.88 	8.45311e-19 	-2.6333e-17
0.126619 	29.88 	8.02189e-19 	-2.37873e-17
0.126873 	29.88 	8.02157e-19 	-2.37855e-17
0.127127 	29.88 	8.02044e-19 	-2.37822e-17
0.127381 	29.88 	8.01861e-19 	-2.37777e-17
0.127636 	29.88 	8.53807e-19 	-2.68521e-17
0.12789 	29.88 	9.66591e-19 	-3.35199e-17
0.128144 	29.88 	1.07938e-18 	-4.01878e-17
0.128398 	29.88 	1.08094e-18 	-4.02789e-17
0.128653 	29.88 	9.68212e-19 	-3.36124e-17
0.128907 	29.88 	8.55488e-19 	-2.69459e-17
0.129161 	29.88 	8.02015e-19 	-2.37835e-17
0.129415 	29.88 	8.02061e-19 	-2.37862e-17
0.12967 	29.88 	8.02206e-19 	-2.37906e-17
0.129924 	29.88 	8.02473e-19 	-2.37972e-17
0.130178 	29.88 	8.44087e-19 	-2.62471e-17
0.130432 	29.88 	9.5719e-19 	-3.29217e-17
0.130687 	29.88 	1.07029e-18 	-3.95963e-17
0.130941 	29.88 	1.09288e-18 	-4.092e-17
0.131195 	29.88 	9.80375e-19 	-3.42582e-17
0.131449 	29.88 	8.67872e-19 	-2.75963e-17
0.131704 	29.88 	8.04971e-19 	-2.38717e-17
0.131958 	29.88 	8.0507e-19 	-2.38776e-17
0.132212 	29.88 	8.05339e-19 	-2.38864e-17
0.132466 	29.88 	8.05918e-19 	-2.39006e-17
0.132721 	29.88 	8.36297e-19 	-2.56766e-17
0.132975 	29.88 	9.4962e-19 	-3.23558e-17
0.133229 	29.88 	1.06294e-18 	-3.9035e-17
0.133483 	29.88 	1.1065e-18 	-4.15904e-17
0.133738 	29.88 	9.94206e-19 	-3.4933e-17
0.133992 	29.88 	8.8191e-19 	-2.82755e-17
0.134246 	29.88 	8.10296e-19 	-2.40299e-17
0.134501 	29.88 	8.10445e-19 	-2.40387e-17
0.134755 	29.88 	8.10784e-19 	-2.40509e-17
0.135009 	29.88 	8.11655e-19 	-2.40723e-17
0.135263 	29.88 	8.30119e-19 	-2.51342e-17
0.135518 	29.88 	9.43649e-19 	-3.18178e-17
0.135772 	29.88 	1.05718e-18 	-3.85014e-17
0.136026 	29.88 	1.1217e-18 	-4.22882e-17
0.13628 	29.88 	1.00961e-18 	-3.5635e-17
0.136535 	29.88 	8.97516e-19 	-2.89819e-17
0.136789 	29.88 	8.1787e-19 	-2.42546e-17
0.137043 	29.88 	8.18068e-19 	-2.42663e-17
0.137297 	29.88 	8.18429e-19 	-2.42809e-17
0.137552 	29.88 	8.19586e-19 	-2.43094e-17
0.137806 	29.88 	8.25491e-19 	-2.46187e-17
0.13806 	29.88 	9.39224e-19 	-3.13067e-17
0.138314 	29.88 	1.05296e-18 	-3.79946e-17
0.138569 	29.88 	1.13844e-18 	-4.30127e-17
0.138823 	29.88 	1.02654e-18 	-3.63637e-17
0.139077 	29.88 	9.14648e-19 	-2.97147e-17
0.139331 	29.88 	8.27627e-19 	-2.45439e-17
0.139586 	29.88 	8.27871e-19 	-2.45584e-17
0.13984 	29.88 	8.2821e-19 	-2.45745e-17
0.140094 	29.88 	8.29645e-19 	-2.46099e-17
0.140348 	29.88 	8.31079e-19 	-2.46452e-17
0.140603 	29.88 	9.36295e-19 	-3.08217e-17
0.140857 	29.88 	1.05022e-18 	-3.75138e-17
0.141111 	29.88 	1.15666e-18 	-4.37629e-17
0.141365 	29.88 	1.04495e-18 	-3.7118e-17
0.14162 	29.88 	9.3325e-19 	-3.0473e-17
0.141874 	29.88 	8.39483e-19 	-2.48952e-17
0.142128 	29.88 	8.39773e-19 	-2.49124e-17
0.142382 	29.88 	8.40062e-19 	-2.49297e-17
0.142637 	29.88 	8.41747e-19 	-2.49713e-17
0.142891 	29.88 	8.43449e-19 	-2.50132e-17
0.143145 	29.88 	9.34804e-19 	-3.03618e-17
0.143399 	29.88 	1.04892e-18 	-3.70579e-17
0.143654 	29.88 	1.16304e-18 	-4.37541e-17
0.143908 	29.88 	1.06478e-18 	-3.78967e-17
0.144162 	29.88 	9.53255e-19 	-3.12556e-17
0.144416 	29.88 	8.53341e-19 	-2.53058e-17
0.144671 	29.88 	8.53673e-19 	-2.53256e-17
0.144925 	29.88 	8.54006e-19 	-2.53454e-17
0.145179 	29.88 	8.55795e-19 	-2.53907e-17
0.145433 	29.88 	8.57754e-19 	-2.54389e-17
0.145688 	29.88 	9.34678e-19 	-2.99258e-17
0.145942 	29.88 	1.04898e-18 	-3.66258e-17
0.146196 	29.88 	1.16328e-18 	-4.33258e-17
0.14645 	29.88 	1.08594e-18 	-3.86985e-17
0.146705 	29.88 	9.74589e-19 	-3.20611e-17
0.146959 	29.88 	8.69088e-19 	-2.57723e-17
0.147213 	29.88 	8.69461e-19 	-2.57946e-17
0.147467 	29.88 	8.69835e-19 	-2.58168e-17
0.147722 	29.88 	8.71678e-19 	-2.58648e-17
0.147976 	29.88 	8.7388e-19 	-2.5919e-17
0.14823 	29.88 	9.35839e-19 	-2.95124e-17
0.148484 	29.88 	1.05031e-18 	-3.62161e-17
0.148739 	29.88 	1.16479e-18 	-4.29198e-17
0.148993 	29.88 	1.10835e-18 	-3.95219e-17
0.149247 	29.88 	9.97165e-19 	-3.28879e-17
0.149502 	29.88 	8.86601e-19 	-2.62911e-17
0.149756 	29.88 	8.87013e-19 	-2.63157e-17
0.15001 	29.88 	8.87424e-19 	-2.63403e-17
0.150264 	29.88 	8.89274e-19 	-2.639e-17
0.150519 	29.88 	8.91705e-19 	-2.64498e-17
0.150773 	29.88 	9.38198e-19 	-2.912e-17
0.151027 	29.88 	1.05283e-18 	-3.58272e-17
0.151281 	29.88 	1.16747e-18 	-4.25343e-17
0.151536 	29.88 	1.13193e-18 	-4.03654e-17
0.15179 	29.88 	1.02089e-18 	-3.37346e-17
0.152044 	29.88 	9.09858e-19 	-2.71039e-17
0.152298 	29.88 	9.06193e-19 	-2.6885e-17
0.152553 	29.88 	9.06641e-19 	-2.69117e-17
0.152807 	29.88 	9.08452e-19 	-2.69623e-17
0.153061 	29.88 	9.11096e-19 	-2.70274e-17
0.153315 	29.88 	9.41663e-19 	-2.87471e-17
0.15357 	29.88 	1.05645e-18 	-3.54575e-17
0.153824 	29.88 	1.17124e-18 	-4.21679e-17
0.154078 	29.88 	1.15657e-18 	-4.12273e-17
0.154332 	29.88 	1.04568e-18 	-3.45994e-17
0.154587 	29.88 	9.34781e-19 	-2.79716e-17
0.154841 	29.88 	9.26863e-19 	-2.74983e-17
0.155095 	29.88 	9.27343e-19 	-2.7527e-17
0.155349 	29.88 	9.29073e-19 	-2.75776e-17
0.155604 	29.88 	9.31913e-19 	-2.76475e-17
0.155858 	29.88 	9.46134e-19 	-2.8392e-17
0.156112 	29.88 	1.06106e-18 	-3.51054e-17
0.156366 	29.88 	1.17599e-18 	-4.18187e-17
0.156621 	29.88 	1.18218e-18 	-4.21057e-17
0.156875 	29.88 	1.07141e-18 	-3.54806e-17
0.157129 	29.88 	9.60645e-19 	-2.88554e-17
0.157383 	29.88 	9.48873e-19 	-2.81513e-17
0.157638 	29.88 	9.49383e-19 	-2.81819e-17
0.157892 	29.88 	9.50993e-19 	-2.82316e-17
0.158146 	29.88 	9.54013e-19 	-2.8306e-17
0.1584 	29.88 	9.57033e-19 	-2.83804e-17
0.158655 	29.88 	1.06656e-18 	-3.47689e-17
0.158909 	29.88 	1.18162e-18 	-4.14851e-17
0.159163 	29.88 	1.20865e-18 	-4.29989e-17
0.159417 	29.88 	1.098e-18 	-3.63762e-17
0.159672 	29.88 	9.87344e-19 	-2.97535e-17
0.159926 	29.88 	9.72075e-19 	-2.88396e-17
0.16018 	29.88 	9.72612e-19 	-2.88717e-17
0.160434 	29.88 	9.74065e-19 	-2.89199e-17
0.160689 	29.88 	9.77247e-19 	-2.89983e-17
0.160943 	29.88 	9.80429e-19 	-2.90767e-17
0.161197 	29.88 	1.07285e-18 	-3.44464e-17
0.161451 	29.88 	1.18802e-18 	-4.1165e-17
0.161706 	29.88 	1.23587e-18 	-4.3905e-17
0.16196 	29.88 	1.12532e-18 	-3.72845e-17
0.162214 	29.88 	1.01477e-18 	-3.06639e-17
0.162468 	29.88 	9.96314e-19 	-2.95585e-17
0.162723 	29.88 	9.96875e-19 	-2.95921e-17
0.162977 	29.88 	9.98142e-19 	-2.9638e-17
0.163231 	29.88 	1.00147e-18 	-2.972e-17
0.163485 	29.88 	1.00479e-18 	-2.98019e-17
0.16374 	29.88 	1.07982e-18 	-3.4136e-17
0.163994 	29.88 	1.19509e-18 	-4.08567e-17
0.164248 	29.88 	1.26374e-18 	-4.48223e-17
0.164503 	29.88 	1.15328e-18 	-3.82036e-17
0.164757 	29.88 	1.04282e-18 	-3.15849e-17
0.165011 	29.88 	1.02144e-18 	-3.03037e-17
0.165265 	29.88 	1.02202e-18 	-3.03385e-17
0.16552 	29.88 	1.02307e-18 	-3.03816e-17
0.165774 	29.88 	1.02652e-18 	-3.04666e-17
0.166028 	29.88 	1.02998e-18 	-3.05516e-17
0.166282 	29.88 	1.08736e-18 	-3.38357e-17
0.166537 	29.88 	1.20273e-18 	-4.05584e-17
0.166791 	29.88 	1.29216e-18 	-4.57487e-17
0.167045 	29.88 	1.18177e-18 	-3.91316e-17
0.167299 	29.88 	1.07139e-18 	-3.25145e-17
0.167554 	29.88 	1.0473e-18 	-3.10705e-17
0.167808 	29.88 	1.0479e-18 	-3.11064e-17
0.168062 	29.88 	1.04871e-18 	-3.11461e-17
0.168316 	29.88 	1.05227e-18 	-3.12338e-17
0.168571 	29.88 	1.05583e-18 	-3.13214e-17
0.168825 	29.88 	1.09538e-18 	-3.35439e-17
0.169079 	29.88 	1.21082e-18 	-4.02682e-17
0.169333 	29.88 	1.32101e-18 	-4.66827e-17
0.169588 	29.88 	1.21069e-18 	-4.00669e-17
0.169842 	29.88 	1.10037e-18 	-3.34511e-17
0.170096 	29.88 	1.07375e-18 	-3.18547e-17
0.17035 	29.88 	1.07436e-18 	-3.18915e-17
0.170605 	29.88 	1.07497e-18 	-3.19283e-17
0.170859 	29.88 	1.07856e-18 	-3.20172e-17
0.171113 	29.88 	1.08221e-18 	-3.2107e-17
0.171367 	29.88 	1.10376e-18 	-3.32587e-17
0.171622 	29.88 	1.21926e-18 	-3.99844e-17
0.171876 	29.88 	1.33476e-18 	-4.671e-17
0.17213 	29.88 	1.23993e-18 	-4.10076e-17
0.172384 	29.88 	1.12966e-18 	-3.43929e-17
0.172639 	29.88 	1.10064e-18 	-3.26519e-17
0.172893 	29.88 	1.10126e-18 	-3.26894e-17
0.173147 	29.88 	1.10189e-18 	-3.27269e-17
0.173401 	29.88 	1.10526e-18 	-3.28126e-17
0.173656 	29.88 	1.10898e-18 	-3.29041e-17
0.17391 	29.88 	1.1127e-18 	-3.29957e-17
0.174164 	29.88 	1.22796e-18 	-3.97051e-17
0.174418 	29.88 	1.34351e-18 	-4.64319e-17
0.174673 	29.88 	1.2694e-18 	-4.1952e-17
0.174927 	29.88 	1.15916e-18 	-3.53381e-17
0.175181 	29.88 	1.12783e-18 	-3.3458e-17
0.175435 	29.88 	1.12846e-18 	-3.34961e-17