/*--------------------------------*- C++ -*----------------------------------*\
| =========                 |                                                 |
| \\      /  F ield         | OpenFOAM: The Open Source CFD Toolbox           |
|  \\    /   O peration     | Version:  v3.0+                                 |
|   \\  /    A nd           | Web:      www.OpenFOAM.com                      |
|    \\/     M anipulation  |                                                 |
\*---------------------------------------------------------------------------*/
FoamFile
{
    version     2.0;
    format      ascii;
    class       volVectorField;
    location    "3000";
    object      D;
}
// * * * * * * * * * * * * * * * * * * * * * * * * * * * * * * * * * * * * * //

dimensions      [0 1 0 0 0 0 0];

internalField   nonuniform List<vector> 
24076
(
(3.25666e-06 3.22256e-06 0)
(3.70116e-09 4.14661e-08 0)
(2.90955e-11 5.846e-10 0)
(2.95024e-11 5.67723e-10 0)
(8.52558e-07 2.51565e-06 0)
(4.72629e-09 4.92698e-08 0)
(3.57505e-09 4.16876e-08 0)
(3.33328e-06 3.24595e-06 0)
(-2.87794e-12 4.34039e-11 0)
(7.55128e-06 2.3492e-05 0)
(-1.00547e-06 2.15131e-06 0)
(7.70017e-06 2.37256e-05 0)
(1.31973e-06 1.38516e-06 0)
(7.84065e-07 2.503e-06 0)
(8.21546e-06 1.9167e-05 0)
(1.39252e-06 1.80439e-05 0)
(-1.42815e-05 0.000119488 0)
(1.61412e-05 0.000119564 0)
(8.39982e-07 9.92206e-06 0)
(1.56817e-06 1.8144e-05 0)
(8.00836e-06 1.90228e-05 0)
(-9.76507e-07 4.23692e-06 0)
(4.62032e-09 6.66193e-08 0)
(-9.67675e-07 2.09911e-06 0)
(2.64079e-07 1.09275e-06 0)
(7.06173e-07 9.87878e-06 0)
(-1.07802e-07 1.7402e-07 0)
(4.61839e-09 4.85751e-08 0)
(9.55214e-08 2.14244e-05 0)
(2.07423e-07 1.07585e-06 0)
(-2.06917e-07 2.13987e-05 0)
(9.90693e-11 1.00716e-08 0)
(2.95046e-06 1.19791e-05 0)
(1.69795e-06 4.92117e-06 0)
(3.09824e-06 1.20246e-05 0)
(5.66454e-06 1.74028e-05 0)
(1.38113e-06 1.44301e-06 0)
(-1.42177e-05 0.00012038 0)
(1.60995e-05 0.000120465 0)
(2.67166e-06 1.59979e-06 0)
(-5.21422e-07 3.21776e-07 0)
(-6.4089e-07 4.38999e-05 0)
(1.21929e-06 1.78897e-06 0)
(1.62119e-06 4.92671e-06 0)
(5.45181e-06 1.73114e-05 0)
(-5.51908e-06 1.63213e-05 0)
(6.04866e-10 4.49739e-08 0)
(2.64043e-06 2.34698e-05 0)
(-1.14661e-07 1.77664e-07 0)
(-3.99494e-06 1.73768e-05 0)
(9.62318e-11 1.50385e-09 0)
(-9.57548e-08 1.58607e-07 0)
(-7.88143e-12 5.60365e-11 0)
(4.53846e-09 5.34603e-08 0)
(-2.87911e-12 4.64666e-11 0)
(7.68339e-06 6.39188e-05 0)
(1.1535e-06 4.33631e-06 0)
(4.83654e-06 7.0523e-06 0)
(3.36286e-06 0.000318993 0)
(8.26626e-06 6.40047e-05 0)
(-5.55463e-06 1.65366e-05 0)
(-9.47349e-10 2.01728e-08 0)
(-3.78522e-06 7.05813e-06 0)
(-3.78464e-06 1.72709e-05 0)
(-6.49565e-07 2.3333e-06 0)
(4.74064e-06 7.05087e-06 0)
(1.46665e-06 3.96085e-06 0)
(-5.86313e-07 2.32549e-06 0)
(1.69672e-09 3.03062e-08 0)
(1.48649e-06 3.8942e-06 0)
(2.33672e-06 0.000316585 0)
(-3.34949e-09 8.76056e-08 0)
(-8.13361e-06 4.58451e-05 0)
(-4.37895e-10 4.72161e-09 0)
(-5.15024e-07 3.17632e-07 0)
(2.41904e-06 2.34152e-05 0)
(-1.05169e-06 4.29177e-06 0)
(-8.4321e-06 4.62079e-05 0)
(2.92835e-06 4.82248e-06 0)
(-3.70271e-06 6.95054e-06 0)
(9.26503e-10 4.53022e-08 0)
(3.69205e-06 4.08791e-05 0)
(-2.95765e-07 5.63365e-06 0)
(2.62235e-08 1.76551e-06 0)
(-3.10522e-07 2.68409e-07 0)
(-6.91588e-12 4.83371e-11 0)
(9.82413e-06 0.000198585 0)
(-8.75387e-06 6.78062e-05 0)
(3.52285e-07 0.000316093 0)
(8.20932e-06 0.000198724 0)
(3.3805e-06 4.11399e-05 0)
(2.2148e-06 0.000320779 0)
(-1.54049e-06 7.49856e-06 0)
(1.2223e-06 4.37464e-06 0)
(-2.87214e-09 1.81632e-06 0)
(-8.71704e-07 9.18003e-07 0)
(-1.66923e-06 0.000134647 0)
(6.05389e-06 0.000205002 0)
(2.3572e-11 9.76667e-09 0)
(1.34395e-06 2.96923e-06 0)
(-3.43838e-07 5.73499e-06 0)
(-7.42667e-07 1.49689e-06 0)
(-4.13844e-07 4.43078e-05 0)
(2.87277e-06 4.74261e-06 0)
(-7.44424e-07 3.03303e-05 0)
(-5.65409e-07 3.94756e-07 0)
(-1.31943e-10 1.97181e-09 0)
(-4.88256e-10 8.33157e-08 0)
(-2.22641e-06 5.93728e-06 0)
(-2.36195e-06 3.27148e-05 0)
(-1.88048e-06 0.000135796 0)
(2.08862e-06 2.3772e-05 0)
(-2.22813e-12 1.30474e-10 0)
(-1.05177e-09 1.97541e-08 0)
(1.41737e-05 0.000257883 0)
(8.25825e-11 1.46656e-09 0)
(-8.69448e-07 2.23427e-06 0)
(-2.05842e-06 3.25937e-05 0)
(5.78656e-06 0.000206312 0)
(-2.70969e-06 3.26261e-05 0)
(4.91342e-07 2.65947e-05 0)
(-4.53006e-06 2.63343e-05 0)
(-5.47151e-07 4.03466e-07 0)
(2.59863e-06 1.55704e-06 0)
(5.48352e-06 2.01753e-05 0)
(-8.93721e-06 6.84012e-05 0)
(-2.25171e-06 6.03484e-06 0)
(6.31767e-06 3.3525e-05 0)
(-9.83882e-07 3.00894e-05 0)
(3.87046e-10 7.047e-09 0)
(-4.51632e-06 2.60599e-05 0)
(-2.89169e-06 3.23873e-05 0)
(-3.19002e-06 6.21375e-05 0)
(4.28796e-09 6.72601e-08 0)
(-1.50015e-06 7.59758e-06 0)
(-1.29357e-07 1.73623e-07 0)
(1.0392e-06 7.16165e-06 0)
(1.15704e-06 1.73991e-06 0)
(2.50242e-06 0.000182158 0)
(1.27565e-06 7.77399e-06 0)
(1.38735e-06 7.7972e-06 0)
(-2.73588e-12 1.22993e-10 0)
(-8.89466e-09 2.13511e-08 0)
(-2.18329e-06 0.00015242 0)
(1.22814e-05 0.000157552 0)
(2.18284e-06 2.35389e-05 0)
(-3.38514e-06 6.26518e-05 0)
(8.04281e-06 9.25386e-05 0)
(9.81688e-07 8.5464e-06 0)
(1.45067e-10 3.31618e-09 0)
(-3.88942e-06 1.4641e-05 0)
(-2.78559e-13 2.1517e-12 0)
(1.23714e-06 4.3782e-07 0)
(1.25133e-06 2.30474e-06 0)
(3.40638e-06 6.83115e-06 0)
(2.0474e-06 4.19457e-05 0)
(2.75498e-06 1.98975e-06 0)
(-5.23722e-07 2.68205e-05 0)
(9.74292e-07 7.23724e-06 0)
(-2.02128e-11 7.1715e-10 0)
(1.34863e-08 -3.12497e-08 0)
(-2.88069e-12 3.48118e-11 0)
(9.58471e-06 2.5022e-05 0)
(-2.5409e-06 5.01952e-06 0)
(9.71247e-07 6.57285e-05 0)
(1.93106e-05 0.000182934 0)
(-1.7664e-05 0.000182937 0)
(-1.46252e-06 1.08234e-05 0)
(-9.97296e-07 3.23394e-06 0)
(-4.01837e-07 2.06565e-07 0)
(2.348e-06 6.84032e-06 0)
(1.5918e-09 7.98587e-08 0)
(2.25835e-07 1.24577e-05 0)
(2.32451e-06 1.02654e-05 0)
(-2.52248e-06 1.08469e-05 0)
(4.18489e-06 1.08487e-05 0)
(-8.78385e-06 6.40619e-05 0)
(1.0408e-05 6.4066e-05 0)
(9.13054e-06 2.7075e-05 0)
(-4.34433e-06 1.3545e-05 0)
(-3.58561e-06 6.94005e-06 0)
(-7.05923e-10 5.16923e-09 0)
(2.1721e-06 4.69224e-06 0)
(-1.36433e-07 -1.13786e-08 0)
(-1.49405e-07 -3.93761e-09 0)
(-8.15834e-08 3.17171e-06 0)
(-1.01211e-06 3.31427e-06 0)
(-4.6471e-07 4.00605e-07 0)
(-1.30809e-06 2.54904e-06 0)
(8.0243e-07 4.31177e-07 0)
(9.35272e-10 1.26731e-08 0)
(-2.65913e-06 1.4819e-05 0)
(-1.01949e-05 0.000176976 0)
(-5.35846e-06 4.12092e-05 0)
(4.84248e-06 3.87429e-05 0)
(5.86366e-06 1.14342e-05 0)
(4.50409e-09 5.09483e-08 0)
(9.40299e-06 6.33347e-05 0)
(-7.7715e-06 6.33246e-05 0)
(-4.20555e-06 1.14333e-05 0)
(2.16938e-06 4.60613e-06 0)
(-4.24571e-07 3.65183e-07 0)
(-1.79841e-05 0.000203029 0)
(1.96344e-05 0.000203029 0)
(2.9665e-06 0.000158388 0)
(1.11075e-06 2.59125e-06 0)
(-4.88417e-06 1.54304e-05 0)
(-9.57095e-06 8.81047e-05 0)
(2.35671e-06 1.62077e-06 0)
(4.08491e-08 1.25123e-05 0)
(-2.05458e-09 5.36872e-08 0)
(1.24941e-06 1.41715e-05 0)
(-3.68191e-08 1.20299e-07 0)
(-3.96858e-06 1.44132e-05 0)
(-3.06183e-12 3.45352e-11 0)
(3.77052e-07 1.03501e-05 0)
(-1.34169e-07 1.76287e-07 0)
(-3.85177e-06 9.23461e-06 0)
(-2.03919e-05 0.000308066 0)
(2.20444e-05 0.000308067 0)
(-4.23122e-07 0.000113666 0)
(8.4901e-06 1.90996e-05 0)
(3.80052e-06 3.22486e-06 0)
(-8.37406e-07 5.111e-06 0)
(6.21572e-06 1.34435e-05 0)
(-4.78362e-11 3.00936e-10 0)
(-3.60502e-11 6.57849e-10 0)
(-5.65233e-06 3.45809e-05 0)
(-6.09557e-11 4.1532e-10 0)
(7.11548e-06 0.000196788 0)
(-2.6108e-11 6.69327e-10 0)
(-2.71806e-06 1.50031e-05 0)
(-6.87887e-11 1.19751e-09 0)
(-7.91677e-10 5.89305e-09 0)
(1.24559e-06 5.63044e-06 0)
(4.7378e-06 7.18639e-05 0)
(-6.48167e-07 5.77838e-07 0)
(6.38477e-07 1.55775e-07 0)
(-5.44362e-06 6.44762e-05 0)
(-1.05191e-05 4.61508e-05 0)
(1.22051e-05 4.61634e-05 0)
(-3.20693e-07 2.71827e-07 0)
(-7.0809e-06 8.20962e-05 0)
(-6.38388e-06 8.14652e-05 0)
(1.53749e-05 8.53255e-05 0)
(-1.38004e-05 8.5347e-05 0)
(-5.39188e-06 4.67627e-05 0)
(6.06285e-06 1.1508e-05 0)
(-4.40515e-06 1.15071e-05 0)
(-8.85548e-07 1.91457e-06 0)
(-1.37854e-05 0.000153686 0)
(4.44445e-06 0.000132629 0)
(4.64005e-08 -3.60101e-08 0)
(4.14667e-06 5.50491e-06 0)
(1.60466e-05 8.56949e-05 0)
(-1.43967e-05 8.56957e-05 0)
(1.70285e-09 2.60198e-08 0)
(-4.51246e-11 8.63309e-09 0)
(-5.39787e-08 1.24274e-07 0)
(6.25604e-06 0.000187091 0)
(1.18027e-06 2.25505e-06 0)
(4.39454e-06 4.34287e-06 0)
(4.52114e-06 1.29074e-05 0)
(-1.91618e-12 3.69282e-11 0)
(-1.43085e-06 6.6089e-06 0)
(3.42475e-07 1.07304e-06 0)
(-4.80499e-06 1.52539e-05 0)
(1.57996e-06 3.81578e-05 0)
(-5.10758e-06 4.14725e-05 0)
(2.64803e-11 3.90785e-10 0)
(-1.0873e-05 0.00014605 0)
(1.25945e-05 0.00014608 0)
(4.04845e-06 5.4531e-06 0)
(1.71642e-06 2.43103e-05 0)
(-1.68771e-07 2.05904e-07 0)
(-5.90127e-06 5.76755e-05 0)
(-9.12803e-06 6.99192e-05 0)
(1.67032e-09 7.91226e-08 0)
(-4.57374e-06 1.67964e-05 0)
(9.78013e-06 2.52651e-05 0)
(1.11059e-10 2.41445e-09 0)
(-1.94963e-07 0.000162586 0)
(9.15433e-07 6.92625e-05 0)
(-1.00956e-07 1.50471e-07 0)
(7.57886e-07 6.39432e-06 0)
(-6.25418e-07 5.4169e-07 0)
(-9.82103e-10 9.67482e-09 0)
(4.89436e-06 1.29421e-05 0)
(-1.76554e-06 2.5575e-06 0)
(2.08263e-06 4.07296e-06 0)
(-3.26117e-06 0.000152172 0)
(3.39895e-06 3.91498e-06 0)
(2.26636e-06 1.03866e-05 0)
(1.23474e-06 3.03492e-06 0)
(2.00282e-05 0.000184383 0)
(-1.83789e-05 0.000184382 0)
(-2.92427e-06 1.53538e-05 0)
(1.19206e-11 6.03456e-10 0)
(-2.16736e-10 2.34732e-09 0)
(4.60393e-06 2.80435e-05 0)
(-5.62682e-06 4.72569e-05 0)
(7.33851e-06 4.72906e-05 0)
(-7.99147e-06 9.39915e-05 0)
(9.66777e-06 9.40629e-05 0)
(-6.33834e-07 5.25895e-07 0)
(-3.35748e-12 8.95825e-11 0)
(-5.46237e-07 0.000115949 0)
(-5.48882e-06 3.42605e-05 0)
(-1.15314e-07 5.05913e-06 0)
(-3.11921e-06 0.000137495 0)
(-9.81175e-07 2.20222e-05 0)
(1.19835e-06 3.80537e-05 0)
(2.45681e-12 7.18117e-11 0)
(-3.68353e-06 2.08835e-05 0)
(-1.69743e-06 1.4405e-05 0)
(5.19121e-06 6.89019e-06 0)
(3.88835e-06 2.08172e-05 0)
(-1.91977e-10 1.13454e-09 0)
(-1.27241e-06 1.54244e-06 0)
(4.24415e-07 1.02105e-05 0)
(7.67532e-06 5.12935e-05 0)
(-4.56473e-06 1.34637e-05 0)
(-3.42961e-06 2.08266e-05 0)
(-1.05421e-09 1.53504e-08 0)
(4.21763e-09 5.31175e-08 0)
(4.31791e-06 1.30013e-05 0)
(1.86589e-05 0.000139029 0)
(-1.70167e-05 0.000139022 0)
(2.41962e-06 1.69648e-06 0)
(-1.41448e-07 2.27861e-06 0)
(-2.73454e-07 6.49253e-06 0)
(1.09171e-05 6.36098e-05 0)
(-9.26863e-06 6.36084e-05 0)
(1.58553e-06 6.94943e-05 0)
(4.98561e-06 3.17179e-05 0)
(5.11192e-06 1.21358e-05 0)
(-9.15915e-07 2.20908e-06 0)
(5.14183e-09 5.74192e-08 0)
(-2.85521e-06 8.4472e-06 0)
(8.07241e-07 6.39346e-07 0)
(-3.07833e-06 5.52512e-06 0)
(-2.94288e-07 0.000123108 0)
(1.59844e-09 2.39151e-08 0)
(-5.36717e-06 7.05357e-05 0)
(8.2426e-07 2.66342e-05 0)
(-6.66428e-07 5.87281e-07 0)
(-5.62041e-08 1.28932e-07 0)
(7.4538e-08 3.61244e-06 0)
(2.02207e-06 4.25691e-05 0)
(6.99893e-06 2.32576e-05 0)
(-8.42819e-07 3.36005e-06 0)
(2.98737e-07 2.36787e-06 0)
(-5.48444e-06 3.29983e-05 0)
(1.3475e-06 1.06416e-05 0)
(3.8929e-06 4.56855e-06 0)
(4.57075e-06 3.84077e-05 0)
(3.74089e-06 1.15134e-05 0)
(1.14895e-06 8.93708e-06 0)
(-1.14546e-05 0.000176074 0)
(3.66765e-07 8.94996e-07 0)
(8.43225e-07 2.56883e-05 0)
(3.8617e-06 6.85953e-06 0)
(1.7049e-06 4.01455e-06 0)
(-9.95533e-10 2.41333e-08 0)
(-3.81324e-06 7.609e-06 0)
(5.77578e-08 3.96412e-09 0)
(-7.08159e-07 2.213e-05 0)
(6.64477e-06 2.32513e-05 0)
(2.73223e-06 4.77969e-06 0)
(1.15514e-06 1.40296e-05 0)
(3.98034e-06 4.60361e-06 0)
(6.60594e-07 1.12658e-06 0)
(8.09361e-06 2.01025e-05 0)
(-2.19124e-08 1.01532e-07 0)
(5.80897e-06 1.12628e-05 0)
(-4.15088e-06 1.12616e-05 0)
(-7.39583e-11 2.81206e-09 0)
(-1.22674e-05 0.00012326 0)
(1.39017e-05 0.000123113 0)
(-9.7587e-08 1.61389e-07 0)
(-5.14488e-07 4.47731e-07 0)
(-7.70247e-07 2.70755e-05 0)
(1.14609e-06 6.79569e-07 0)
(-3.74285e-07 1.39912e-06 0)
(-6.18733e-06 4.61758e-05 0)
(9.96779e-10 1.83321e-08 0)
(-1.23294e-06 1.03151e-05 0)
(1.80451e-09 7.95682e-08 0)
(7.35724e-12 4.28354e-10 0)
(3.19632e-06 4.12207e-06 0)
(2.03258e-07 2.13913e-06 0)
(-1.91839e-05 0.000202183 0)
(2.08341e-05 0.000202183 0)
(7.4689e-06 0.000187897 0)
(-1.02134e-05 8.75714e-05 0)
(-4.00397e-06 1.1144e-05 0)
(5.66235e-06 1.11454e-05 0)
(-1.74318e-06 3.74093e-06 0)
(-5.73928e-06 4.61362e-05 0)
(1.311e-06 3.02736e-06 0)
(-4.49148e-06 2.10153e-05 0)
(8.32744e-06 7.00215e-05 0)
(-4.86225e-12 3.31106e-10 0)
(-5.69019e-07 1.94957e-06 0)
(7.28081e-06 1.6432e-05 0)
(-1.03648e-05 0.000147251 0)
(1.21308e-05 0.000147277 0)
(3.31165e-06 2.75661e-05 0)
(1.23669e-06 1.16044e-05 0)
(-2.13471e-06 0.000162555 0)
(-6.56695e-06 1.69961e-05 0)
(9.76785e-06 3.66291e-05 0)
(3.83703e-12 4.09728e-10 0)
(6.10413e-07 1.20047e-05 0)
(5.1097e-06 0.000133949 0)
(7.726e-07 4.61238e-07 0)
(1.0753e-05 0.000155837 0)
(4.61159e-12 1.09747e-10 0)
(-1.77458e-06 2.60172e-06 0)
(-7.67326e-06 9.32203e-05 0)
(9.34851e-06 9.3287e-05 0)
(-1.42928e-06 6.70447e-06 0)
(1.92154e-06 2.03171e-06 0)
(-5.06732e-07 9.73084e-07 0)
(5.53517e-06 0.000201182 0)
(-8.78075e-07 3.30672e-06 0)
(1.18182e-06 2.59398e-06 0)
(2.40397e-06 4.09302e-06 0)
(-2.77241e-07 6.58696e-06 0)
(-5.28626e-08 1.23293e-07 0)
(3.5492e-06 5.71157e-06 0)
(-1.9211e-06 2.05821e-05 0)
(-4.77528e-08 3.22837e-06 0)
(1.04107e-06 5.01872e-06 0)
(1.02686e-05 0.000148872 0)
(-1.03099e-06 1.6153e-05 0)
(6.11669e-09 5.34032e-08 0)
(4.11148e-06 0.000126913 0)
(-5.37866e-07 4.51406e-07 0)
(1.60544e-06 2.70535e-06 0)
(3.41401e-10 1.27578e-08 0)
(-7.16163e-08 1.26775e-07 0)
(-1.17719e-06 1.95264e-06 0)
(2.0619e-06 4.00718e-06 0)
(6.91998e-07 6.63246e-05 0)
(4.27259e-06 4.42033e-06 0)
(3.86623e-09 4.51297e-08 0)
(9.35328e-06 3.68062e-05 0)
(-3.99388e-06 4.5136e-05 0)
(2.02061e-06 8.98103e-06 0)
(1.02415e-06 4.94053e-06 0)
(-5.33678e-06 6.5184e-05 0)
(1.16049e-05 0.000221581 0)
(8.61626e-06 4.17482e-05 0)
(1.80856e-06 2.34771e-06 0)
(-1.6632e-10 4.55726e-09 0)
(1.22367e-05 0.000258046 0)
(1.20642e-09 2.8675e-08 0)
(-5.37995e-10 3.52503e-09 0)
(1.93048e-07 1.64491e-06 0)
(-7.36851e-09 5.08229e-06 0)
(9.7075e-06 3.21084e-05 0)
(2.77167e-06 4.72206e-06 0)
(-1.42612e-10 1.68375e-09 0)
(-4.18141e-12 2.96927e-11 0)
(-1.29772e-05 0.000102534 0)
(1.48135e-05 0.00010259 0)
(6.67451e-06 3.36904e-05 0)
(-1.167e-09 1.44245e-08 0)
(-9.64062e-07 1.06591e-06 0)
(-3.32725e-12 1.08115e-10 0)
(6.0927e-07 8.75942e-06 0)
(-1.30619e-06 6.16542e-06 0)
(-7.70541e-06 3.68237e-05 0)
(-1.12458e-05 0.000123079 0)
(1.28808e-05 0.000122933 0)
(2.95413e-06 3.18318e-06 0)
(5.01735e-06 2.98009e-05 0)
(-9.00054e-11 1.01699e-09 0)
(2.25027e-06 4.99575e-06 0)
(1.36661e-06 1.87703e-06 0)
(-4.92327e-06 4.66671e-05 0)
(-3.9723e-06 3.79252e-05 0)
(5.26012e-06 7.02206e-06 0)
(2.53286e-06 6.42059e-06 0)
(1.07183e-06 1.09669e-06 0)
(4.05123e-06 2.5652e-05 0)
(-2.57225e-06 4.96052e-06 0)
(7.67008e-06 8.60088e-05 0)
(7.42953e-06 5.19481e-05 0)
(1.78232e-05 0.000138089 0)
(-1.61811e-05 0.000138082 0)
(-1.5084e-08 1.02235e-07 0)
(8.23736e-06 1.70052e-05 0)
(-1.3987e-06 6.15033e-06 0)
(6.46559e-06 0.000100919 0)
(-6.03982e-10 4.87947e-09 0)
(-1.28379e-05 0.000135366 0)
(-2.32345e-10 2.05259e-09 0)
(9.14181e-06 7.98759e-05 0)
(-1.12944e-06 1.03891e-05 0)
(6.70832e-06 1.46644e-05 0)
(-8.03501e-12 3.2435e-10 0)
(5.05522e-07 0.000196999 0)
(-5.1697e-09 4.68528e-08 0)
(-4.41006e-07 1.19311e-05 0)
(-3.74297e-07 9.18993e-06 0)
(4.64571e-06 1.25866e-05 0)
(-2.76979e-06 4.78399e-06 0)
(-5.11995e-06 2.39968e-05 0)
(-9.32247e-06 4.21469e-05 0)
(-1.37248e-07 1.89284e-07 0)
(1.09106e-05 0.000150012 0)
(9.20647e-06 4.2607e-05 0)
(4.57574e-13 4.01108e-11 0)
(2.10791e-06 1.00217e-06 0)
(1.00559e-05 0.00017466 0)
(-7.71475e-09 5.0773e-08 0)
(-1.54812e-06 3.9873e-06 0)
(5.20346e-06 7.53586e-05 0)
(1.53941e-07 1.59283e-06 0)
(1.58218e-06 0.000103896 0)
(-1.26451e-06 2.48369e-06 0)
(-4.44865e-10 4.32316e-09 0)
(-4.70801e-07 5.08957e-07 0)
(3.97122e-10 8.98048e-09 0)
(1.34426e-06 1.17439e-05 0)
(-1.37185e-05 0.000224301 0)
(1.52704e-05 0.000224265 0)
(-2.6299e-06 2.04725e-05 0)
(-1.19905e-09 1.49425e-08 0)
(3.61803e-06 3.30671e-06 0)
(-9.52337e-10 7.70024e-09 0)
(6.61178e-06 2.48682e-05 0)
(2.01014e-05 0.000320765 0)
(-1.84642e-05 0.000320748 0)
(-8.5282e-12 1.28784e-10 0)
(-6.66182e-09 9.27006e-08 0)
(3.70859e-06 3.15949e-06 0)
(-2.82568e-06 2.71465e-05 0)
(-1.75461e-06 3.66738e-06 0)
(2.0923e-07 2.08228e-06 0)
(7.28841e-06 0.00020106 0)
(-1.13579e-06 3.43408e-05 0)
(4.97939e-11 6.24992e-10 0)
(8.76774e-07 4.07721e-05 0)
(1.63945e-05 0.000212328 0)
(-1.46335e-05 0.000212411 0)
(-8.99758e-12 5.61747e-10 0)
(9.27492e-11 2.35083e-09 0)
(5.01969e-06 3.4155e-05 0)
(-1.16105e-05 0.000224557 0)
(1.31685e-05 0.000224677 0)
(3.80735e-06 7.86905e-06 0)
(2.92567e-07 5.70802e-06 0)
(-8.62322e-11 9.66808e-10 0)
(7.70113e-06 0.000214418 0)
(4.37666e-06 1.19795e-05 0)
(3.87635e-07 4.20867e-06 0)
(1.37112e-05 8.1779e-05 0)
(-1.2061e-05 8.17789e-05 0)
(-4.30442e-06 1.19473e-05 0)
(5.96843e-06 1.1945e-05 0)
(4.02894e-06 4.03159e-06 0)
(-1.08391e-12 6.40663e-12 0)
(7.65094e-11 1.64852e-08 0)
(7.33615e-07 1.43238e-05 0)
(2.75179e-06 2.77327e-05 0)
(-1.65189e-10 1.11515e-09 0)
(4.19952e-06 4.8217e-06 0)
(1.06952e-06 1.7547e-06 0)
(2.40988e-12 4.80126e-10 0)
(9.25867e-06 5.24464e-05 0)
(-1.55059e-05 0.000205208 0)
(1.71561e-05 0.000205209 0)
(-5.48318e-07 9.71403e-07 0)
(-1.99999e-06 2.50127e-05 0)
(4.24274e-06 1.20015e-05 0)
(1.13171e-05 0.000223271 0)
(8.17622e-07 1.07054e-05 0)
(-8.07636e-11 1.53981e-09 0)
(3.47473e-06 3.91974e-06 0)
(-1.90202e-11 1.14904e-09 0)
(-2.83868e-09 4.89189e-08 0)
(-4.48889e-06 4.49281e-05 0)
(-4.02419e-07 3.2517e-07 0)
(-5.95495e-07 1.20218e-05 0)
(-1.4554e-06 1.86167e-06 0)
(1.74355e-05 0.000213817 0)
(-1.57234e-05 0.000213864 0)
(3.88461e-06 0.000125853 0)
(8.50751e-06 0.000216257 0)
(-2.06124e-06 2.52828e-05 0)
(-2.6123e-07 2.47492e-07 0)
(2.189e-06 5.03717e-06 0)
(-3.02652e-08 1.09245e-07 0)
(3.98178e-06 2.58962e-05 0)
(-1.4282e-10 1.8548e-09 0)
(-2.57968e-06 5.8016e-06 0)
(-5.47015e-06 2.41594e-05 0)
(-2.8533e-06 1.25878e-05 0)
(1.2976e-06 1.07704e-05 0)
(-1.05452e-06 1.63957e-05 0)
(1.5165e-06 2.33174e-06 0)
(-1.46855e-07 3.59814e-06 0)
(1.18425e-05 0.00015643 0)
(2.13287e-06 1.38731e-06 0)
(3.69448e-06 7.9027e-06 0)
(-3.78388e-06 9.33111e-06 0)
(4.86324e-06 3.01131e-05 0)
(5.02273e-07 2.46597e-06 0)
(2.46708e-06 9.55891e-06 0)
(-1.66256e-06 7.30089e-05 0)
(-4.16606e-07 3.32122e-07 0)
(8.68744e-06 4.2258e-05 0)
(8.72321e-06 1.93457e-05 0)
(-5.32994e-07 4.65134e-07 0)
(-8.0431e-06 0.000163628 0)
(9.75273e-06 0.000163593 0)
(3.59677e-09 5.32519e-08 0)
(-2.406e-06 0.000191588 0)
(-8.83354e-07 5.20213e-06 0)
(3.18312e-11 1.06868e-09 0)
(5.08948e-06 1.3027e-05 0)
(-1.09869e-05 6.93397e-05 0)
(1.98342e-05 0.000246669 0)
(-1.82104e-05 0.000246691 0)
(-5.07436e-06 2.86534e-05 0)
(-1.72328e-12 4.81079e-10 0)
(3.15359e-07 8.96144e-06 0)
(-4.70325e-06 1.80318e-05 0)
(1.23573e-06 4.47758e-06 0)
(-6.03278e-06 5.82272e-05 0)
(-2.42805e-06 2.06192e-05 0)
(8.93476e-10 2.73646e-08 0)
(-5.30434e-11 4.30722e-10 0)
(1.14999e-06 1.50106e-05 0)
(8.01294e-06 8.81962e-05 0)
(2.17084e-06 0.000104706 0)
(-4.49061e-07 9.32156e-06 0)
(-1.85929e-11 1.10922e-09 0)
(-1.93576e-11 1.30747e-10 0)
(-4.47471e-06 1.80162e-05 0)
(-3.80061e-07 1.94831e-07 0)
(-1.21034e-05 0.000134485 0)
(1.21479e-06 4.56688e-07 0)
(2.26158e-06 4.17614e-06 0)
(-1.51669e-06 1.44413e-05 0)
(-1.88446e-10 1.26401e-09 0)
(-4.76577e-07 3.82614e-07 0)
(9.73028e-06 4.24313e-05 0)
(1.05669e-05 4.12093e-05 0)
(9.08649e-06 2.67816e-05 0)
(9.6889e-06 0.000156107 0)
(-4.74875e-06 0.000205739 0)
(5.78417e-06 7.60296e-05 0)
(1.51518e-06 5.72166e-06 0)
(1.94301e-06 9.1005e-06 0)
(8.15468e-06 2.04063e-05 0)
(-8.1221e-06 3.66441e-05 0)
(-3.02686e-06 8.97285e-06 0)
(-6.07697e-06 2.40432e-05 0)
(-1.43225e-12 3.68793e-11 0)
(1.30477e-09 2.93317e-08 0)
(2.98021e-07 1.48647e-06 0)
(-3.29522e-06 6.70998e-06 0)
(-3.15915e-09 8.69814e-08 0)
(-2.9073e-06 2.7428e-05 0)
(1.62737e-06 5.59607e-06 0)
(1.21547e-06 4.05891e-05 0)
(-8.00995e-11 1.47103e-09 0)
(-1.75394e-06 1.72577e-05 0)
(1.44613e-06 5.77826e-06 0)
(-1.44862e-06 3.1079e-05 0)
(-8.56758e-07 8.85601e-07 0)
(2.11918e-05 0.000216641 0)
(-1.95412e-05 0.00021664 0)
(1.04527e-05 0.000176512 0)
(1.50867e-05 7.47517e-05 0)
(-1.34362e-05 7.47529e-05 0)
(-4.48552e-06 1.69889e-05 0)
(-1.22398e-06 1.49384e-06 0)
(8.67465e-10 1.97402e-08 0)
(-2.83896e-06 1.13659e-05 0)
(8.18435e-06 1.75849e-05 0)
(-1.70789e-07 2.06251e-07 0)
(-7.20057e-10 5.20082e-09 0)
(-1.82365e-05 0.000195408 0)
(1.98871e-05 0.000195407 0)
(2.62283e-06 6.46968e-06 0)
(-1.46351e-06 8.63947e-06 0)
(7.70113e-07 6.49299e-06 0)
(4.50583e-06 1.13757e-05 0)
(3.63975e-06 2.45567e-05 0)
(4.41808e-09 5.15847e-08 0)
(1.96271e-06 1.55131e-06 0)
(-2.77048e-06 4.86725e-06 0)
(6.77672e-07 6.56752e-06 0)
(-6.77494e-07 5.18087e-06 0)
(1.36177e-05 8.25457e-05 0)
(-1.19698e-05 8.25347e-05 0)
(-4.32051e-09 4.33624e-08 0)
(4.20127e-06 4.89453e-06 0)
(-6.27413e-12 6.50044e-11 0)
(3.80545e-06 4.7471e-06 0)
(-5.24612e-11 5.55244e-10 0)
(2.7379e-06 1.09818e-05 0)
(3.29661e-06 2.4567e-05 0)
(9.49512e-08 -6.97114e-08 0)
(-6.52984e-06 1.75776e-05 0)
(-7.32407e-11 1.24518e-09 0)
(9.66669e-07 5.13086e-07 0)
(-6.09476e-07 4.89372e-07 0)
(2.838e-06 1.08881e-05 0)
(9.59983e-10 4.41867e-08 0)
(-7.48488e-06 0.000164607 0)
(9.15975e-06 0.000164602 0)
(-3.50238e-06 6.82544e-06 0)
(6.65686e-06 1.76606e-05 0)
(1.09271e-06 1.4965e-06 0)
(-3.0323e-06 5.45376e-05 0)
(4.33122e-06 5.25673e-06 0)
(-1.07523e-06 1.17186e-06 0)
(3.55923e-09 6.93615e-08 0)
(8.57814e-07 1.454e-05 0)
(6.43502e-07 7.8212e-05 0)
(1.47395e-10 5.55689e-09 0)
(-4.45862e-08 1.31668e-07 0)
(-1.7427e-06 4.35853e-06 0)
(-1.4778e-05 0.00018678 0)
(1.64277e-05 0.00018678 0)
(-5.28571e-07 1.89839e-06 0)
(-3.08484e-12 2.99377e-11 0)
(6.57904e-06 0.000180964 0)
(-3.56176e-07 7.17417e-06 0)
(-2.7426e-06 1.798e-05 0)
(-6.8788e-07 5.26949e-06 0)
(5.1777e-06 3.38586e-05 0)
(-4.56967e-07 3.92175e-07 0)
(-4.20763e-06 1.02436e-05 0)
(5.86423e-06 1.02477e-05 0)
(-1.4729e-06 3.91581e-06 0)
(-1.74766e-08 -7.8685e-09 0)
(1.61798e-09 3.64794e-08 0)
(-5.52492e-06 2.45483e-05 0)
(2.59498e-06 9.66386e-06 0)
(4.24725e-06 5.23419e-06 0)
(3.46197e-06 2.69859e-06 0)
(1.09184e-05 6.72777e-05 0)
(6.7729e-08 -4.77846e-08 0)
(-4.37181e-07 3.7491e-07 0)
(-1.38973e-06 1.19197e-05 0)
(-6.26444e-07 8.82266e-06 0)
(-4.4169e-06 4.438e-05 0)
(-5.40052e-06 2.89267e-05 0)
(3.18802e-07 4.20765e-06 0)
(-5.36572e-07 3.90947e-07 0)
(3.59571e-07 0.000201503 0)
(-8.74745e-08 2.23233e-06 0)
(4.602e-06 7.65916e-06 0)
(2.4733e-07 3.16194e-06 0)
(-8.34366e-08 1.40533e-07 0)
(-1.39173e-12 9.29269e-11 0)
(-8.37702e-07 2.94906e-06 0)
(-1.21523e-11 1.2693e-09 0)
(-2.74404e-06 1.24372e-05 0)
(-1.53457e-06 5.89024e-06 0)
(5.41678e-06 4.63576e-05 0)
(-5.09903e-08 1.22794e-07 0)
(-4.60367e-08 9.42311e-08 0)
(-1.95585e-05 0.00022244 0)
(2.12093e-05 0.00022244 0)
(-1.72448e-06 2.50509e-06 0)
(-4.0999e-07 5.20578e-07 0)
(-7.97736e-12 3.18195e-11 0)
(4.02421e-10 2.12568e-08 0)
(1.55104e-05 8.71782e-05 0)
(-1.39289e-05 8.7186e-05 0)
(-5.72624e-06 0.000100598 0)
(1.068e-10 5.57323e-09 0)
(2.91276e-06 9.8386e-06 0)
(-6.54127e-07 5.73755e-07 0)
(-3.90788e-06 7.69477e-06 0)
(3.53773e-06 1.20664e-05 0)
(-6.69903e-07 4.99564e-07 0)
(-2.04809e-06 1.69411e-05 0)
(1.51499e-07 -3.256e-08 0)
(-1.99923e-07 1.37088e-07 0)
(-1.69034e-07 1.84658e-07 0)
(-1.25345e-06 1.61829e-06 0)
(3.66721e-07 1.02518e-06 0)
(2.27875e-06 4.29536e-06 0)
(3.01613e-06 1.09488e-05 0)
(-8.61335e-12 1.19248e-10 0)
(-7.18893e-07 1.44797e-06 0)
(-1.26266e-06 1.54364e-06 0)
(-1.52676e-06 3.42855e-06 0)
(1.68949e-06 5.65901e-06 0)
(2.46799e-09 7.02158e-08 0)
(-1.16803e-05 6.91935e-05 0)
(2.78375e-08 4.6531e-05 0)
(5.47731e-06 0.00019715 0)
(-2.3428e-07 1.01713e-07 0)
(8.09985e-07 1.89416e-05 0)
(1.66647e-09 2.69313e-08 0)
(3.35739e-10 7.00253e-09 0)
(8.50557e-07 6.09846e-07 0)
(1.58718e-06 2.33863e-06 0)
(4.80749e-06 1.26002e-05 0)
(3.85759e-06 0.000130089 0)
(5.91082e-06 0.000266439 0)
(4.05799e-06 0.000301807 0)
(1.37148e-06 6.90607e-06 0)
(2.43794e-06 4.73427e-06 0)
(1.28057e-09 2.21221e-08 0)
(-1.00521e-06 1.06363e-06 0)
(4.26597e-06 4.50739e-06 0)
(3.05487e-06 9.89222e-06 0)
(-5.11916e-12 3.54415e-11 0)
(-1.01382e-07 2.31558e-05 0)
(1.32375e-06 6.8135e-06 0)
(-1.27731e-07 1.8367e-07 0)
(3.35126e-06 4.77048e-05 0)
(4.06711e-06 6.53453e-05 0)
(4.10839e-07 1.19058e-05 0)
(7.98392e-06 2.05038e-05 0)
(2.19528e-06 4.13864e-06 0)
(-2.62551e-10 2.36015e-09 0)
(-2.93019e-06 1.81437e-05 0)
(-2.71387e-10 2.452e-09 0)
(1.01441e-05 8.1744e-05 0)
(2.0951e-06 4.74198e-06 0)
(-2.03805e-06 3.08281e-05 0)
(3.43186e-06 7.32768e-05 0)
(1.00065e-10 3.41763e-09 0)
(-9.06807e-12 3.12426e-11 0)
(1.19641e-06 8.28874e-06 0)
(-9.73927e-10 8.4027e-08 0)
(1.99918e-06 3.8789e-06 0)
(-1.55047e-06 8.57416e-06 0)
(-2.23133e-06 9.18401e-06 0)
(-4.39071e-06 1.7489e-05 0)
(-1.41163e-05 0.000273504 0)
(1.58792e-05 0.000273518 0)
(2.96408e-06 4.33004e-06 0)
(5.11837e-09 4.67327e-08 0)
(-1.21948e-06 2.74709e-06 0)
(4.68727e-06 7.60961e-06 0)
(-7.1258e-09 9.30841e-08 0)
(3.40367e-06 1.20724e-05 0)
(-1.08894e-06 1.17749e-06 0)
(-5.55507e-07 3.81116e-07 0)
(-1.19102e-06 1.16388e-05 0)
(3.92462e-07 7.8911e-05 0)
(-1.95621e-10 4.50579e-09 0)
(-3.98948e-06 7.87492e-06 0)
(-6.71649e-06 6.85967e-05 0)
(-2.05991e-07 2.24197e-07 0)
(1.22585e-06 1.38554e-06 0)
(-3.50596e-06 1.13501e-05 0)
(1.54255e-07 -5.96568e-08 0)
(5.16581e-06 1.1351e-05 0)
(-3.99056e-12 2.57363e-11 0)
(-6.25884e-06 1.60925e-05 0)
(1.32166e-06 4.33172e-06 0)
(-7.52251e-06 0.000233109 0)
(9.76214e-06 3.62459e-05 0)
(1.17464e-06 5.57882e-06 0)
(-1.73144e-07 1.90531e-07 0)
(-5.6911e-06 0.000275698 0)
(-1.54557e-12 1.48102e-11 0)
(3.78314e-09 3.37722e-08 0)
(-2.89799e-07 2.37982e-07 0)
(1.54511e-07 3.92151e-06 0)
(1.69172e-06 8.12747e-06 0)
(-3.31958e-06 7.23001e-05 0)
(5.8152e-06 9.40481e-06 0)
(3.43246e-12 1.07828e-10 0)
(-8.83372e-06 9.69821e-05 0)
(-9.48646e-10 2.55663e-08 0)
(-1.48405e-06 8.78926e-06 0)
(5.68657e-07 2.56841e-05 0)
(6.88927e-06 2.73641e-05 0)
(1.1183e-05 7.67674e-05 0)
(-9.53256e-06 7.67685e-05 0)
(1.0377e-05 0.000108848 0)
(-8.70874e-06 0.000108835 0)
(-5.93989e-12 5.92958e-11 0)
(-3.18968e-06 0.000136314 0)
(4.46367e-11 6.08807e-10 0)
(6.37712e-06 0.000130821 0)
(-9.89935e-07 1.91708e-05 0)
(3.97168e-06 3.86432e-06 0)
(4.85864e-06 2.79163e-05 0)
(1.86659e-09 7.92392e-08 0)
(3.67421e-06 3.27954e-06 0)
(1.09345e-06 6.28058e-07 0)
(3.19851e-06 5.45056e-06 0)
(7.03651e-06 3.28184e-05 0)
(1.99395e-05 0.000215896 0)
(-1.82889e-05 0.000215895 0)
(1.32805e-06 4.26279e-06 0)
(1.31871e-11 3.25798e-10 0)
(2.73588e-11 5.33161e-10 0)
(1.2179e-07 -5.99841e-08 0)
(4.17001e-06 4.33719e-06 0)
(-1.1905e-05 7.4068e-05 0)
(1.35556e-05 7.40669e-05 0)
(-1.83277e-06 4.56505e-05 0)
(3.34287e-07 2.31527e-06 0)
(-6.42736e-07 6.1765e-07 0)
(1.55668e-05 8.79357e-05 0)
(-1.39189e-05 8.79576e-05 0)
(1.09678e-05 8.06457e-05 0)
(5.03749e-07 8.83073e-06 0)
(2.00536e-06 7.29159e-06 0)
(1.11879e-05 0.000108612 0)
(-9.51938e-06 0.000108599 0)
(-2.07288e-06 8.36082e-05 0)
(3.98323e-13 3.94345e-11 0)
(1.20833e-06 1.44179e-06 0)
(1.35716e-06 1.52189e-06 0)
(-2.73282e-10 3.08744e-09 0)
(2.02913e-06 0.00020513 0)
(-2.37749e-06 5.84072e-06 0)
(4.48412e-06 6.2406e-05 0)
(-3.44083e-06 7.53733e-05 0)
(1.05734e-05 0.000121324 0)
(-8.92187e-06 0.000121378 0)
(-1.23722e-12 8.24787e-12 0)
(5.21306e-06 3.45096e-05 0)
(9.04706e-06 4.31722e-05 0)
(-1.12178e-06 1.90953e-06 0)
(-1.79482e-06 1.69966e-05 0)
(1.04185e-06 2.1602e-05 0)
(-5.06892e-11 5.03497e-10 0)
(7.06575e-06 1.64487e-05 0)
(-3.85122e-06 7.50634e-06 0)
(4.63221e-07 2.40977e-06 0)
(-2.24831e-10 2.45822e-09 0)
(-6.73419e-07 5.93576e-07 0)
(-1.05661e-06 2.84743e-06 0)
(-4.64793e-08 1.33988e-07 0)
(-3.53759e-06 9.62262e-05 0)
(1.46829e-06 1.4625e-06 0)
(-1.03142e-07 1.48794e-07 0)
(1.47768e-09 2.33305e-08 0)
(2.70164e-06 2.8028e-05 0)
(-2.9606e-06 8.41971e-06 0)
(-1.89471e-06 3.87922e-06 0)
(-3.3685e-11 6.38916e-10 0)
(1.82669e-06 2.28834e-06 0)
(-6.844e-10 3.78914e-08 0)
(-1.79609e-06 3.82174e-06 0)
(2.48056e-06 4.80735e-06 0)
(4.96555e-06 0.000131283 0)
(-9.3357e-12 1.05624e-10 0)
(3.85143e-06 3.92107e-06 0)
(-1.87766e-05 0.00022379 0)
(2.04276e-05 0.00022379 0)
(2.86241e-10 9.21854e-09 0)
(-4.60591e-06 1.74859e-05 0)
(5.79684e-07 1.22226e-07 0)
(4.95049e-06 0.000264485 0)
(3.03595e-07 9.18121e-07 0)
(-4.74033e-09 4.6145e-08 0)
(-3.52515e-06 7.3006e-05 0)
(-1.23951e-09 1.81855e-08 0)
(-1.8404e-11 1.15666e-10 0)
(3.04231e-06 2.20579e-05 0)
(6.87255e-06 2.48411e-05 0)
(3.57891e-07 -1.48098e-08 0)
(3.09182e-06 1.90521e-05 0)
(-6.11408e-06 2.58638e-05 0)
(9.8708e-06 4.19126e-05 0)
(-6.17387e-07 7.63133e-07 0)
(-5.90148e-06 2.50547e-05 0)
(5.66026e-12 3.29309e-10 0)
(4.02689e-06 7.39187e-05 0)
(-8.25567e-07 1.88918e-05 0)
(-7.92544e-06 2.50063e-05 0)
(6.86988e-07 1.07868e-06 0)
(3.72952e-06 2.20347e-05 0)
(-7.58109e-08 3.60405e-06 0)
(1.40713e-10 3.42976e-09 0)
(-8.63389e-06 6.60447e-05 0)
(-2.28451e-06 5.84697e-06 0)
(2.22014e-06 4.32267e-06 0)
(5.82291e-07 2.49996e-06 0)
(7.05737e-06 2.0427e-05 0)
(1.0052e-05 4.09347e-05 0)
(-4.23195e-06 2.09789e-05 0)
(1.10743e-05 4.10955e-05 0)
(-1.74157e-08 9.65902e-08 0)
(-2.08433e-06 1.15034e-05 0)
(4.73305e-06 3.14748e-05 0)
(-1.02251e-10 6.21508e-10 0)
(-1.28635e-06 0.0001236 0)
(-5.02757e-08 5.94818e-08 0)
(1.08582e-05 8.13138e-05 0)
(6.84514e-06 2.76459e-05 0)
(7.9177e-07 1.92444e-05 0)
(1.54899e-11 3.40014e-10 0)
(-6.1138e-07 2.86777e-05 0)
(-4.1259e-06 4.06998e-05 0)
(8.42927e-06 5.11341e-05 0)
(-6.09241e-08 1.21568e-07 0)
(-4.01841e-06 8.74963e-06 0)
(-3.50976e-07 2.31365e-07 0)
(-6.11455e-06 6.80478e-05 0)
(-1.12349e-07 -2.53051e-08 0)
(-1.58644e-07 6.40879e-06 0)
(-4.0599e-06 4.65569e-05 0)
(-6.55566e-10 2.17667e-08 0)
(-1.00981e-06 7.33155e-05 0)
(-6.84504e-06 4.15473e-05 0)
(-1.21241e-06 1.50271e-06 0)
(-2.78287e-12 2.42637e-11 0)
(-2.72489e-06 6.45032e-06 0)
(-7.16905e-06 3.09214e-05 0)
(-5.99208e-07 7.81577e-07 0)
(1.51763e-09 3.00725e-08 0)
(-1.33458e-06 2.81109e-06 0)
(2.04839e-06 1.59832e-06 0)
(-1.63121e-05 0.000118172 0)
(1.79595e-05 0.000118172 0)
(3.44628e-06 1.77443e-05 0)
(2.18649e-06 1.44997e-05 0)
(1.1158e-06 8.56486e-06 0)
(1.2523e-06 9.11691e-06 0)