/*--------------------------------*- C++ -*----------------------------------*\
| =========                 |                                                 |
| \\      /  F ield         | OpenFOAM: The Open Source CFD Toolbox           |
|  \\    /   O peration     | Version:  v3.0+                                 |
|   \\  /    A nd           | Web:      www.OpenFOAM.com                      |
|    \\/     M anipulation  |                                                 |
\*---------------------------------------------------------------------------*/
FoamFile
{
    version     2.0;
    format      ascii;
    class       volScalarField;
    location    "3000";
    object      sigmaEq;
}
// * * * * * * * * * * * * * * * * * * * * * * * * * * * * * * * * * * * * * //

dimensions      [1 -1 -2 0 0 0 0];

internalField   nonuniform List<scalar> 
24076
(
5.38078e+07
732243
11034.1
10935
1.29188e+07
842092
753003
5.71326e+07
1431.01
4.87249e+07
3.29874e+07
4.73089e+07
2.76682e+07
1.07637e+07
5.81887e+07
5.14365e+06
3.10777e+07
3.15831e+07
4.46577e+06
7.46556e+06
5.72962e+07
2.97977e+07
1.06211e+06
3.34234e+07
9.92022e+06
3.56033e+06
5.83429e+06
842419
5.83969e+06
1.17125e+07
9.83284e+06
213046
2.1471e+07
1.90918e+07
2.48486e+07
4.18408e+07
2.6501e+07
3.17611e+07
3.2026e+07
5.82494e+07
1.98533e+07
6.7274e+06
2.15457e+07
1.66221e+07
3.91273e+07
5.64488e+07
1.04723e+06
1.45244e+07
6.20456e+06
4.18042e+07
28712.9
4.45361e+06
3962.62
919889
1402.57
2.37589e+07
1.13581e+07
5.98052e+07
4.37749e+06
2.78364e+07
5.66484e+07
654779
6.74526e+07
3.89598e+07
2.27968e+07
5.67237e+07
1.84112e+07
1.92981e+07
587084
1.70655e+07
4.52773e+06
1.51983e+06
4.2506e+07
179665
1.87321e+07
1.07936e+07
3.13086e+07
4.09691e+07
3.79412e+07
6.84385e+07
997838
1.37317e+07
1.69479e+07
8.09518e+06
1.29897e+07
3978.57
1.11961e+07
3.41528e+07
4.3077e+06
7.83762e+06
1.3874e+07
4.49983e+06
3.21805e+07
1.21338e+07
7.51166e+06
3.05388e+07
7.41517e+06
6.38638e+06
205034
1.92509e+07
1.59478e+07
2.44009e+07
8.2256e+06
3.89895e+07
1.11943e+07
2.15567e+07
60111.7
1.27265e+06
4.97747e+07
1.93663e+07
5.3084e+06
1.08158e+07
2863.81
696879
8.55278e+06
27340.3
2.85191e+07
1.63617e+07
6.34945e+06
2.15875e+07
5.53572e+06
3.55192e+07
2.14868e+07
5.65081e+07
3.70644e+07
3.26504e+07
4.96264e+07
3.01449e+07
1.13033e+07
134664
3.53917e+07
2.05839e+07
1.61445e+07
1.09328e+06
3.31912e+07
5.79242e+06
4.40269e+06
2.27067e+07
3.47425e+06
6.78686e+06
9.81475e+06
2910.52
5.18389e+06
5.54391e+06
1.65884e+07
9.77649e+06
1.45496e+07
2.0529e+07
3.75787e+06
64882.8
4.58345e+07
920.421
3.2388e+07
1.94917e+07
3.75555e+07
7.3371e+06
5.5699e+07
1.04486e+07
5.68704e+06
17235.6
8.91797e+06
1314.97
6.04039e+07
6.38707e+07
4.58557e+06
2.377e+07
2.37437e+07
2.52608e+07
3.09582e+07
1.67788e+07
2.41282e+07
1.1594e+06
6.23999e+06
1.70013e+07
3.74439e+07
3.72892e+07
3.58031e+07
3.53786e+07
5.38706e+07
5.08103e+07
6.53837e+07
436355
2.70567e+07
1.02632e+07
1.10589e+07
8.73308e+06
3.11579e+07
2.55839e+07
4.31633e+07
2.21513e+07
235993
3.34233e+07
1.43993e+07
3.03871e+07
1.94739e+07
5.49668e+07
879489
3.23168e+07
3.25368e+07
5.48787e+07
2.66387e+07
2.32013e+07
1.94418e+07
1.949e+07
4.45753e+06
1.56704e+07
5.17613e+07
2.97656e+07
4.94182e+07
1.00527e+07
1.46472e+06
5.35683e+06
2.48256e+06
4.48362e+07
1446.3
5.77782e+06
5.65797e+06
5.75257e+07
3.72475e+06
3.78928e+06
5.77313e+06
6.31342e+07
6.62694e+07
2.66376e+07
5.49275e+07
33000.6
18160.2
3.46838e+07
32111.2
8.42482e+06
16778.4
3.23557e+07
33310.8
542127
9.48668e+06
1.38711e+07
2.11722e+07
1.9921e+07
2.20932e+07
5.21024e+07
5.1864e+07
1.37363e+07
2.27535e+07
2.24879e+07
4.23392e+07
4.22211e+07
2.92609e+07
5.80622e+07
5.79136e+07
3.03151e+07
2.33348e+07
8.92674e+06
8.5218e+06
5.61057e+07
4.15745e+07
4.17187e+07
486199
185913
2.38985e+06
7.29635e+06
1.99619e+07
6.82227e+07
3.79826e+07
126.872
3.31495e+07
1.2563e+07
5.25799e+07
6.53687e+06
3.05377e+07
7563.01
1.87049e+07
1.89491e+07
5.42519e+07
6.04208e+06
8.23779e+06
2.72668e+07
3.34069e+07
1.18354e+06
4.58049e+07
5.89261e+07
47239.7
3.41861e+06
2.77787e+06
3.91367e+06
4.32026e+06
2.19108e+07
499476
4.19399e+07
7.25251e+07
2.73133e+07
7.70612e+06
5.1522e+07
1.79292e+07
1.58135e+07
2.18006e+07
2.17482e+07
3.56889e+07
12394.1
87225.5
2.32337e+07
2.79139e+07
2.82099e+07
2.21134e+07
2.21042e+07
2.03888e+07
2187.31
5.63706e+06
3.61502e+07
1.37134e+07
7.94559e+06
1.46212e+07
2.94092e+06
1239.79
3.54147e+07
2.53917e+07
6.5441e+07
2.2781e+07
435974
5.87093e+07
6.946e+06
2.7728e+07
5.46009e+07
3.19229e+07
579537
923623
3.48795e+07
2.9797e+07
2.9795e+07
4.88227e+07
9.78778e+06
1.57136e+07
3.52819e+07
3.53662e+07
6.12065e+06
2.46194e+07
4.63813e+07
2.94469e+07
942510
4.76635e+07
2.10717e+07
6.94068e+07
4.22945e+06
447206
2.22059e+07
4.96382e+06
3.4882e+07
4.73786e+06
8.2877e+06
6.54707e+06
4.49696e+07
2.75107e+07
6.01186e+06
3.48952e+07
6.37791e+06
5.67537e+07
2.06045e+07
3.12957e+07
6.63996e+06
1.54904e+07
1.40125e+07
3.89949e+06
4.49549e+07
2.1169e+07
793281
6.63302e+07
1.68643e+07
1.22296e+07
4.0201e+07
3.64493e+07
5.30508e+06
5.93256e+07
1.66241e+07
5.6425e+07
2.7256e+06
5.53962e+07
5.52929e+07
66105.7
2.73417e+07
2.73484e+07
4.8081e+06
1.77739e+07
1.03517e+07
2.70389e+07
1.52869e+07
3.3274e+07
353820
2.45253e+07
1.11095e+06
8739.37
4.78376e+07
6.86167e+06
2.00969e+07
2.01534e+07
8.4781e+06
3.10524e+07
5.48095e+07
5.49065e+07
5.23028e+07
2.83158e+07
1.92465e+07
4.15857e+07
2.48962e+07
7420.53
1.89044e+07
5.81153e+07
2.01478e+07
2.01868e+07
1.74117e+07
5.76635e+06
6.86857e+06
6.23522e+07
4.80119e+07
8520.05
5.54933e+06
7.60547e+06
2.18445e+07
1.61038e+07
2053.77
7.36011e+07
2.38758e+07
2.39187e+07
3.37874e+07
3.38451e+07
1.70971e+07
5.58832e+06
2.66124e+07
1.84079e+07
3.31119e+07
1.53914e+07
4.43867e+06
4.57863e+07
2.10823e+07
9.79854e+06
7.16224e+06
1.67409e+07
1.73836e+07
858478
6.61972e+06
1.89944e+07
2.46988e+07
252623
2.682e+06
4.3249e+07
2.78844e+07
3.79638e+06
6.47966e+07
805527
4.57992e+07
2.24774e+07
1.47372e+07
8.29859e+06
2.25942e+07
9.55925e+06
3.81203e+07
3.16328e+07
110869
6.50567e+06
582187
690861
8.32715e+06
1.03738e+07
5.15574e+07
3.61651e+07
59276.7
2435.9
3.20132e+07
3.24897e+07
3.31795e+07
623750
3.68697e+07
2516.86
4.01929e+06
3.1613e+07
4.594e+07
2.38804e+07
2.34132e+07
4.93708e+07
2.47825e+07
36803
2.67355e+07
2.56561e+07
2.57139e+07
2.65457e+07
6.52644e+07
2.6472e+07
2.21428e+07
2.09911e+07
6.44894e+07
1.98647e+07
2.90526e+07
3.20457e+07
3.20344e+07
2.24838e+06
6.25077e+07
3.4856e+07
1.39173e+07
268177
2.47777e+07
93632.4
2.37654e+07
2.31863e+07
5.63565e+07
7578.01
3.91844e+06
1.88432e+06
1.42943e+07
1.62195e+07
3.85226e+07
7.09132e+07
4.15677e+07
4.80351e+07
6.55825e+06
1.55841e+07
3.92625e+07
523.98
4.96721e+07
1.32375e+07
2.22111e+06
4.27323e+07
1.55617e+07
8.43249e+06
5.02786e+06
4.3915e+07
178916
1.60779e+07
174229
5.68075e+06
1.31813e+07
1.32084e+07
2.64003e+07
659919
6.23061e+07
609206
3.89463e+07
2.48324e+06
2.48972e+06
3762.59
1.46719e+06
6.65086e+07
2.51197e+07
5.11418e+07
5.6017e+06
8.55971e+06
1.17112e+07
12128.1
5.00714e+06
1.57923e+07
1.57659e+07
12480.1
45582.9
2.48235e+07
9.98674e+06
1.01347e+07
4.11147e+07
7.8782e+06
34062
8.30166e+06
3.82205e+07
2.87949e+06
3.75518e+07
3.74704e+07
5.52589e+07
5.53675e+07
6.36031e+07
657.432
354547
3.32286e+06
1.27385e+07
90062.6
6.05604e+07
1.86893e+07
9784.04
3.49261e+07
1.5371e+07
1.54109e+07
1.9511e+07
2.04794e+07
3.52965e+07
9.85254e+06
4.08022e+06
40646.1
5.45794e+07
25277.9
1.55416e+06
2.4462e+07
1.66034e+07
1.59562e+07
7.0399e+07
1.43081e+07
1.42039e+07
8.70182e+06
6.96809e+06
1.93914e+07
1.16361e+07
2.55665e+07
1.71416e+06
2.19721e+07
58583.3
5.64344e+07
4.41365e+07
3.70934e+07
7.07802e+06
1.67574e+07
2.40444e+07
1.25979e+07
1.78771e+07
4.68747e+07
3.84596e+07
5.75829e+07
2.58997e+07
6.54494e+06
2.03058e+07
9.38295e+06
1.74069e+07
3.80186e+07
6.15052e+07
3.0116e+07
1.21621e+07
1.2165e+07
955454
6.06124e+06
2.57012e+07
21578.7
4.41899e+07
3.9497e+07
1.35678e+07
1.35499e+07
3.71258e+07
10640.1
6.51488e+06
4.72262e+07
1.1679e+07
2.56652e+07
2.54297e+07
572107
22588.9
4.42345e+06
2.11142e+07
4.83255e+06
1.51882e+07
25829.3
10808.6
4.31105e+07
1.50811e+07
2.5459e+07
3.29774e+07
3.0332e+07
2.16856e+07
99879.9
2.04876e+07
4.41092e+07
4.80137e+07
5.36507e+07
1.29859e+07
7.29437e+06
1.50743e+07
1.36808e+07
1.56786e+07
5.65589e+07
4.80959e+07
4.99678e+07
4.93541e+07
152.367
578405
9.93532e+06
6.38064e+07
1.47052e+06
2.35223e+07
1.62545e+07
3.2528e+06
40530.7
2.28321e+07
1.24911e+07
1.30801e+07
3.13762e+07
1.72054e+07
1.71811e+07
1.21452e+07
4.33927e+07
4.34076e+07
4.73471e+07
5.20471e+07
390721
3.97066e+07
6.27644e+07
8.2358e+06
481723
2.14406e+07
2.14925e+07
2.78271e+07
2.97308e+07
2.75035e+06
3.9625e+07
2.09486e+07
889129
4.02794e+07
7.16334e+07
3.96763e+06
2.30194e+07
3.85109e+07
3.84105e+07
1.79205e+06
6.18543e+07
2545.02
5.3935e+07
20623
2.1685e+07
1.60317e+07
9.64319e+06
6.27812e+07
34714.1
2.45114e+07
2.15983e+07
2.2024e+07
986890
1.32512e+07
1.31045e+07
6.6399e+07
5.00042e+07
2.29301e+07
1.54073e+07
6.15629e+07
5.89062e+07
1.16316e+06
4.01948e+06
5.32067e+06
108036
3.05093e+06
4.83281e+07
1.74761e+07
1.76313e+07
1.93132e+07
1479.8
8.48303e+06
1.60654e+07
3.04581e+07
2.27619e+07
2.33323e+07
2.54504e+07
5.99488e+07
6.01357e+07
4.23134e+07
5.80131e+06
746785
4.33074e+07
2.11353e+07
5.88324e+07
6.37239e+07
3.36337e+07
9.63229e+06
2.38347e+07
2.3296e+07
1.98171e+07
2.50544e+07
3.80427e+07
4.87996e+06
2.09728e+07
4.60435e+06
1.0144e+07
5.23619e+07
4.62389e+06
3.48928e+06
2020.6
2.76644e+07
28345.9
3.84858e+07
3.64339e+07
2.2633e+07
2.42895e+06
5.0856e+06
1.64893e+07
1.6533e+07
7.24609e+07
1.47738e+07
63.6902
443368
4.14983e+07
4.16254e+07
1.57971e+07
114529
2.46279e+07
3.51182e+07
6.54065e+07
2.98531e+07
2.48448e+07
2.60848e+07
1.8464e+07
1.202e+07
9.12873e+06
5.0854e+07
1.17302e+07
3.03905e+07
2.5648e+07
3828.67
2.52305e+07
5.74923e+07
4.57362e+07
1.54348e+07
1.21946e+06
4.33583e+07
4.76777e+06
6.20574e+06
1.35962e+07
4.93138e+06
504883
134583
2.19532e+07
2.71248e+07
4.21574e+07
7.47903e+06
4.2196e+06
4.0482e+06
8.86094e+06
3.17357e+07
418253
5.56164e+07
6.62899e+07
2.75612e+07
3000
8.17844e+06
9.91321e+06
6.184e+06
1.13669e+07
1.07148e+07
5.84732e+06
5.50497e+07
2.92135e+07
102589
3.13611e+07
110897
2.85263e+07
2.57607e+07
1.73661e+07
9.23205e+06
68695.5
73.4998
7.27927e+06
1.3615e+06
2.62129e+07
3.04285e+07
3.81944e+07
4.3414e+07
7.23795e+06
7.3273e+06
4.14181e+07
788370
4.05809e+07
5.47987e+07
1.5106e+06
2.65797e+07
5.54071e+07
2.03608e+07
2.24113e+07
3.61526e+06
114946
6.66384e+07
2.47271e+07
9.59156e+06
2.39232e+07
4.86404e+07
1.02524e+07
4.86549e+07
3051.19
6.36035e+07
1.4374e+07
7.51899e+06
4.74806e+07
8.37503e+06
7.53384e+06
4.60009e+06
1015.19
605048
1.33434e+07
6.3333e+06
1.34823e+07
1.51936e+07
6.20023e+07
2018.04
2.39482e+07
786395
2.96426e+07
5.08748e+06
3.81353e+07
3.25511e+07
3.25878e+07
2.13621e+07
2.1444e+07
2528.25
8.90793e+06
11186.5
1.10805e+07
1.41534e+07
6.39432e+07
2.48035e+07
1.13296e+06
6.4173e+07
2.79942e+07
4.10113e+07
3.6108e+07
1.77718e+07
1.77821e+07
1.37949e+07
6369.33
10202
9.62383e+06
6.53385e+07
3.88393e+07
3.87885e+07
1.14597e+07
5.44936e+06
2.10924e+07
4.15772e+07
4.18708e+07
3.01405e+07
5.50824e+06
1.87632e+07
2.53039e+07
2.53607e+07
1.07604e+07
500.41
2.52964e+07
2.79224e+07
111404
4.55765e+06
5.3987e+07
1.50354e+07
1.48613e+07
2.13147e+07
2.11324e+07
670.138
2.3393e+07
4.04009e+07
3.96321e+07
2.22018e+07
5.27139e+06
21064.8
5.36412e+07
6.52075e+07
7.26225e+06
90139.4
2.35966e+07
3.34973e+07
3.54215e+06
1.32722e+07
2.91116e+07
4.28161e+06
448080
1.28742e+07
5.07907e+07
5.50507e+07
17338.7
3.05531e+07
1.05252e+06
5.12582e+07
3.05823e+07
7.93711e+06
3744.61
6.04069e+07
1.71277e+07
1.71833e+07
183505
4.70611e+07
2.05751e+07
4.6945e+06
1.11369e+07
1.76311e+06
1.37157e+07
746528
13130.8
1.67969e+07
4.22437e+07
1.66486e+07
1.71695e+07
4.69277e+07
4.28317e+07
2.03238e+07
4.51599e+07
6611.55
9.86657e+06
1.51196e+07
6.06148e+07
1.66959e+07
2.04907e+07
9.63923e+06
65469.3
3.31483e+07
4.99919e+07
2.87626e+07
6.82437e+06
4.76887e+07
4.52798e+07
3.76897e+07
5.17308e+07
2.49751e+06
3.16016e+07
2.41629e+07
72625
6.94841e+06
1.04736e+07
3.06633e+07
3.93967e+07
2.7392e+06
6349.29
1.00004e+07
2.51956e+07
3.33847e+07
2.37058e+06
6.23656e+07
1.45674e+07
2.40398e+07
9.06592e+06
1.42395e+07
2.34655e+07
614581
8.63109e+06
3.65819e+07
5.23958e+07
1509.95
5.63636e+07
4.63459e+07
2.06875e+07
592354
4.26885e+07
4.09898e+07
3.53139e+07
3.52108e+07
2.30147e+07
1.32495e+07
6.63738e+06
5.56915e+06
5.68998e+07
3.73845e+07
2.07652e+07
2.0787e+07
755501
2.05577e+07
6.99629e+06
90856.1
4.51668e+07
50750.9
4.50977e+06
14669.1
2.20184e+07
3.66727e+06
4.51467e+07
4.66381e+06
2.87977e+07
3.04419e+07
1.33237e+07
550645
21210.6
5.55007e+07
5.48147e+06
4.06915e+06
1.34672e+07
1.04161e+07
4.56965e+07
4.34504e+07
4.86961e+07
548821
5.51223e+06
1.15889e+07
1.35027e+07
5.21827e+06
1.50426e+07
1.10436e+07
1.51686e+07
3.67764e+06
7173.52
4.17843e+07
1.87635e+07
1.90635e+07
1.86693e+07
4.34716e+06
2.98669e+07
8.42986e+06
3.64772e+07
6.28917e+07
9.77989e+06
4513.57
6.42252e+06
3.36005e+06
4.54726e+07
5.21179e+07
2.02416e+07
3.81213e+07
3.13424e+07
2.86485e+07
57797.1
1.95732e+07
1.05081e+07
488572
239572
4.56795e+06
4.80365e+07
93251.1
8.43757e+06
4.76614e+07
3.47455e+07
6.59438e+06
2176.19
1.87192e+07
2.27805e+07
3.31317e+07
2.5483e+07
22505.2
3.12221e+07
1.35086e+07
1.87255e+07
8.64878e+06
3.37212e+07
4.2214e+07
3.33162e+07
4.55138e+07
1.82173e+07
58476.3
7.73236e+06
1600
1.25873e+07
1.57624e+07
4.18369e+06
4.68008e+07
6.15365e+07
2.83334e+07
5.90789e+07
850337
9.68312e+06
605607
3.69541e+07
4.76662e+07
2.41413e+07
1.18782e+07
1.20698e+07
3.84989e+07
7422.85
1.29302e+07
272006
1.78677e+07
1.6069e+07
6.83947e+06
3.52365e+06
9.45375e+06
5.73639e+06
2.31123e+07
2.13967e+07
3.96043e+07
3.9592e+07
2.04852e+07
2.04112e+07
1.0025e+07
1.79941e+07
19768.6
3.58187e+07
2.08986e+07
245634
66329.6
4.14185e+07
2.02604e+07
5173.43
1.27081e+07
1.29861e+07
2.44935e+07
6.29905e+07
1.52348e+07
2.05832e+07
3.46043e+07
2.51941e+07
3.65637e+07
3.12678e+07
14028.8
59862
2.23111e+07
9.57108e+06
5.20376e+07
5.47514e+07
65973.7
2.28754e+07
2.54092e+07
2.54366e+07
2.28592e+07
2.87106e+07
3.50322e+06
46072.6
9.58891e+06
3.96274e+07
552989
773776
2.6343e+07
5.71366e+06
3.63653e+07
3.6371e+07
38363.4
402248
4.32803e+06
4.50597e+07
1.28968e+07
2.74441e+07
5.28494e+07
3.58128e+07
1.0872e+06
3.56228e+07
7.76403e+06
784030
90255.6
183395
2244.64
5.66407e+06
8.92174e+06
618341
1.49757e+06
3.27882e+07
1.02038e+07
1.05631e+07
1.97849e+07
5.36062e+06
3.2217e+07
5.38592e+06
5.48583e+07
5.49815e+07
3.81311e+07
5.28977e+06
2.16794e+07
2.72734e+07
5.00634e+07
3.04568e+06
2.92776e+06
4.01608e+06
4.79856e+07
1.89068e+07
3.61843e+07
1.05332e+07
1.01813e+07
2.89254e+07
4.49595e+07
2.75363e+07
4.37695e+07
1.47206e+07
1.46236e+07
3.10152e+07
5.57363e+06
2.32187e+07
8.38269e+06
2.05758e+07
679.153
6.55226e+06
4.95574e+07
13008.7
1.96721e+07
4.48048e+06
3.61997e+07
8.84486e+06
9.34997e+06
3.32489e+07
11084.3
3.53323e+07
4.96596e+07
3.37767e+07
9.21364e+06
50121.1
1.99476e+07
4.59013e+06
6.53289e+07
4.50052e+06
4.77723e+07
2.09272e+07
8.9807e+06
162143
1.75671e+06
1.76005e+06
3.78869e+07
8.68208e+06
1.47119e+07
3.77708e+07
3.94064e+07
4.02757e+07
3.77167e+07
3.48637e+07
17557.3
4.76197e+07
4.44968e+06
1.11154e+07
4.36104e+06
5.08231e+06
4.69953e+06
2894.17
6.48228e+06
1.85195e+06
2.16803e+06
2.37096e+07
5.47042e+07
27403.1
1405.88
2.8669e+06
501621
3.62274e+07
2.67902e+07
4.98668e+06
5.77683e+07
4.25942e+06
3.77411e+07
8.46124e+06
3.35057e+07
1.19101e+07
1.84001e+07
1.60288e+07
2.14741e+07
5.33653e+07
2.4586e+07
5.98645e+07
1.86491e+07
5.24519e+07
4.62453e+07
425013
4.59207e+07
1.08849e+07
1.88989e+07
9.44997e+06
2.00902e+07
4.80502e+06
3.59004e+07
2.78797e+07
95755
4.36386e+07
3.14703e+07
5.28958e+07
1019.89
2.54958e+07
1.15135e+07
6.31749e+07
1.15879e+07
6.26873e+07
5.29993e+07
6.7456e+06
1.4961e+07
4.05312e+07
285329
1.65041e+07
2.56224e+06
618229
4.49482e+07
1.15935e+07
4.03766e+06
3.79565e+07
3.09593e+07
3.06458e+07
1.21876e+07
9.29272e+06
3.19658e+07
4.83567e+07
6.22192e+07
5.73682e+07
3.35343e+07
6.19896e+07
223987
4.08213e+07
5.42074e+07
9.48847e+06
3.32066e+06
5.78506e+07
1.07153e+07
2.95517e+07
6.77882e+07
6.98937e+06
1.1405e+07
6.67114e+07
1.4403e+07
1.5485e+07
6.78575e+06
4.27148e+07
8.26584e+06
1.52224e+07
4.06844e+07
374017
9.80448e+06
1.25948e+07
1.26652e+07
1.38995e+07
3.12639e+07
3.50309e+07
4.33592e+06
1.07741e+07
4.99947e+07
3.5629e+07
559864
612232
3.73046e+06
1.18996e+06
5.76145e+07
4.64245e+07
4.37832e+07
8.04524e+06
4.72078e+07
2.03072e+07
2.38022e+07
458667
3.7293e+07
2.79021e+07
1.73135e+07
5.67415e+07
1.2831e+07
5.68477e+07
1.634e+07
4.47731e+06
5.26054e+07
2.40979e+07
1.55404e+07
2.3153e+07
2.15112e+07
3.24826e+07
1.51301e+07
20440.6
2.60409e+07
3.92885e+07
3.67612e+07
470.49
3.95272e+06
3394.75
1.90773e+07
2.29287e+07
184095
2.33845e+06
291107
1.50598e+06
4.43929e+07
4.45329e+07
3.91928e+07
5232.82
1.45677e+06
5.70838e+06
8.99256e+06
3.39084e+07
170061
8.48342e+06
488645
2.61996e+07
5.09924e+06
681.601
1.37322e+06
9.77592e+06
6.31315e+07
4.05135e+07
4.06304e+07
2.11331e+07
3.43218e+07
3.18651e+07
3.07073e+07
6.18101e+07
6.04724e+07
1.56462e+07
7.70628e+06
1.62467e+07
5.23652e+07
2.91951e+07
2.14095e+07
1.22646e+06
6.4698e+07
1.11846e+07
2.68554e+07
2.24613e+07
9.3935e+06
5.40108e+06
8.85776e+06
3.08946e+07
4.05021e+07
5.16897e+07
1.83724e+07
3.36938e+06
6.70689e+07
5.9908e+06
1.56448e+07
7.69082e+06
3559.34
2.30835e+06
293.063
6.96491e+06
8.55202e+06
1.62242e+07
3.21781e+07
2.50127e+06
158295
5.21364e+07
1.44502e+07
2.30776e+06
870832
6.33568e+07
6.5837e+07
2.72357e+07
1.58062e+07
22512.8
8.2383e+06
1.73614e+06
6.39934e+07
3.33872e+07
2.86081e+07
3.87819e+07
889225
3.05093e+07
3.05475e+07
3.47814e+07
1.45196e+07
173755
1.77082e+07
538584
3.60402e+07
6.19605e+07
428073
4.47742e+07
3.61856e+07
4.64153e+07
2.87513e+07
3.63536e+07
3.05992e+07
1.76529e+07
3.11462e+07
3.91551e+07
3.9183e+07
2294.71
1.2257e+06
1.21049e+06
2.24976e+07
5.5151e+07
2.95664e+06
2.11911e+07
59913.9
4.11589e+07
975954
389947
604.414
26796.5
1.4243e+06
3.78248e+07
4.71596e+07
2.10919e+07
2.98267e+07
4.40178e+07
1.65685e+07
7.05079e+06
3.86798e+07
3.37047e+07
5219.11
6.86201e+06
6.78309e+06
9.66452e+06
3.63324e+07
23992.7
3.08181e+06
5.2706e+07
14159.5
1.63338e+07
4.42664e+07
713160
8.15242e+06
2.35869e+07
1.52911e+06
1.0927e+07
62021
1.22855e+06
572699
2.97842e+07
1.30922e+07
547690
1.82894e+07
4.14524e+07
1.51809e+07
4.32192e+07
4.09885e+06
3.80917e+07
1.52698e+07
4.2488e+06
2.47569e+07
1.23149e+07
4.09223e+07
3.82235e+07
145511
5.85928e+06
9.5565e+06
9.58792e+06
3.49669e+07
3.83463e+07
1.23202e+07
5.48907e+07
2.67166e+07
409955
1.19458e+07
1.19545e+07
2.62178e+07
7.3244e+06
8.39476e+06
1321.67
8.13783e+06
3.48927e+07
3.47961e+07
2.18787e+07
6.27608e+07
4385.72
4.44667e+07
1.58166e+06
5.06228e+07
6.4644e+07
3162.23
73288.2
9.27934e+06
4.69416e+07
6.17357e+06
1.54429e+07
68608.1
3.6475e+07
6.86562e+07
3.06996e+07
10120.9
2.73887e+07
5.01849e+06
3.01158e+06
3.87564e+07
6.444e+06
13218.6
1.09099e+07
2.22012e+07
5.79157e+06
6.8175e+06
3.37743e+07
5.39456e+07
2.70081e+07
2.30558e+07
4.39653e+07
4.00551e+07
1.65061e+07
2.7103e+07
6.7142e+06
2389.68
3.07024e+07
107718
2.90824e+07
2.916e+07
2.49103e+07
4.46164e+06
5.48636e+07
3.2212e+07
3.22764e+07
3.27157e+07
5.49911e+06
45673.6
7.14273e+06
9.95704e+06
84602.4
2.15965e+07
3.55295e+06
58882.2
4.01206e+07
6.65574e+06
4.77361e+06
4.1598e+07
4.77305e+07
467064
6647.27
2.38451e+07
4.68428e+06
162654
9.36665e+06
12454.6
5.85178e+07
1.6458e+07
1770.91
7.16073e+06
7.21182e+06
2.19808e+07
5.32278e+07
2.8829e+07
4174.84
40342
5.62417e+07
6.6185e+07
3.66687e+07
1.44242e+06
2.63382e+07
6.39173e+07
3.87643e+07
6.87608e+07
7.4468e+06
3.83845e+07
1.57412e+07
31140.9
2.18243e+07
4.46082e+07
4.18194e+07
4.31482e+07
569706
7.8075e+06
3.95983e+07
868866
1.67406e+07
5.13561e+06
3.62952e+06
4.50477e+07
3.64077e+07
4.50644e+06
2.18399e+07
4.97375e+07
2.76844e+07
4.72624e+07
1.75469e+07
3.02237e+06
1.76336e+07
6924.48
3.37068e+07
316.148
2.19191e+07
4.27644e+07
3.26617e+07
8.77019e+06
5.78702e+07
1.63793e+07
1.95786e+07
1.4861e+07
3.69816e+07
6.46684e+07
1.33552e+07
6.99523e+07
3.2691e+07
3.24882e+07
2372.42
118315
6.64097e+07
37454.4
4.23325e+07
3211.57
3.39521e+06
3.79583e+07
30135
3.12741e+07
4.83615e+06
3.93698e+07
6.65319e+07
6.44356e+06
4.24063e+06
4891.17
5.17218e+06
8.71031e+06
2.96516e+07
2.96307e+07
9865.37
716801
27622.5
4.63274e+07
4.62868e+07
82716.2
5.41071e+06
4.07498e+07
5.38944e+07
2.11099e+07
528045
2.1272e+07
2.60571e+07
68621.2
4.10272e+07
5.66292e+07
3.51453e+06
2.47677e+07
435841
2.40501e+07
4.22311e+07
2.07329e+07
5.60726e+07
7.33414e+06
1.26358e+07
5.5412e+07
5.42295e+07
5.17661e+07
1.12679e+07
2.93818e+07
4.46024e+07
801348
1.2876e+07
4.156e+07
1.1557e+07
3.16656e+07
2.46726e+06
1.74359e+07
1.27599e+06
961654
6.8543e+07
2.15624e+07
15372.8
6.96709e+07
37473.1
5.68381e+06
6.05845e+06
6.1416e+07
3.79098e+07
1.50313e+07
1.58067e+07
867.537
3.02464e+07
1.34465e+07
4.47771e+07
1.34587e+07
3.29122e+07
17480.3
1.7626e+07
5.40728e+07
6.16974e+07
6.3936e+07
372031
2.97401e+07
2.3856e+07
3.12293e+06
6.52429e+06
1583.06
1.59145e+07
3.14327e+07
8.72117e+06
2.18098e+07
1.92363e+07
2.49069e+07
2.9016e+07
57047.4
3340.57
2.18948e+07
2.06209e+07
6.69923e+06
176321
115199
4.03716e+06
5.29809e+07
3.81052e+07
7.0167e+07
5.22727e+07
5.24674e+07
2.17189e+07
611700
1.5436e+07
49163.7
4.18414e+07
2.24699e+07
2.95586e+07
3.08689e+07
3.33417e+07
2.45031e+07
2.16914e+06
6.34418e+07
3.64473e+06
3.38958e+07
4.31584e+07
3.80203e+07
4.38973e+06
2.12833e+07
2.1281e+07
9.51074e+06
3.98654e+07
36182.5
1.51424e+06
957861
5.24306e+07
1.72035e+07
4.61011e+07
5.3687e+07
1.31523e+07
1.30043e+07
6.45773e+07
4.02892e+07
1.39959e+07
2.29265e+07
2.2413e+07
4.37105e+07
2.39057e+07
2.97121e+07
1.30263e+07
6.12155e+07
606.595
4.44373e+07
5.63024e+07
2.1151e+07
79587.9
166316
27765.4
7.55701e+06
6.36557e+07
2.66157e+07
5.63461e+07
1.85452e+07
4.21479e+07
7.13124e+06
7.28378e+06
4.56875e+06
6.94888e+06
3580.89
1.86379e+07
1.0121e+07
132657
2.61538e+06
2402.82
1.60865e+07
1.01763e+07
3.44584e+07
4767.49
4.61392e+07
4.6126e+07
5.0394e+06
4.64571e+07
2.23829e+07
4.42659e+07
4.4829e+07
3.16393e+07
3.14279e+07
251472
129136
4544.23
4.37915e+06
185885
1.24222e+07
3.5503e+07
5.79382e+07
2.32837e+06
1.35934e+07
406122
5.11836e+07
1.27177e+07
6.52425e+07
3.35858e+07
6.15747e+07
1.83376e+07
9.23562e+06
5.60302e+07
623154
3.5144e+07
7.22653e+06
5.62078e+07
1.53661e+07
6.32554e+06
3.67925e+06
4.65334e+07
2.16048e+07
3757.13
5.81216e+07
2.06227e+07
2.24878e+07
4.66072e+07
1.59355e+07
4.10597e+07
183478
7.42887e+06
1.76193e+07
1.75341e+06
3.22921e+07
8.31777e+06
4100.98
5.50998e+07
3.26549e+07
342322
665172
3.91315e+07
2.95248e+07
1.0876e+07
8.61272e+06
4.49261e+06
6.91429e+07
7.65233e+06
2.32507e+07
3.5174e+07
2.83303e+07
1.70809e+07
2804.94
5.35446e+07
3.63199e+06
1.13193e+07
3.19188e+07
3.91348e+07
6.97111e+06
6.73599e+07
422345
2.36271e+07
2.87466e+07
462233
2.08158e+07
6413.05
1.88775e+07
5.4851e+07
736797
1.54005e+07
6.24301e+06
1.34175e+07
1.35094e+07
4.47469e+06
12435.4
4.33087e+06
2.79319e+06
4.37897e+07
8.24212e+06
8.60858e+06
4.22996e+07
809318
4.00643e+07
5.86301e+06
2.30052e+06
89933.6
5.91313e+07
3.55133e+07
5.62778e+07
1.54898e+07
3.09176e+06
1.12341e+07
9.13702e+06
1.40075e+07
1.88807e+07
1.39016e+07
580233
2.2031e+07
2.20533e+07
1.21931e+07
1.18268e+07
6.53686e+07
2.79463e+07
1.21249e+07
7.54742e+06
4.58873e+07
2.49833e+07
2.49927e+07
2.01536e+07
4.41035e+07
1.03338e+07
1.34796e+07
707668
87746.9
3.78792e+06
961485
2.18229e+07
3.62313e+07
3.2961e+06
1.77802e+07
6.28297e+07
3.77566e+06
3.54e+07
718837
1.30591e+07
2.24793e+07
4.17305e+07
3.83137e+07
3.78633e+07
406227
2.69165e+07
1.37441e+07
2.19272e+07
5.75958e+06
7.02109e+06
7.88001e+06
5.18984e+07
108819
6.13015e+07
447653
1.03763e+07
1.73622e+07
4.40516e+07
1.09394e+07
9.19038e+06
5.10647e+07
1.61612e+07
3.4558e+06
3.75913e+07
1.99417e+07
1.9874e+07
1.67873e+06
5.15965e+06
169560
3.70988e+07
1.34955e+06
2.15205e+07
2.15075e+07
4.48108e+06
1.74242e+07
4.95956e+07
3.85403e+07
2604.08
6.18086e+07
1.6995e+07
1.73688e+07
6.59332e+06
1.89756e+07
4.75695e+07
2.03875e+07
2.03253e+07
2.67204e+07
68341.3
8.8511e+06
4.41892e+06
392553
2.81216e+06
4.61535e+07
706257
3.1252e+07
1.179e+07
3.42822e+06
4.88197e+07
2.20503e+07
69093.1
8.01374e+06
4.32838e+07
3.97647e+06
3.68249e+07
1.34534e+07
881057
3.12912e+07
7.96464e+06
2.34815e+07
1.34793e+07
1.63231e+07
5.27534e+06
5.95651e+07
6.22414e+07
70948.9
1.56367e+07
1.76379e+07
4335.33
3.22415e+07
1.82937e+07
3.42861e+07
2.4471e+07
2.38055e+07
42664
1.54052e+07
1.0808e+07
1.89011e+07
3.73227e+07
2.30457e+07
2.86647e+07
379680
4.23299e+07
6.71638e+07
3.52054e+07
1.29489e+07
6211.91
5.88976e+06
1.31046e+07
6.7554e+07
1.69419e+07
1.68579e+07
4.492e+07
1.19434e+07
565851
1.33242e+06
4.83655e+07
4.06393e+07
1.72998e+07
6.93963e+07
9.21811e+06
95508.8
1.07267e+06
3.82797e+07
993462
1.53136e+07
1.56613e+07
3.55006e+07
29419.5
90683.3
2.21741e+07
1.18075e+07
3.92639e+07
3.6354e+06
2.92729e+07
1659.42
1.32424e+07
1.87985e+07
2.83508e+07
7.19237e+07
4.91959e+07
6.13634e+07
1.29497e+07
1.95672e+07
2.77292e+07
6.10804e+07
2.01034e+07
1.18382e+07
3.11072e+07
1.68464e+07
1.96629e+07
3.57225e+07
3.56555e+07
6.60727e+07
4.00217e+07
4.42668e+06
732513
4.04955e+06
3.83856e+07
7.5307e+06
656683
7.83299e+06
251557
3.09612e+07
406193
9.26078e+06
6.8432e+07
1.57437e+07
467161
1.95285e+07
3.54992e+07
99965.3
5.38291e+07
1360.15
5.19197e+06
2.08641e+07
1.46721e+07
82595.3
1.51338e+07
96811.7
3.32303e+06
6.15091e+06
5.11637e+06
6.37117e+06
2.49763e+07
2.80698e+07
1.16811e+07
7.68912e+06
2.02275e+07
80824
4457.84
1.23145e+07
5.79161e+07
4.66635e+07
65158
1.0948e+07
5.22205e+07
39952.4
2.10727e+07
3.98543e+07
2.83016e+07
1.38585e+07
4.22419e+06
5.39808e+06
1.3895e+07
5.17226e+07
874386
499315
1.96166e+07
74015
3.40773e+06
29122.4
2.1164e+07
1.53161e+07
5.61437e+07
5.46003e+06
334.643
8319.05
2.3869e+07
1.8291e+07
2.25055e+07
2.60793e+07
3.64987e+07
37585.3
1.59936e+06
3236.79
4.33489e+07
3.8338e+07
7.84181e+06
1.17389e+07
2.17703e+07
6.86084e+07
697753
3.13428e+06
2.18795e+07
5.73792e+07
1.85603e+07
4.80423e+06
5.17504e+07
254.349
4.69174e+07
3.20446e+07
6.47002e+06
1.76084e+07
2.88919e+07
2.71678e+07
1.31231e+07
2.90541e+07
6.36571e+06
119881
4.09706e+07
168210
4.24784e+07
1.99029e+07
2.43032e+06
3.58173e+07
5.15576e+07
1.21903e+07
6.34596e+06
4.17046e+07
90015.9
3.71941e+06
13103
18883.2
343698
4.5774e+07
1.2623e+07
1.20031e+07
3.2905e+07
3.74613e+07
1.89722e+07
3.89924e+06
3.70339e+07
1.87824e+07
2.9596e+07
1498.67
14099.4
2.13532e+06
5.14189e+07
6.41042e+06
5.35128e+06
1.28325e+07
5.51198e+07
3.61491e+07
6245.37
5.09431e+07
2.07684e+07
3.46659e+06
2.5389e+07
5.30346e+07
5.14015e+06
120073
2.91644e+07
2.4526e+07
1.38911e+07
1.02191e+07
6.59632e+07
6.03785e+07
3.59429e+07
3.00027e+07
3.25433e+07
3.94484e+06
6.63079e+07
1.36963e+07
2.89964e+06
9.00436e+06
1.31321e+07
2.09239e+07
1.94382e+07
1.24174e+07
6.58358e+07
3.16187e+07
3.14702e+07
4.84896e+07
1.68601e+06
1.14408e+06
3.76677e+07
2.01537e+07
2.56405e+07
91629.8
34580
2.17672e+07
1.6329e+07
3.48179e+07
859529
98625.1
464933
1.5772e+07
1.38287e+07
5.74101e+07
1.92258e+07
2.68815e+07
12935.3
3.94214e+07
4.3782e+06
47092
5.72586e+07
1.55388e+06
6.88624e+07
2.58971e+07
1.24771e+07
5.63348e+07
1.03821e+06
3.83071e+07
3.84059e+07
4.06712e+06
4.73991e+07
2.85253e+07
4.94962e+07
3.98705e+07
3.4383e+07
3.44055e+07
4.00264e+07
3.98383e+07
7.17847e+07
1.83132e+07
1.84605e+07
6.07073e+07
4.37557e+07
4.38186e+07
6.06095e+07
515697
168572
4.28025e+07
5.70746e+06
3.66198e+07
3.6601e+07
6.48477e+07
4.31513e+06
1.97153e+07
2.77879e+07
1.69391e+07
8.13385e+06
1.36253e+07
12615.8
6.72564e+06
2.08183e+07
1.36308e+07
2.93102e+06
1.88726e+07
4.51479e+07
6.22873e+07
2.42702e+07
2.87038e+07
1.45434e+07
6.23684e+07
6.2136e+07
1.74519e+06
3.53153e+07
2.44527e+07
1.42713e+07
3.07799e+07
2.85856e+07
9.43378e+06
3.04835e+06
16713.9
6.37627e+07
3.2432e+07
5.17764e+07
4.52794e+07
3.00533e+07
2.99294e+07
10694.7
2687.27
2.98482e+07
2.4271e+07
3.19786e+07
4.34061e+07
37316.5
6.38745e+07
2.11384e+07
4.87575e+06
1.99877e+07
1.11879e+07
1.56802e+07
5.80905e+07
3.11283e+07
3.81632e+07
4.55225e+07
3.27917e+07
3.64632e+06
1.20896e+07
4.26482e+07
4.2088e+06
1.22237e+07
1.36562e+07
5.9294e+07
30616.6
453434
4.34412e+07
5.40019e+06
2.16455e+07
3.40455e+07
44586.6
6.65911e+06
6.62555e+07
4.67647e+07
1.43502e+07
1.00184e+07
1.97914e+07
2.55058e+06
2.98696e+06
2.56933e+07
5.88052e+07
5.53186e+06
6.76746e+07
6.75809e+07
163522
17525.9
13433.7
2.18281e+07
6.0163e+07
1.55282e+06
1.04587e+07
1.01836e+07
2.10098e+07
1.27738e+07
8.98439e+06
745831
2.33494e+07
494433
1.90971e+07
1.91501e+07
2.26536e+07
3.69753e+07
5.69959e+06
4.1494e+07
3.52276e+06
3.67247e+06
3.45308e+07
1.99339e+07
2.31148e+07
4.13673e+07
9.8811e+06
2.25339e+07
1.90911e+07
1.76122e+07
102107
6.12771e+07
176922
814444
4.71039e+07
6.68917e+07
263362
2.75068e+07
2.87842e+07
2.06452e+07
7.32787e+06
15106.7
735272
40897.4
2.4346e+07
1.29751e+06
1.32133e+07
1.64231e+07
6.74495e+06
3.53321e+07
95267.3
4.10083e+07
2.88307e+07
4.83551e+07
4.82908e+07
5.57108e+06
4.25092e+07
5.61526e+07
4.05931e+07
1.32422e+07
1.63497e+07
18167.9
4.19055e+07
3.49271e+07
1.35374e+07
2.32419e+07
4.52146e+07
4.22814e+07
6.24105e+07
2.11397e+07
5.67027e+07
3465.83
1.46652e+07
2.72568e+07
7485.72
251443
2.72875e+07
609334
17898.6
7.81275e+06
1.22625e+07
7.59824e+06
4.44699e+07
1.82925e+07
8.62003e+06
630646
3.13087e+07
4.23327e+07
2.80507e+07
3.92344e+07
5.02291e+07
5.13787e+06
1.17588e+07
1.08113e+07
2.04546e+07
1.17339e+07
1.08081e+07
1.68282e+07
2.13885e+07
2.14749e+07
3.93568e+07
1.05538e+07
5.91917e+07
6.98003e+07
9.56217e+06
3.20628e+07
2.72869e+07
1894.84
4.09404e+06
6.29215e+06
4.6702e+06
8.38623e+06
2.12782e+06
310563
2.05644e+07
1.26771e+06
7.32559e+06
7.742e+07
440611
1.45653e+07
3.73861e+07
882882
742499
2630.87
474462
5.49953e+07
5.42948e+06
33524.1
7.40267e+06
5.99915e+06
1.12884e+06
4.57168e+07
3.83983e+07
2.35097e+07
2.35352e+07
4.11583e+07
4.11902e+07
1.18131e+07
5.32377e+07