/*--------------------------------*- C++ -*----------------------------------*\
| =========                 |                                                 |
| \\      /  F ield         | OpenFOAM: The Open Source CFD Toolbox           |
|  \\    /   O peration     | Version:  v3.0+                                 |
|   \\  /    A nd           | Web:      www.OpenFOAM.com                      |
|    \\/     M anipulation  |                                                 |
\*---------------------------------------------------------------------------*/
FoamFile
{
    version     2.0;
    format      ascii;
    class       volSymmTensorField;
    location    "3000";
    object      sigma;
}
// * * * * * * * * * * * * * * * * * * * * * * * * * * * * * * * * * * * * * //

dimensions      [1 -1 -2 0 0 0 0];

internalField   nonuniform List<symmTensor> 
24076
(
(-5.9099e+07 1.79492e+06 -3.79507e-12 545578 1.06547e-13 -1.45283e+07)
(-5624.58 -68268.8 3.25169e-15 796471 -5.72152e-15 196225)
(-148.668 -1494.43 -4.59273e-17 11767 1.18078e-16 2882.75)
(266.591 -1124.87 -1.34485e-17 12154.4 9.28059e-17 3081.89)
(-8.74599e+06 3.2384e+06 2.04951e-12 4.63872e+06 -7.48388e-13 -1.0191e+06)
(-2701.39 -52465.4 1.03403e-15 925941 3.40862e-14 229075)
(5742.76 -79111.5 -6.48301e-17 825799 -1.08304e-14 206322)
(-6.30302e+07 1.06441e+06 -4.81593e-12 334966 1.21304e-12 -1.5556e+07)
(199.525 -734.478 -9.56738e-19 887.045 3.86729e-17 269.6)
(-5.39384e+07 -1.06081e+06 4.07498e-12 56062.5 -9.52162e-12 -1.33693e+07)
(4.20824e+07 -6.36018e+06 -8.36457e-13 9.45747e+06 1.58153e-12 1.27881e+07)
(-5.24381e+07 -993497 -1.62332e-12 -22155.6 4.79936e-12 -1.30164e+07)
(-2.59625e+07 7.14901e+06 -1.61598e-12 1.72452e+06 -1.50334e-12 -6.01395e+06)
(-5.55599e+06 3.63168e+06 -2.19375e-12 4.52516e+06 -5.54146e-13 -255771)
(-6.47635e+07 -876553 7.972e-13 -318202 -7.01575e-12 -1.61481e+07)
(-4.97569e+06 -1.59302e+06 -4.58644e-12 -193998 -1.15011e-11 -1.2827e+06)
(3.44097e+07 -799848 6.21939e-12 -16227.6 -2.57049e-11 8.53371e+06)
(-3.49402e+07 -1.03814e+06 -7.76137e-12 24824.3 2.05125e-11 -8.66322e+06)
(-373417 -2.55579e+06 -8.42242e-12 306410 4.73163e-12 -16625.9)
(-6.47421e+06 -2.75782e+06 -1.5196e-11 -134149 1.37409e-11 -1.63967e+06)
(-6.37766e+07 59817.6 4.12876e-13 -295427 -2.13303e-12 -1.58976e+07)
(3.66061e+07 -3.26853e+06 1.01432e-12 5.07563e+06 -2.61987e-12 1.03421e+07)
(-5449.99 -49890.9 1.36435e-15 1.16911e+06 -1.26299e-16 288728)
(4.27266e+07 -5.77461e+06 1.48942e-12 9.13146e+06 -3.37131e-13 1.2867e+07)
(1.45282e+06 5.64292e+06 2.49458e-13 2.94006e+06 -2.64822e-13 1.08996e+06)
(2.40176e+06 -1.70649e+06 -7.03716e-12 242781 4.29213e-12 656165)
(1.78792e+06 -2.91952e+06 -2.49846e-14 4.58973e+06 1.46976e-14 1.58242e+06)
(4268.67 -64026.8 -1.60626e-15 929510 8.42527e-15 231689)
(4.56337e+06 -2.28186e+06 -8.44628e-12 -238685 -7.42006e-13 1.07304e+06)
(3.59276e+06 6.68735e+06 -4.9075e-12 3.04667e+06 -1.49282e-12 1.64738e+06)
(1.00848e+07 -1.86295e+06 3.42624e-12 -252131 6.06399e-12 2.43969e+06)
(10605.2 -56439.1 -9.52104e-16 218755 -2.93647e-15 56909)
(-2.34736e+07 -1.78722e+06 1.35244e-11 99314 1.72432e-12 -5.79962e+06)
(-1.905e+07 -392880 2.02183e-12 2.44552e+06 -5.74016e-12 -4.1199e+06)
(-2.72595e+07 -2.49709e+06 1.14016e-11 -153015 -1.35167e-12 -6.8016e+06)
(-4.62312e+07 -1.90957e+06 6.65794e-12 17618.6 2.39283e-12 -1.14665e+07)
(-2.54027e+07 6.63268e+06 -3.19811e-12 1.26467e+06 -1.07758e-12 -5.98914e+06)
(3.53487e+07 199113 6.77655e-12 160554 -1.47633e-11 8.81055e+06)
(-3.56557e+07 92817.6 -1.43246e-12 -174503 3.10209e-11 -8.89021e+06)
(-6.47686e+07 23738.3 -1.86313e-12 -218427 -2.20919e-13 -1.61246e+07)
(1.95839e+07 -7.04474e+06 5.09423e-13 2.70161e+06 -5.40379e-13 5.52949e+06)
(6.74085e+06 -1.88895e+06 -1.161e-11 266461 -2.38972e-12 1.73866e+06)
(-1.93771e+07 5.31667e+06 -6.81466e-12 2.57775e+06 -2.57946e-12 -4.16827e+06)
(-1.64231e+07 -641096 -3.22122e-12 2.28063e+06 -1.76565e-12 -3.50902e+06)
(-4.33066e+07 -919056 3.51306e-12 47626.7 2.97002e-12 -1.07334e+07)
(6.25413e+07 -1.15501e+06 -5.82928e-12 -8761.86 7.36185e-13 1.55156e+07)
(44673.4 -326741 2.57164e-15 1.01439e+06 6.97884e-15 262775)
(-1.55759e+07 -2.15208e+06 3.93338e-14 -13255.8 3.34711e-12 -3.86798e+06)
(2.40148e+06 -3.22269e+06 6.66761e-14 4.74049e+06 -3.82409e-14 1.77207e+06)
(4.61143e+07 -1.99568e+06 1.04005e-11 -91903.3 3.19314e-12 1.14191e+07)
(475.759 -1908.96 -3.14278e-16 32024.4 -8.36228e-16 8063.95)
(461008 -1.39559e+06 6.96892e-14 4.52907e+06 -1.09291e-13 1.23814e+06)
(886.167 -2252.69 1.19739e-17 1349.97 -1.52309e-16 554.831)
(3558.59 -86143.8 4.41493e-15 1.00943e+06 1.0413e-14 251343)
(145.716 -714.044 -2.30066e-18 852.292 -4.04776e-17 247.626)
(-2.63691e+07 -1.44811e+06 0 -205776 0 -6.59378e+06)
(-9.76452e+06 412526 7.30135e-13 3.18408e+06 9.1721e-13 -1.63274e+06)
(-6.62666e+07 -246373 5.21838e-12 48693.9 4.42541e-12 -1.643e+07)
(-164534 -2.52609e+06 1.4134e-11 -14438.1 6.13839e-12 -44406.7)
(-3.07766e+07 -2.06035e+06 4.19746e-12 -198738 1.06696e-11 -7.68562e+06)
(6.26826e+07 61966.3 1.77254e-11 -149926 -2.43135e-11 1.55156e+07)
(54014.1 -316332 1.26477e-15 442045 1.48736e-14 123082)
(7.47158e+07 -223961 -2.58794e-13 -84696 9.27555e-12 1.85175e+07)
(4.31932e+07 -867815 -2.54241e-13 33621 -5.98061e-12 1.07254e+07)
(3.15006e+07 -2.4328e+06 -3.1033e-12 8.37616e+06 -2.52986e-12 9.89424e+06)
(-6.27039e+07 -729036 7.36562e-12 205210 8.56702e-12 -1.55072e+07)
(-1.74988e+07 1.0983e+06 -4.37213e-12 3.23593e+06 -2.36788e-12 -3.5389e+06)
(2.77567e+07 -1.86276e+06 -2.07566e-13 8.47973e+06 1.24984e-12 8.99099e+06)
(4858.48 -113953 2.44405e-15 617140 -1.24308e-15 154330)
(-1.62926e+07 688386 2.19175e-12 2.97963e+06 -4.35187e-13 -3.30322e+06)
(-265386 -2.61052e+06 -2.99597e-11 -3888.35 -8.3298e-14 -66812.4)
(46888.1 -175858 -1.25845e-14 1.69032e+06 2.19584e-14 431035)
(4.69853e+07 -1.03639e+06 -2.06351e-12 -120187 -1.01674e-12 1.16282e+07)
(32843.7 -94196.7 -8.86383e-17 109258 -1.37483e-14 35258.3)
(1.81423e+07 -6.99674e+06 8.60834e-13 2.81655e+06 -8.49058e-13 5.20033e+06)
(-1.12458e+07 -1.63248e+06 -1.92072e-11 358004 7.7698e-12 -2.70148e+06)
(3.81741e+07 -4.53701e+06 2.47082e-12 5.57457e+06 -1.8132e-12 1.08549e+07)
(4.53506e+07 -1.45368e+06 -3.06241e-11 13852 1.77873e-11 1.12558e+07)
(-4.12346e+07 509103 0 969678 0 -9.99055e+06)
(7.57453e+07 -512131 -2.3265e-12 -153932 6.26808e-12 1.87558e+07)
(15649.4 -303248 -1.68089e-15 953853 -2.47716e-14 240553)
(-1.49135e+07 -1.69323e+06 -5.74453e-12 -47034.2 -9.76565e-13 -3.71201e+06)
(2.03003e+07 -2.75576e+06 -3.88501e-12 2.76152e+06 1.96698e-12 5.7221e+06)
(1.1297e+07 2.81203e+06 0 5.70234e+06 0 4.21789e+06)
(7.09359e+06 -7.20173e+06 8.78223e-14 7.28183e+06 -7.41943e-15 3.56683e+06)
(1088.52 -2254.35 8.11086e-18 1531.5 -7.8793e-17 650.08)
(-1.18149e+07 -1.82247e+06 6.23156e-12 112650 -7.94296e-13 -2.90358e+06)
(3.75679e+07 -1.71827e+06 -1.07855e-11 -183762 1.37403e-11 9.27575e+06)
(125330 -2.48648e+06 -1.6954e-11 28813.8 1.15346e-11 38246.1)
(-7.60046e+06 -2.15308e+06 3.37947e-11 50669.8 -8.26628e-12 -1.87326e+06)
(-1.41931e+07 -2.87316e+06 6.86443e-12 196466 -5.76158e-12 -3.47284e+06)
(-208240 -2.59401e+06 -1.3349e-11 76315.1 2.07784e-11 -32733.2)
(3.61293e+07 -2.1979e+06 3.22625e-12 831982 -3.12351e-12 9.17083e+06)
(-1.06081e+07 -538456 5.66002e-12 3.1939e+06 3.7492e-12 -1.83962e+06)
(1.05607e+07 2.87827e+06 2.02198e-12 6.3187e+06 1.9143e-12 4.18812e+06)
(3.42758e+07 -1.05014e+07 -8.32823e-13 8.88264e+06 1.16081e-12 1.07085e+07)
(5.62565e+06 -2.99746e+06 2.94384e-12 -287322 -1.60078e-11 1.32455e+06)
(-5.0801e+06 -2.53888e+06 0 64767.9 0 -1.24441e+06)
(4977.7 -60940.7 1.15195e-16 199077 2.16728e-15 50630.1)
(-1.73124e+07 3.20026e+06 1.81495e-12 3.59819e+06 2.46068e-12 -3.40277e+06)
(1.91983e+07 -2.43248e+06 8.16122e-12 2.60874e+06 2.89937e-12 5.41077e+06)
(3.24398e+07 -3.62191e+06 -1.83384e-12 7.86345e+06 3.72565e-13 1e+07)
(7.8694e+06 -2.46343e+06 9.97933e-12 85645.9 -1.66781e-11 1.97381e+06)
(-4.21398e+07 392292 1.69969e-12 1.27739e+06 2.18851e-12 -1.01388e+07)
(1.14435e+07 -2.5448e+06 3.59537e-12 40710.1 9.61832e-12 2.84946e+06)
(1.86574e+07 -1.05828e+07 3.62543e-13 8.12507e+06 -5.91705e-13 6.64527e+06)
(8478.73 -28581.2 1.29633e-17 44689.6 -3.02749e-15 13192.1)
(-3763.31 -62330.9 1.51674e-15 1.4028e+06 -7.67655e-15 347129)
(5.59495e+07 -3.46557e+06 -5.74192e-12 1.38536e+06 -1.28155e-12 1.42259e+07)
(2.08979e+07 -2.70186e+06 -1.30116e-11 73096.2 1.49305e-12 5.20332e+06)
(4.94257e+06 -1.68252e+06 9.39938e-12 27356.9 -2.2848e-12 1.23314e+06)
(-1.10657e+07 -1.99973e+06 1.05606e-11 347576 -1.28563e-11 -2.65939e+06)
(126.279 -981.37 -1.97002e-17 2661.16 1.75041e-17 691.621)
(84695.6 -337292 5.56833e-16 490272 7.70381e-15 142661)
(-9.03484e+06 -1.39236e+06 -8.45494e-12 74926.8 2.57517e-11 -2.22314e+06)
(-256.378 -2884.55 -3.22082e-16 29586.6 -1.27513e-15 7277.43)
(3.7608e+07 -4.77411e+06 1.44588e-12 9.18108e+06 -7.65196e-13 1.16093e+07)
(1.76702e+07 -1.48358e+06 -5.37679e-12 -290417 -7.39489e-13 4.31229e+06)
(-5.99794e+06 -1.94475e+06 -3.05286e-12 -35886.2 -3.65647e-11 -1.49711e+06)
(2.34536e+07 -2.1957e+06 5.85591e-12 -126940 5.57323e-12 5.78783e+06)
(3.64369e+06 -2.48335e+06 1.98545e-12 -257724 5.33501e-12 840127)
(3.93588e+07 -813755 3.9972e-12 9143.83 1.77033e-12 9.76799e+06)
(1.60965e+07 -1.14604e+07 -3.46154e-13 1.06444e+07 4.85991e-13 6.63497e+06)
(-6.20053e+07 1.39547e+06 -1.80741e-12 699049 -9.86804e-13 -1.52113e+07)
(-4.07848e+07 -1.94333e+06 0 166711 0 -1.00782e+07)
(3.59009e+07 -883476 3.29691e-12 -308400 5.1829e-14 8.83122e+06)
(5.57993e+07 -2.06989e+06 1.52523e-12 1.09305e+06 1.83626e-12 1.41161e+07)
(-3.32766e+07 -1.07292e+06 -3.32906e-12 98453.2 3.19038e-12 -8.23218e+06)
(1.21741e+07 -1.619e+06 3.63584e-13 39444.2 1.34798e-13 3.03043e+06)
(711.259 -14188.6 6.0218e-17 147403 -1.18653e-15 36750)
(3.89895e+07 -1.93942e+06 -4.99046e-12 -87783.2 -7.58435e-13 9.65231e+06)
(2.27807e+07 -1.58441e+06 7.02182e-12 192053 1.97541e-11 5.7e+06)
(1.72828e+07 -2.22133e+06 4.73611e-12 -120494 -3.32154e-11 4.25831e+06)
(10047.7 -76751.2 3.0885e-15 1.21166e+06 -2.12004e-14 303130)
(3.71914e+07 -2.13959e+06 -3.50321e-12 737641 4.12728e-12 9.41095e+06)
(729930 -1.72898e+06 -1.13448e-13 6.09958e+06 1.26701e-13 1.69454e+06)
(-2.90493e+06 -1.63572e+06 8.85e-12 944410 -1.05958e-12 -486444)
(-1.96349e+07 6.24515e+06 -4.3169e-12 2.89853e+06 -3.36155e-12 -4.15263e+06)
(-2.53625e+06 -1.5409e+06 -2.58499e-11 -83540.3 9.92454e-13 -650023)
(-6.20006e+06 -1.51769e+06 -5.55243e-13 855836 -2.28502e-12 -1.32601e+06)
(-9.47952e+06 -1.85704e+06 1.89286e-12 935329 -3.44783e-12 -2.11999e+06)
(268.359 -1091.1 9.05435e-18 2676.53 7.97332e-17 730.687)
(3.27321e+06 -2.77161e+06 3.27361e-14 1.48856e+06 -9.74719e-14 1.18149e+06)
(4.11063e+06 -2.3852e+06 -2.03653e-11 13780.7 -9.43945e-12 1.02335e+06)
(-1.836e+07 -1.40208e+06 -2.66943e-11 -196597 3.9812e-12 -4.60426e+06)
(-9.74767e+06 -2.36062e+06 -1.75331e-12 116560 -3.42724e-13 -2.38967e+06)
(1.60221e+07 -1.65622e+06 9.12135e-13 245609 -6.27227e-12 4.03634e+06)
(-2.24367e+07 -2.12181e+06 -2.60457e-11 -50588.6 -2.33092e-12 -5.57955e+06)
(-734629 -2.02847e+06 -6.57249e-12 804697 -4.09038e-12 17385.2)
(1478.85 -8667.53 4.75953e-16 71230.7 1.3967e-15 18040.7)
(5.09088e+07 -1.33874e+06 -4.25302e-12 183231 -1.40588e-12 1.2677e+07)
(224.885 -527.101 4.45126e-18 142.314 -3.48409e-17 91.1094)
(-3.40304e+07 5.83597e+06 -6.47557e-13 102204 -1.60296e-13 -8.41827e+06)
(-1.74571e+07 3.91778e+06 2.84469e-12 3.23253e+06 1.98825e-12 -3.52939e+06)
(-4.13096e+07 -1.04878e+06 2.00377e-12 333076 -1.79425e-12 -1.01671e+07)
(-5.90241e+06 -2.69514e+06 2.47919e-11 437610 -2.03744e-11 -1.35593e+06)
(-6.187e+07 1.13423e+06 2.60939e-13 -179922 4.01571e-13 -1.53959e+07)
(1.10664e+07 -1.89693e+06 -5.84536e-12 81977.7 2.66131e-13 2.76614e+06)
(-3.33949e+06 -2.31453e+06 6.65545e-12 1.27962e+06 -7.78755e-12 -511094)
(1415.57 -6431.24 7.61651e-17 15757.8 6.38234e-16 4261.05)
(1.67093e+06 4.58388e+06 -7.53801e-14 -3.00266e+06 1.38597e-13 -330430)
(181.538 -708.156 0 669.694 0 211.208)
(-6.70246e+07 -66073.8 6.60747e-12 -61041.5 -9.9213e-14 -1.66453e+07)
(7.18845e+07 -3.86465e+06 7.05495e-13 1.73409e+06 -1.28813e-12 1.82663e+07)
(720765 -2.60254e+06 4.55825e-12 -240608 -9.7176e-12 119137)
(-2.62343e+07 -780390 -2.62855e-11 92572.9 -2.16301e-11 -6.4863e+06)
(2.6195e+07 -802864 -6.57051e-12 -101609 2.31321e-11 6.47429e+06)
(2.7949e+07 -1.58319e+06 -1.05077e-13 126220 5.27246e-13 6.96604e+06)
(3.95336e+07 -4.59534e+06 -3.75169e-12 7.85649e+06 2.0589e-12 1.17584e+07)
(1.60542e+07 -4.4353e+06 -1.35084e-13 -571259 8.24856e-14 3.84164e+06)
(-2.57249e+07 -955076 -5.92142e-12 1.13455e+06 -1.83843e-12 -6.10136e+06)
(2888.59 -22804.2 -1.78443e-14 1.28718e+06 3.56519e-14 320092)
(6.00979e+06 -1.84764e+06 -2.79424e-12 83501.5 -2.25264e-12 1.51187e+06)
(-1.82747e+07 -1.79218e+06 2.45998e-12 305819 -5.10475e-12 -4.45843e+06)
(4.14377e+07 -1.17084e+06 -2.96245e-12 -20848.3 -4.36481e-12 1.02764e+07)
(-4.11825e+07 -1.18586e+06 5.21795e-12 117634 -7.90593e-12 -1.0189e+07)
(3.95058e+07 -1.6683e+06 4.79643e-12 -73019.1 -9.73345e-12 9.78408e+06)
(-3.90993e+07 -1.69035e+06 5.90519e-12 -8913.28 -4.02698e-12 -9.70354e+06)
(-5.97043e+07 46348.3 -9.62415e-13 29687.3 2.04415e-11 -1.48065e+07)
(5.62021e+07 -1.51628e+06 -7.99585e-12 -69851.4 5.87108e-12 1.39275e+07)
(7.2425e+07 -502442 6.50464e-12 -74918 -5.63766e-13 1.79515e+07)
(98477.6 -249021 -6.11094e-16 133964 7.49768e-15 57673.4)
(-2.83133e+07 885412 4.16003e-12 1.91947e+06 -8.171e-13 -6.54885e+06)
(8.46819e+06 1.25549e+06 -1.57944e-13 -3.00408e+06 1.20851e-13 1.35576e+06)
(8.8914e+06 1.34224e+06 2.79855e-13 -3.49382e+06 -1.77833e-13 1.33925e+06)
(1.46594e+07 -453251 -1.31891e-12 6.78821e+06 1.38296e-12 5.32158e+06)
(3.99315e+07 -3.62893e+06 4.24851e-13 7.5064e+06 -2.31911e-12 1.17703e+07)
(6.36274e+06 -1.17804e+07 0 2.21387e+07 0 7.07179e+06)
(5.23289e+07 -8.74971e+06 -3.25864e-13 9.23272e+06 1.97764e-12 1.52747e+07)
(-1.85265e+07 8.54038e+06 -4.72615e-13 -290953 4.59486e-13 -4.669e+06)
(-2350.88 -11191.9 -1.00831e-15 258787 9.94136e-16 63627.1)
(3.681e+07 -2.10758e+06 -1.0052e-12 -31527.9 -1.08074e-12 9.12548e+06)
(1.5545e+07 -2.24392e+06 -1.18041e-11 204582 -8.46502e-12 3.90779e+06)
(3.35656e+07 -1.07392e+06 -1.68283e-11 -74781.7 -6.73489e-12 8.30975e+06)
(-2.12364e+07 -2.05012e+06 2.85692e-12 -7692.6 1.74236e-11 -5.27108e+06)
(-6.08211e+07 -306384 -4.14755e-12 143214 -1.52259e-12 -1.50554e+07)
(5.04004 -68976.7 -1.95215e-15 966104 1.48616e-14 239711)
(-3.56393e+07 -1.77654e+06 2.24501e-12 34734.4 -1.60363e-11 -8.83422e+06)
(3.58621e+07 -1.72417e+06 -1.37881e-11 -72374.6 8.96505e-12 8.88015e+06)
(6.07349e+07 -245221 4.15682e-12 -130845 -1.52445e-12 1.50371e+07)
(-2.79036e+07 133686 -2.06839e-12 1.91153e+06 -1.88637e-12 -6.44915e+06)
(4.95308e+06 -1.00851e+07 1.78016e-13 2.09016e+07 -2.69113e-13 6.41507e+06)
(2.12522e+07 -1.114e+06 6.54348e-12 -233667 5.91333e-12 5.21513e+06)
(-2.12982e+07 -1.12591e+06 0 240137 0 -5.22494e+06)
(-1.96982e+06 -2.37337e+06 -1.29899e-11 -70029.6 -6.84933e-13 -506128)
(-1.29536e+07 3.4439e+06 -2.61805e-12 3.55394e+06 -4.31004e-13 -2.33225e+06)
(5.73627e+07 -775131 -6.67088e-12 -10270 5.94761e-12 1.42303e+07)
(3.28362e+07 -1.88651e+06 4.80999e-12 38913.9 -1.67718e-11 8.15699e+06)
(-5.44455e+07 2.8494e+06 -3.31102e-12 86874.8 -1.42151e-12 -1.34875e+07)
(1.01535e+07 -2.45597e+06 -9.19113e-13 64747 5.69748e-12 2.53536e+06)
(130593 -561039 0 1.32334e+06 0 360750)
(-3.61628e+06 -2.4535e+06 -3.78915e-12 -233.593 2.93391e-12 -897331)
(107032 -448297 -1.55024e-15 2.70416e+06 -5.03238e-14 697515)
(4.94665e+07 -1.16119e+06 -2.74105e-12 -231950 5.59768e-12 1.22161e+07)
(236.309 -787.41 0 717.917 0 236.763)
(5.27195e+06 -1.98598e+06 2.25513e-12 148580 -7.44974e-12 1.34494e+06)
(551468 -1.73972e+06 5.64536e-14 5.76682e+06 -1.8912e-13 1.5677e+06)
(6.37273e+07 -349687 2.52754e-12 -60624 2.22096e-12 1.5797e+07)
(4.17982e+06 -219555 -1.52573e-11 85082.2 2.36773e-14 1.05821e+06)
(-4.24433e+06 -222820 1.53895e-11 -77002.5 -3.85852e-14 -1.07221e+06)
(4.98479e+06 -2.16094e+06 1.21512e-11 132497 2.04709e-12 1.2697e+06)
(-7.01911e+07 -17610.6 9.02064e-12 -225995 2.14489e-12 -1.74719e+07)
(-7.38622e+07 -20662.7 -1.34336e-13 -457272 -4.18445e-13 -1.84402e+07)
(3.20095e+07 -3.22933e+06 1.6289e-12 3.79754e+06 1.53255e-12 8.88444e+06)
(-6.07099e+07 -462045 -3.1894e-12 218915 2.52143e-13 -1.50091e+07)
(8778.24 -18891.2 -7.11463e-17 8097.18 5.61943e-16 4187.13)
(1880.23 -8274.28 -3.15146e-17 13912.3 -3.95436e-16 3918.45)
(3.856e+07 -1.147e+06 -7.56862e-12 198412 1.39509e-11 9.61676e+06)
(8254.83 -18244 -4.7033e-17 11492.1 6.61564e-16 4899.61)
(-8.74609e+06 -1.81546e+06 2.56976e-11 -95012.8 6.48796e-12 -2.19366e+06)
(1285.28 -7035.05 -1.11676e-17 13854.9 -3.51591e-16 3756.59)
(3.57802e+07 -1.18922e+06 8.38662e-12 -25695.7 -7.50227e-12 8.87141e+06)
(3802.76 -14756.1 5.09857e-17 26808.1 2.10017e-16 7595.18)
(111406 -310597 8.9424e-16 138183 -1.0501e-14 61928)
(-8.15165e+06 -1.70998e+06 -3.48566e-12 2.10543e+06 7.26647e-13 -1.50019e+06)
(-1.52269e+07 -1.59531e+06 1.31639e-11 -184552 -7.84673e-12 -3.82389e+06)
(2.46994e+07 -4.8817e+06 3.19566e-13 3.88492e+06 1.11325e-13 7.09235e+06)
(-1.73277e+07 7.51884e+06 -1.37108e-12 -732355 -3.90114e-13 -4.48106e+06)
(2.4163e+07 -2.6665e+06 -7.09274e-12 247161 -5.86214e-12 6.05667e+06)
(5.78218e+07 -1.22892e+06 -5.19172e-12 119852 1.52013e-11 1.43765e+07)
(-5.73989e+07 -1.35355e+06 7.9803e-12 55497.1 -1.6257e-11 -1.42281e+07)
(8.23366e+06 -7.58535e+06 2.77555e-13 7.45772e+06 5.03169e-14 3.89335e+06)
(2.47725e+07 -2.37798e+06 1.37366e-11 -45986.4 1.28271e-11 6.13515e+06)
(2.51128e+07 -1.20983e+06 1.62021e-11 341700 -2.50967e-11 6.31579e+06)
(-4.70547e+07 535278 8.53851e-13 -144737 1.35718e-11 -1.17111e+07)
(4.68191e+07 512699 2.22243e-12 19558.9 -1.26304e-11 1.16216e+07)
(3.22953e+07 -1.87384e+06 0 61995.4 0 8.0285e+06)
(-6.40019e+07 -1.31439e+06 2.22368e-12 385292 2.96291e-12 -1.57846e+07)
(6.38578e+07 -1.23634e+06 -5.06019e-12 -367412 7.99392e-13 1.57532e+07)
(3.94957e+07 -5.47529e+06 6.90418e-13 9.44939e+06 4.59038e-13 1.21443e+07)
(2.58091e+07 -484841 -1.39013e-11 -55307.9 -2.5744e-12 6.39004e+06)
(-8.992e+06 -2.18057e+06 1.77156e-11 -28383.9 3.79153e-11 -2.23814e+06)
(-1.16793e+06 4.78938e+06 6.40258e-13 -3.05634e+06 -8.43105e-14 -1.04813e+06)
(-6.19897e+07 -568364 1.21141e-12 246597 2.59013e-12 -1.53197e+07)
(-4.62499e+07 -222555 0 -184854 0 -1.15214e+07)
(4.64347e+07 -210255 -2.05123e-12 214143 -1.71529e-12 1.15745e+07)
(-2124.79 -66825.7 1.08086e-15 521784 1.32818e-14 128938)
(5398.03 -59973.7 1.55096e-15 175486 2.40029e-15 44881)
(-37524.5 -228614 -4.81112e-14 2.58139e+06 -7.54247e-14 631185)
(-7.49595e+06 -1.64513e+06 -1.13071e-11 -57533.1 2.93289e-12 -1.87417e+06)
(-1.69504e+07 5.01918e+06 -5.55357e-12 3.42252e+06 -2.08079e-12 -3.35653e+06)
(-7.60769e+07 5568.58 2.9738e-12 -515400 2.80455e-13 -1.90041e+07)
(-4.21566e+07 -853238 0 -88847.4 0 -1.0482e+07)
(-7.31309 -4.16121 9.39945e-19 134.216 4.23763e-18 31.4871)
(3.73445e+07 -2.95886e+06 7.5039e-14 1.22934e+06 4.40281e-12 9.57095e+06)
(-1.68262e+06 6.86095e+06 1.92853e-12 3.0079e+06 -4.64858e-13 328830)
(5.82342e+07 -1.21712e+06 4.44472e-12 -20364.9 6.44954e-12 1.4444e+07)
(-5.62806e+06 -2.35151e+06 1.40733e-11 48396.1 1.6312e-11 -1.38443e+06)
(3.34446e+07 -2.07666e+06 6.29912e-12 -211271 -7.28876e-12 8.24587e+06)
(199.297 -416.692 2.07587e-18 8514.8 1.39064e-16 2162.14)
(2.01292e+07 -1.5022e+06 -2.2339e-11 -481844 -7.92765e-12 4.87492e+06)
(-2.04487e+07 -1.48162e+06 4.0491e-12 434039 3.86038e-11 -4.96605e+06)
(-5.99804e+07 476675 1.34744e-12 195249 4.69591e-12 -1.48339e+07)
(-5.23106e+06 -2.14101e+06 -3.29356e-12 68519.7 5.24017e-12 -1.28093e+06)
(3.33115e+06 -4.33695e+06 1.2426e-13 6.10764e+06 -5.55855e-14 2.34196e+06)
(2.97266e+07 -2.40379e+06 6.6495e-12 -178816 -1.64764e-11 7.33141e+06)
(3.67076e+07 -1.7991e+06 6.54907e-12 -202491 2.0607e-11 9.05767e+06)
(3316.58 -54953.9 -2.11328e-14 1.3108e+06 4.80864e-14 326059)
(5.08532e+07 -1.02149e+06 -7.92403e-12 123996 9.17816e-12 1.26485e+07)
(-6.57834e+07 -86315.2 0 -532574 0 -1.64543e+07)
(879.113 -6044.21 0 51814.8 0 13074.4)
(-68362.3 -1.96809e+06 -1.96134e-11 226408 3.57266e-11 39214.4)
(342009 -1.59238e+06 -1.07194e-11 -29214.7 7.80127e-12 77610.5)
(79222.8 -635769 1.70108e-13 4.23065e+06 -1.60846e-13 1.06937e+06)
(353726 -2.34735e+06 -4.47657e-12 1.90729e+06 2.10518e-12 561004)
(2.55233e+07 -4.88651e+06 8.98127e-14 3.80097e+06 3.58114e-13 7.27594e+06)
(104091 -272238 -3.39908e-16 261756 1.34747e-14 90774.2)
(-4.64312e+07 -778081 2.92474e-12 54435.4 -1.52626e-12 -1.1507e+07)
(7.6557e+07 -2.08739e+07 5.05064e-13 8.28218e+06 -4.11006e-13 2.10503e+07)
(-2.84286e+07 1.11117e+06 0 2.08437e+06 0 -6.53653e+06)
(8.04161e+06 -1.75237e+06 3.67852e-12 223886 1.90929e-11 2.05084e+06)
(-5.67375e+07 1.03087e+06 -5.9687e-12 418401 -4.43819e-12 -1.39739e+07)
(-1.94342e+07 -1.8564e+06 2.56668e-12 145061 -5.36957e-12 -4.78603e+06)
(-1.38882e+07 2.18305e+06 2.30449e-12 3.58693e+06 3.74952e-12 -2.55596e+06)
(-2.47876e+07 -190835 -1.59532e-11 -737009 -4.87265e-13 -6.33318e+06)
(2.47335e+07 -191733 -7.04782e-12 741896 -3.25079e-12 6.32097e+06)
(3.93747e+07 -1.68772e+06 3.70507e-12 -74282.8 -6.31816e-12 9.75122e+06)
(530.896 -2822.09 4.78668e-17 13073.1 3.73513e-18 3375.42)
(16270.7 -44810.1 1.83061e-17 56995.8 1.95531e-15 18178.9)
(-2.54113e+07 -2.3801e+06 7.17246e-12 -70608.3 -3.59444e-12 -6.32258e+06)
(3.08279e+07 -1.86786e+06 6.29901e-12 102913 9.65996e-13 7.67457e+06)
(-3.10498e+07 -2.24166e+06 -2.35231e-12 -82379.9 -1.69601e-11 -7.72453e+06)
(2.45787e+07 -1.3051e+06 -6.23292e-12 223891 -2.97736e-11 6.15402e+06)
(-2.45393e+07 -1.21818e+06 1.6506e-11 -169675 1.70714e-11 -6.1308e+06)
(2.35178e+07 -5.04182e+06 -7.51641e-13 3.78068e+06 2.88355e-13 6.7733e+06)
(193.523 -898.96 -5.89345e-19 1863.46 -4.14214e-17 510.378)
(4.7159e+06 -2.09136e+06 -1.24699e-11 -86227.5 2.80181e-11 1.14871e+06)
(3.99916e+07 -1.64195e+06 -2.41774e-12 40389.7 1.70024e-11 9.93276e+06)
(1.73292e+07 -2.00098e+06 1.06809e-11 3.22247e+06 -3.95033e-12 5.09928e+06)
(8.26505e+06 -1.68338e+06 2.15598e-11 82981.4 -1.77573e-12 2.07132e+06)
(1.57154e+07 -1.68832e+06 4.43428e-12 -199161 1.56936e-11 3.84988e+06)
(-960100 -1.61606e+06 2.01118e-11 47315.2 -1.48642e-12 -226480)
(-16.4106 -251.226 8.56844e-18 1273.3 9.26016e-18 311.859)
(3.90844e+07 -1.81836e+06 -1.70758e-11 -31144.7 -5.29102e-13 9.6899e+06)
(2.7961e+07 -1.81066e+06 -8.20217e-12 27745.8 -4.91381e-12 6.94458e+06)
(-7.26467e+07 -781245 2.86273e-12 -123395 1.51549e-12 -1.80557e+07)
(-2.48207e+07 -2.33991e+06 -4.3302e-12 41296.6 -4.65728e-13 -6.14829e+06)
(138250 -248422 2.51238e-15 92897.9 -1.52634e-14 57352.5)
(5.57206e+07 -2.48495e+07 1.32895e-12 1.43662e+07 -2.0448e-12 1.739e+07)
(6.01909e+06 -2.50022e+06 5.24931e-12 -2784.15 5.20649e-12 1.49277e+06)
(-3.06175e+07 -1.86501e+06 6.01277e-12 -98653.5 -3.82237e-12 -7.62131e+06)
(6.04736e+07 -308136 -2.97434e-12 -74179.1 -1.08569e-12 1.49863e+07)
(3.53362e+07 -1.15889e+06 -6.7695e-12 13646.5 -3.80946e-12 8.77103e+06)
(85697.6 -293446 -2.21209e-16 377615 -2.2216e-14 114957)
(-4026.04 -89404.2 2.81604e-15 1.00618e+06 4.97593e-15 248654)
(-3.83836e+07 -2.2208e+06 2.9631e-12 63258.1 6.76794e-12 -9.50806e+06)
(-3.36373e+07 -248294 -2.96962e-11 -717252 -4.40744e-12 -8.52407e+06)
(3.36255e+07 -245997 -1.63644e-11 705638 1.17971e-11 8.51824e+06)
(-5.33655e+07 4.01048e+06 -7.84521e-14 256040 -1.04271e-13 -1.31775e+07)
(1.6075e+07 602898 2.04007e-12 7.07881e+06 -3.46555e-12 5.74492e+06)
(1.7987e+07 -2.93753e+06 -3.66278e-12 1.81482e+06 -2.15347e-12 4.91323e+06)
(-3.91322e+07 -564662 -9.65853e-12 -33349.4 5.06971e-12 -9.71776e+06)
(3.92052e+07 -598525 0 11280.1 0 9.73041e+06)
(-3.82603e+06 -2.87182e+06 -1.6464e-11 151173 9.40454e-12 -911806)
(-2.66906e+07 -2.45094e+06 -5.01871e-12 233604 -5.66754e-12 -6.56453e+06)
(-5.13463e+07 -1.14021e+06 -2.75505e-12 38675 -4.62415e-12 -1.27305e+07)
(3.84663e+07 -4.069e+06 6.40186e-13 8.39714e+06 1.39323e-12 1.16278e+07)
(-2226.73 -58408.2 -1.04087e-14 1.0371e+06 -2.09827e-14 256772)
(5.28749e+07 -1.4713e+06 5.56731e-12 122403 -7.41508e-12 1.31497e+07)
(-1.79029e+07 7.76379e+06 -1.14918e-12 100091 -2.0035e-13 -4.41723e+06)
(7.72093e+07 -858984 1.44173e-12 322184 1.83292e-13 1.92371e+07)
(3.07649e+06 -1.81048e+06 9.72683e-12 -82865.6 6.72309e-12 742778)
(-151.753 -52680 -3.02927e-15 485284 -3.06271e-15 120371)
(2.4472e+07 -1.60557e+06 2.31604e-11 53220.6 -4.78333e-12 6.08519e+06)
(-591255 -2.84747e+06 -8.91182e-12 36622.1 -6.13977e-12 -137616)
(1.74249e+07 -1.91063e+07 -1.8866e-12 2.25908e+07 1.79025e-12 9.92871e+06)
(2.19797e+06 -2.55708e+06 -3.79386e-14 3.30117e+06 5.12481e-14 1.36445e+06)
(1.32858e+07 -1.07798e+06 2.435e-13 5.79307e+06 2.54512e-12 4.73387e+06)
(-6.5592e+06 -1.36683e+06 -1.4777e-11 245761 1.17574e-12 -1.56649e+06)
(-4.9769e+07 -1.10885e+06 -2.41867e-12 54351.3 6.3945e-12 -1.23352e+07)
(3.57459e+07 -3.69858e+06 6.55874e-13 7.53336e+06 1.33672e-12 1.07385e+07)
(3.7709e+06 2.97026e+06 2.81852e-13 5.97625e+06 -4.48577e-13 2.41846e+06)
(3.85368e+07 -1.31103e+06 -1.26072e-11 -84640.4 8.34424e-12 9.54077e+06)
(-5.26016e+06 -2.43567e+06 1.96674e-12 51327.4 -5.06233e-12 -1.29242e+06)
(-6.26558e+07 717743 -3.94803e-12 302020 -1.82378e-12 -1.54712e+07)
(-2.25966e+07 -1.61116e+06 1.21224e-11 45340.8 -2.52136e-11 -5.59543e+06)
(-3.45202e+07 -1.17676e+06 -5.49087e-12 124847 -4.07293e-12 -8.53419e+06)
(-5.43436e+06 -2.34142e+06 2.78775e-12 461806 4.84209e-12 -1.23379e+06)
(1.72191e+07 -924979 -9.47337e-12 161620 -1.98448e-11 4.31252e+06)
(-2.20348e+06 7.82512e+06 -2.5232e-12 1.90305e+06 1.45971e-14 -74543.8)
(-1.61413e+06 -2.12951e+06 -1.0796e-11 -258065 1.12347e-11 -464530)
(-4.94697e+07 -1.29126e+06 -2.87791e-12 370008 -1.98213e-12 -1.21826e+07)
(-2.11353e+07 1.47488e+06 2.45286e-12 2.51815e+06 -1.11839e-12 -4.61928e+06)
(93706.6 -366266 1.6079e-15 604772 3.13124e-14 173307)
(7.36064e+07 -321722 0 76946.8 0 1.82823e+07)
(-2.12549e+07 794103 8.79251e-15 -3.19646e+06 -2.69954e-13 -6.06689e+06)
(1.22139e+07 -2.91236e+06 -5.69031e-12 -163807 -2.26084e-12 2.98987e+06)
(-4.47603e+07 -1.23005e+06 -3.88565e-12 -296277 1.10943e-11 -1.11795e+07)
(-3.92069e+07 80487.1 -2.56577e-14 1.42063e+06 9.30799e-13 -9.37555e+06)
(-4.45019e+06 -2.01011e+06 8.89361e-12 -14301.6 9.73747e-12 -1.10773e+06)
(-6.55995e+07 -120451 -4.60306e-12 210563 -4.27416e-13 -1.62243e+07)
(-1.01765e+07 7.14378e+06 2.21424e-12 2.44449e+06 1.05148e-12 -1.91848e+06)
(-6.23814e+07 -1.11139e+06 -4.46213e-12 170329 -5.81302e-12 -1.54358e+07)
(674219 -1.22982e+06 6.54454e-14 2.41941e+06 -7.21899e-14 767593)
(-6.12707e+07 -1.42462e+06 4.34759e-12 105806 3.49232e-12 -1.51762e+07)
(6.11807e+07 -1.34249e+06 -3.96026e-12 -84618.7 -3.50308e-12 1.51592e+07)
(4151.73 -25177.7 -1.76457e-16 58543.3 9.06037e-17 15555.9)
(3.02447e+07 -1.73789e+06 -1.9202e-11 134732 -1.59462e-11 7.53775e+06)
(-3.02969e+07 -1.7823e+06 -1.48367e-11 -199222 -2.22669e-11 -7.56672e+06)
(520893 -1.56526e+06 1.49195e-13 4.83348e+06 -1.08661e-13 1.32853e+06)
(2.08264e+07 -2.27787e+06 -8.60879e-14 1.9423e+06 -3.9957e-13 5.64937e+06)
(1.03217e+07 -2.62451e+06 -1.31141e-12 11977.7 -6.7377e-12 2.564e+06)
(-2.58643e+07 7.59641e+06 2.45577e-13 385849 -4.61277e-13 -6.32173e+06)
(2.17557e+07 888821 5.36612e-13 6.18735e+06 -1.69472e-12 6.93325e+06)
(3.68923e+07 -1.99743e+06 -8.03182e-13 236589 -1.33174e-11 9.21244e+06)
(3834.05 -51928.1 -2.02431e-15 382644 -4.2043e-15 95893.1)
(2.72207e+07 -1.38498e+06 -1.9477e-12 187898 1.0616e-11 6.80062e+06)
(9423.6 -27462.3 -1.59715e-15 1.23859e+06 1.12871e-15 309658)
(289.562 -1943.99 5.60785e-17 9184.83 1.92745e-16 2350.79)
(-5.21161e+07 1.33156e+06 5.09711e-12 1.01852e+06 2.39615e-12 -1.26783e+07)
(6.49834e+06 3.51557e+06 2.60611e-12 5.87535e+06 -9.24798e-13 3.07016e+06)
(2.24497e+07 -165513 1.92671e-11 201027 -1.81567e-12 5.6201e+06)
(-2.25142e+07 -165573 -3.69956e-12 -203195 -2.12408e-12 -5.63665e+06)
(-8.01248e+06 -2.47245e+06 -1.51078e-11 118592 3.18328e-12 -1.95863e+06)
(3.43514e+07 -558322 -9.65643e-12 -72733.5 -6.22541e-12 8.50524e+06)
(6.07491e+07 -529406 9.29119e-12 -15250.9 -2.73979e-12 1.50693e+07)
(-6.08321e+07 -592016 -5.61732e-12 41717.2 3.49668e-12 -1.50833e+07)
(6.21181e+07 -7.0017e+06 -1.60782e-12 6.90657e+06 4.75921e-12 1.71264e+07)
(3.11144e+07 -1.93361e+06 -4.96212e-12 -71714.5 4.50404e-12 7.70232e+06)
(-1.73178e+07 2.60326e+06 -3.48682e-12 3.93411e+06 2.80562e-12 -3.32078e+06)
(4.59957e+07 -1.46306e+06 4.88118e-12 -32084.2 -3.79577e-13 1.14045e+07)
(-2.70046e+07 -2.48412e+06 -7.42287e-12 217500 -1.69131e-11 -6.64644e+06)
(304.82 -2574.86 3.67777e-17 6831.07 7.38822e-17 1770.56)
(2.70644e+07 -1.11494e+06 2.22612e-12 7.87399e+06 8.01317e-13 8.66892e+06)
(-6.44252e+07 -404766 1.15315e-12 6951.86 -2.8906e-12 -1.59835e+07)
(2.21073e+07 -1.39576e+06 6.21372e-12 -83278.4 3.47172e-11 5.4646e+06)
(-2.23259e+07 -1.33465e+06 -1.81918e-12 -107836 2.62545e-11 -5.56628e+06)
(-1.90176e+07 -2.18138e+06 -2.11377e-11 -204411 6.65343e-12 -4.76936e+06)
(-5.35539e+06 -1.82791e+06 2.96424e-12 -13982.9 1.03583e-13 -1.33225e+06)
(6.36271e+06 -1.99596e+06 -7.75503e-12 -256462 -1.37144e-11 1.51508e+06)
(6.96222e+07 -60556.1 -2.03956e-11 580089 -1.02513e-12 1.74186e+07)
(-5.31518e+07 -187926 -8.45832e-12 95437.9 2.6002e-12 -1.31644e+07)
(275.572 -2285.91 3.93112e-17 8595.97 4.00255e-16 2201.21)
(2.83504e+06 -2.88043e+06 0 168705 0 745291)
(-7.29708e+06 -2.21562e+06 -1.80979e-11 -19748 -1.79346e-11 -1.81545e+06)
(-1.93334e+07 7.8947e+06 7.65382e-13 -530239 7.27445e-13 -4.92857e+06)
(-1.78773e+07 -1.34453e+06 2.78903e-11 -249090 -2.20218e-11 -4.49752e+06)
(46.1662 -323.758 -9.86906e-18 2229.43 3.96057e-17 564.621)
(7.92611e+07 -1.97044e+07 -1.22406e-12 8.41218e+06 1.60256e-12 2.17535e+07)
(2.62882e+07 -1.93353e+06 -4.3152e-13 91839.6 2.27125e-11 6.54543e+06)
(-2.62038e+07 -1.77002e+06 2.07227e-12 115438 4.37215e-12 -6.47304e+06)
(3.83256e+07 -2.09273e+06 3.01631e-12 1.2869e+06 2.12928e-12 9.82867e+06)
(-3.49765e+07 5.06742e+06 -2.00065e-12 1.48912e+06 -3.98835e-13 -8.3089e+06)
(2.30204e+07 -451669 -3.55167e-12 5.07099e+06 -1.7903e-13 6.97004e+06)