0 	31.9349 	-2.73796e-07 	2.09389e-18
0.000254254 	31.9407 	-2.74147e-07 	4.35576e-15
0.000508509 	31.9465 	-2.74147e-07 	4.35576e-15
0.000762763 	31.9522 	-2.74147e-07 	4.35576e-15
0.00101702 	31.958 	-2.74147e-07 	4.35576e-15
0.00127127 	31.9638 	-2.74147e-07 	4.35576e-15
0.00152553 	31.9696 	-2.74147e-07 	4.35576e-15
0.00177978 	31.9753 	-2.74147e-07 	4.35576e-15
0.00203403 	31.9811 	-2.74147e-07 	4.35576e-15
0.00228829 	31.9869 	-2.74147e-07 	4.35576e-15
0.00254254 	31.9927 	-2.74147e-07 	4.35576e-15
0.0027968 	32.0061 	-2.79593e-07 	4.35891e-15
0.00305105 	32.0203 	-2.79593e-07 	4.35891e-15
0.00330531 	32.0346 	-2.79593e-07 	4.35891e-15
0.00355956 	32.0488 	-2.79593e-07 	4.35891e-15
0.00381381 	32.063 	-2.79593e-07 	4.35891e-15
0.00406807 	32.0772 	-2.79593e-07 	4.35891e-15
0.00432232 	32.0914 	-2.79593e-07 	4.35891e-15
0.00457658 	32.1056 	-2.79593e-07 	4.35891e-15
0.00483083 	32.1198 	-2.79593e-07 	4.35891e-15
0.00508509 	32.1341 	-2.79593e-07 	4.35891e-15
0.00533934 	32.1508 	-3.02975e-07 	4.41193e-15
0.00559359 	32.1681 	-3.02975e-07 	4.41193e-15
0.00584785 	32.1854 	-3.02975e-07 	4.41193e-15
0.0061021 	32.2027 	-3.02975e-07 	4.41193e-15
0.00635636 	32.22 	-3.02975e-07 	4.41193e-15
0.00661061 	32.2373 	-3.02975e-07 	4.41193e-15
0.00686486 	32.2546 	-3.02975e-07 	4.41193e-15
0.00711912 	32.2719 	-3.02975e-07 	4.41193e-15
0.00737337 	32.2892 	-3.02975e-07 	4.41192e-15
0.00762763 	32.3065 	-3.02975e-07 	4.41192e-15
0.00788188 	32.3246 	-3.43379e-07 	4.42252e-15
0.00813614 	32.3429 	-3.43379e-07 	4.42252e-15
0.00839039 	32.3612 	-3.43379e-07 	4.42252e-15
0.00864464 	32.3795 	-3.43379e-07 	4.42251e-15
0.0088989 	32.3979 	-3.43379e-07 	4.42251e-15
0.00915315 	32.4162 	-3.43379e-07 	4.42251e-15
0.00940741 	32.4345 	-3.43379e-07 	4.42251e-15
0.00966166 	32.4529 	-3.43379e-07 	4.42251e-15
0.00991592 	32.4712 	-3.43379e-07 	4.42251e-15
0.0101702 	32.4895 	-3.43379e-07 	4.42251e-15
0.0104244 	32.509 	-3.96939e-07 	4.48906e-15
0.0106787 	32.5292 	-3.96939e-07 	4.48905e-15
0.0109329 	32.5494 	-3.96939e-07 	4.48905e-15
0.0111872 	32.5695 	-3.96939e-07 	4.48905e-15
0.0114414 	32.5897 	-3.96939e-07 	4.48905e-15
0.0116957 	32.6099 	-3.96939e-07 	4.48905e-15
0.0119499 	32.6301 	-3.96939e-07 	4.48905e-15
0.0122042 	32.6502 	-3.96939e-07 	4.48905e-15
0.0124585 	32.6704 	-3.96939e-07 	4.48904e-15
0.0127127 	32.6906 	-3.96939e-07 	4.48904e-15
0.012967 	32.7123 	-4.60185e-07 	4.54657e-15
0.0132212 	32.7354 	-4.60185e-07 	4.54656e-15
0.0134755 	32.7585 	-4.60185e-07 	4.54656e-15
0.0137297 	32.7816 	-4.60185e-07 	4.54656e-15
0.013984 	32.8047 	-4.60185e-07 	4.54656e-15
0.0142382 	32.8278 	-4.60185e-07 	4.54656e-15
0.0144925 	32.8509 	-4.60185e-07 	4.54656e-15
0.0147467 	32.874 	-4.60185e-07 	4.54656e-15
0.015001 	32.8971 	-4.60185e-07 	4.54655e-15
0.0152553 	32.9202 	-4.60185e-07 	4.54655e-15
0.0155095 	32.9449 	-5.30487e-07 	4.5758e-15
0.0157638 	32.9716 	-5.30487e-07 	4.5758e-15
0.016018 	32.9983 	-5.30487e-07 	4.5758e-15
0.0162723 	33.0251 	-5.30487e-07 	4.5758e-15
0.0165265 	33.0518 	-5.30487e-07 	4.57579e-15
0.0167808 	33.0785 	-5.30487e-07 	4.57579e-15
0.017035 	33.1052 	-5.30487e-07 	4.57579e-15
0.0172893 	33.1319 	-5.30487e-07 	4.57579e-15
0.0175435 	33.1586 	-5.30487e-07 	4.57579e-15
0.0177978 	33.1853 	-5.30487e-07 	4.57578e-15
0.0180521 	33.2135 	-6.06009e-07 	4.60905e-15
0.0183063 	33.2442 	-6.06009e-07 	4.60905e-15
0.0185606 	33.2749 	-6.06009e-07 	4.60905e-15
0.0188148 	33.3056 	-6.06009e-07 	4.60905e-15
0.0190691 	33.3363 	-6.06009e-07 	4.60904e-15
0.0193233 	33.367 	-6.06009e-07 	4.60904e-15
0.0195776 	33.3977 	-6.06009e-07 	4.60904e-15
0.0198318 	33.4284 	-6.06009e-07 	4.60904e-15
0.0200861 	33.4591 	-6.06009e-07 	4.60904e-15
0.0203403 	33.4898 	-6.06009e-07 	4.60903e-15
0.0205946 	33.5217 	-6.85592e-07 	4.64959e-15
0.0208488 	33.5566 	-6.85592e-07 	4.64959e-15
0.0211031 	33.5915 	-6.85592e-07 	4.64959e-15
0.0213574 	33.6264 	-6.85592e-07 	4.64959e-15
0.0216116 	33.6614 	-6.85592e-07 	4.64959e-15
0.0218659 	33.6963 	-6.85592e-07 	4.64958e-15
0.0221201 	33.7312 	-6.85592e-07 	4.64958e-15
0.0223744 	33.7662 	-6.85592e-07 	4.64958e-15
0.0226286 	33.8011 	-6.85592e-07 	4.64958e-15
0.0228829 	33.836 	-6.85592e-07 	4.64957e-15
0.0231371 	33.8718 	-7.68569e-07 	4.69747e-15
0.0233914 	33.9111 	-7.68569e-07 	4.69747e-15
0.0236456 	33.9505 	-7.68569e-07 	4.69746e-15
0.0238999 	33.9898 	-7.68569e-07 	4.69746e-15
0.0241542 	34.0291 	-7.68569e-07 	4.69746e-15
0.0244084 	34.0685 	-7.68569e-07 	4.69746e-15
0.0246627 	34.1078 	-7.68569e-07 	4.69745e-15
0.0249169 	34.1472 	-7.68569e-07 	4.69745e-15
0.0251712 	34.1865 	-7.68569e-07 	4.69745e-15
0.0254254 	34.2259 	-7.68569e-07 	4.69745e-15
0.0256797 	34.2656 	-8.54395e-07 	4.75283e-15
0.0259339 	34.3096 	-8.54395e-07 	4.75283e-15
0.0261882 	34.3535 	-8.54395e-07 	4.75283e-15
0.0264424 	34.3975 	-8.54395e-07 	4.75282e-15
0.0266967 	34.4414 	-8.54395e-07 	4.75282e-15
0.026951 	34.4853 	-8.54395e-07 	4.75282e-15
0.0272052 	34.5293 	-8.54395e-07 	4.75282e-15
0.0274595 	34.5732 	-8.54395e-07 	4.75281e-15
0.0277137 	34.6172 	-8.54395e-07 	4.75281e-15
0.027968 	34.6611 	-8.54395e-07 	4.75281e-15
0.0282222 	34.7051 	-9.92655e-07 	5.12309e-19
0.0284765 	34.7538 	-9.41738e-07 	4.81568e-15
0.0287307 	34.8025 	-9.41738e-07 	4.81568e-15
0.028985 	34.8512 	-9.41738e-07 	4.81567e-15
0.0292392 	34.8999 	-9.41738e-07 	4.81567e-15
0.0294935 	34.9486 	-9.41738e-07 	4.81567e-15
0.0297477 	34.9974 	-9.41738e-07 	4.81567e-15
0.030002 	35.0461 	-9.41738e-07 	4.81566e-15
0.0302563 	35.0948 	-9.41738e-07 	4.81566e-15
0.0305105 	35.1435 	-9.41738e-07 	4.81566e-15
0.0307648 	35.1922 	-9.41738e-07 	4.81565e-15
0.031019 	35.2454 	-1.02848e-06 	4.93006e-15
0.0312733 	35.2991 	-1.02848e-06 	4.93006e-15
0.0315275 	35.3528 	-1.02848e-06 	4.93006e-15
0.0317818 	35.4065 	-1.02848e-06 	4.93005e-15
0.032036 	35.4601 	-1.02848e-06 	4.93005e-15
0.0322903 	35.5138 	-1.02848e-06 	4.93005e-15
0.0325445 	35.5675 	-1.02848e-06 	4.93004e-15
0.0327988 	35.6212 	-1.02848e-06 	4.93004e-15
0.0330531 	35.6748 	-1.02848e-06 	4.93004e-15
0.0333073 	35.7285 	-1.02848e-06 	4.93003e-15
0.0335616 	35.7864 	-1.11675e-06 	4.96253e-15
0.0338158 	35.8452 	-1.11675e-06 	4.96252e-15
0.0340701 	35.904 	-1.11675e-06 	4.96252e-15
0.0343243 	35.9628 	-1.11675e-06 	4.96252e-15
0.0345786 	36.0217 	-1.11675e-06 	4.96251e-15
0.0348328 	36.0805 	-1.11675e-06 	4.96251e-15
0.0350871 	36.1393 	-1.11675e-06 	4.9625e-15
0.0353413 	36.1981 	-1.11675e-06 	4.9625e-15
0.0355956 	36.2569 	-1.11675e-06 	4.9625e-15
0.0358498 	36.3158 	-1.11675e-06 	4.96249e-15
0.0361041 	36.3785 	-1.20759e-06 	5.09887e-15
0.0363584 	36.4426 	-1.20759e-06 	5.09886e-15
0.0366126 	36.5068 	-1.20759e-06 	5.09886e-15
0.0368669 	36.5709 	-1.20759e-06 	5.09885e-15
0.0371211 	36.6351 	-1.20759e-06 	5.09885e-15
0.0373754 	36.6993 	-1.20759e-06 	5.09885e-15
0.0376296 	36.7634 	-1.20759e-06 	5.09884e-15
0.0378839 	36.8276 	-1.20759e-06 	5.09884e-15
0.0381381 	36.8917 	-1.20759e-06 	5.09883e-15
0.0383924 	36.9559 	-1.20759e-06 	5.09883e-15
0.0386466 	37.0236 	-1.30277e-06 	5.23447e-15
0.0389009 	37.0933 	-1.30277e-06 	5.23447e-15
0.0391552 	37.163 	-1.30277e-06 	5.23447e-15
0.0394094 	37.2327 	-1.30277e-06 	5.23446e-15
0.0396637 	37.3024 	-1.30277e-06 	5.23446e-15
0.0399179 	37.3721 	-1.30277e-06 	5.23445e-15
0.0401722 	37.4418 	-1.30277e-06 	5.23445e-15
0.0404264 	37.5115 	-1.30277e-06 	5.23444e-15
0.0406807 	37.5812 	-1.30277e-06 	5.23444e-15
0.0409349 	37.6509 	-1.30277e-06 	5.23443e-15
0.0411892 	37.7238 	-1.40171e-06 	5.38323e-15
0.0414434 	37.7992 	-1.40171e-06 	5.38322e-15
0.0416977 	37.8747 	-1.40171e-06 	5.38322e-15
0.041952 	37.9502 	-1.40171e-06 	5.38321e-15
0.0422062 	38.0257 	-1.40171e-06 	5.38321e-15
0.0424605 	38.1011 	-1.40171e-06 	5.3832e-15
0.0427147 	38.1766 	-1.40171e-06 	5.3832e-15
0.042969 	38.2521 	-1.40171e-06 	5.38319e-15
0.0432232 	38.3275 	-1.40171e-06 	5.38319e-15
0.0434775 	38.403 	-1.40171e-06 	5.38318e-15
0.0437317 	38.4812 	-1.50411e-06 	5.50103e-15
0.043986 	38.5626 	-1.50411e-06 	5.50102e-15
0.0442402 	38.6441 	-1.50411e-06 	5.50102e-15
0.0444945 	38.7256 	-1.50411e-06 	5.50101e-15
0.0447487 	38.807 	-1.50411e-06 	5.50101e-15
0.045003 	38.8885 	-1.50411e-06 	5.501e-15
0.0452573 	38.9699 	-1.50411e-06 	5.501e-15
0.0455115 	39.0514 	-1.50411e-06 	5.50099e-15
0.0457658 	39.1328 	-1.50411e-06 	5.50099e-15
0.04602 	39.2143 	-1.50411e-06 	5.50098e-15
0.0462743 	39.298 	-1.60987e-06 	5.59645e-15
0.0465285 	39.3857 	-1.60987e-06 	5.59645e-15
0.0467828 	39.4734 	-1.60987e-06 	5.59644e-15
0.047037 	39.5611 	-1.60987e-06 	5.59644e-15
0.0472913 	39.6488 	-1.60987e-06 	5.59643e-15
0.0475455 	39.7364 	-1.60987e-06 	5.59642e-15
0.0477998 	39.8241 	-1.60987e-06 	5.59642e-15
0.0480541 	39.9118 	-1.60987e-06 	5.59641e-15
0.0483083 	39.9995 	-1.60987e-06 	5.59641e-15
0.0485626 	40.0872 	-1.60987e-06 	5.5964e-15
0.0488168 	40.1766 	-1.71881e-06 	5.68092e-15
0.0490711 	40.2708 	-1.71881e-06 	5.68091e-15
0.0493253 	40.365 	-1.71881e-06 	5.68091e-15
0.0495796 	40.4591 	-1.71881e-06 	5.6809e-15
0.0498338 	40.5533 	-1.71881e-06 	5.68089e-15
0.0500881 	40.6474 	-1.71881e-06 	5.68089e-15
0.0503423 	40.7416 	-1.71881e-06 	5.68088e-15
0.0505966 	40.8357 	-1.71881e-06 	5.68088e-15
0.0508509 	40.9299 	-1.71881e-06 	5.68087e-15
0.0511051 	41.0241 	-1.71881e-06 	5.68086e-15
0.0513594 	41.1194 	-1.83066e-06 	5.80806e-15
0.0516136 	41.2203 	-1.83066e-06 	5.80805e-15
0.0518679 	41.3212 	-1.83066e-06 	5.80805e-15
0.0521221 	41.4221 	-1.83066e-06 	5.80804e-15
0.0523764 	41.523 	-1.83066e-06 	5.80803e-15
0.0526306 	41.6239 	-1.83066e-06 	5.80803e-15
0.0528849 	41.7247 	-1.83066e-06 	5.80802e-15
0.0531391 	41.8256 	-1.83066e-06 	5.80801e-15
0.0533934 	41.9265 	-1.83066e-06 	5.80801e-15
0.0536476 	42.0274 	-1.83066e-06 	5.808e-15
0.0539019 	42.1289 	-1.94494e-06 	5.91178e-15
0.0541562 	42.2368 	-1.94494e-06 	5.91178e-15
0.0544104 	42.3446 	-1.94494e-06 	5.91177e-15
0.0546647 	42.4525 	-1.94494e-06 	5.91176e-15
0.0549189 	42.5604 	-1.94494e-06 	5.91176e-15
0.0551732 	42.6682 	-1.94494e-06 	5.91175e-15
0.0554274 	42.7761 	-1.94494e-06 	5.91174e-15
0.0556817 	42.884 	-1.94494e-06 	5.91173e-15
0.0559359 	42.9918 	-1.94494e-06 	5.91173e-15
0.0561902 	43.0997 	-1.94494e-06 	5.91172e-15
0.0564444 	43.2076 	-2.31515e-06 	3.0506e-20
0.0566987 	43.3227 	-2.06091e-06 	6.06014e-15
0.056953 	43.4378 	-2.06091e-06 	6.06013e-15
0.0572072 	43.5529 	-2.06091e-06 	6.06013e-15
0.0574615 	43.668 	-2.06091e-06 	6.06012e-15
0.0577157 	43.7831 	-2.06091e-06 	6.06011e-15
0.05797 	43.8982 	-2.06091e-06 	6.0601e-15
0.0582242 	44.0133 	-2.06091e-06 	6.0601e-15
0.0584785 	44.1284 	-2.06091e-06 	6.06009e-15
0.0587327 	44.2435 	-2.06091e-06 	6.06008e-15
0.058987 	44.3586 	-2.06091e-06 	6.06008e-15
0.0592412 	44.4805 	-2.17754e-06 	6.22203e-15
0.0594955 	44.6031 	-2.17754e-06 	6.22202e-15
0.0597497 	44.7257 	-2.17754e-06 	6.22201e-15
0.060004 	44.8483 	-2.17754e-06 	6.222e-15
0.0602583 	44.9709 	-2.17754e-06 	6.222e-15
0.0605125 	45.0935 	-2.17754e-06 	6.22199e-15
0.0607668 	45.2161 	-2.17754e-06 	6.22198e-15
0.061021 	45.3387 	-2.17754e-06 	6.22197e-15
0.0612753 	45.4613 	-2.17754e-06 	6.22196e-15
0.0615295 	45.5839 	-2.17754e-06 	6.22196e-15
0.0617838 	45.7128 	-2.29495e-06 	6.45713e-15
0.062038 	45.8431 	-2.29495e-06 	6.45712e-15
0.0622923 	45.9734 	-2.29495e-06 	6.45711e-15
0.0625465 	46.1038 	-2.29495e-06 	6.4571e-15
0.0628008 	46.2341 	-2.29495e-06 	6.4571e-15
0.0630551 	46.3644 	-2.29495e-06 	6.45709e-15
0.0633093 	46.4948 	-2.29495e-06 	6.45708e-15
0.0635636 	46.6251 	-2.29495e-06 	6.45707e-15
0.0638178 	46.7554 	-2.29495e-06 	6.45706e-15
0.0640721 	46.8858 	-2.29495e-06 	6.45705e-15
0.0643263 	47.0219 	-2.41293e-06 	6.60033e-15
0.0645806 	47.1602 	-2.41293e-06 	6.60033e-15
0.0648348 	47.2985 	-2.41293e-06 	6.60032e-15
0.0650891 	47.4368 	-2.41293e-06 	6.60031e-15
0.0653433 	47.5751 	-2.41293e-06 	6.6003e-15
0.0655976 	47.7134 	-2.41293e-06 	6.60029e-15
0.0658519 	47.8517 	-2.41293e-06 	6.60028e-15
0.0661061 	47.99 	-2.41293e-06 	6.60027e-15
0.0663604 	48.1283 	-2.41293e-06 	6.60026e-15
0.0666146 	48.2666 	-2.41293e-06 	6.60025e-15
0.0668689 	48.4101 	-2.53096e-06 	6.78646e-15
0.0671231 	48.5566 	-2.53096e-06 	6.78645e-15
0.0673774 	48.703 	-2.53096e-06 	6.78644e-15
0.0676316 	48.8495 	-2.53096e-06 	6.78643e-15
0.0678859 	48.996 	-2.53096e-06 	6.78642e-15
0.0681401 	49.1425 	-2.53096e-06 	6.78641e-15
0.0683944 	49.289 	-2.53096e-06 	6.7864e-15
0.0686486 	49.4355 	-2.53096e-06 	6.78639e-15
0.0689029 	49.582 	-2.53096e-06 	6.78638e-15
0.0691572 	49.7285 	-2.53096e-06 	6.78638e-15
0.0694114 	49.8795 	-2.64708e-06 	6.99147e-15
0.0696657 	50.0344 	-2.64708e-06 	6.99146e-15
0.0699199 	50.1894 	-2.64708e-06 	6.99145e-15
0.0701742 	50.3443 	-2.64708e-06 	6.99144e-15
0.0704284 	50.4992 	-2.64708e-06 	6.99143e-15
0.0706827 	50.6541 	-2.64708e-06 	6.99142e-15
0.0709369 	50.809 	-2.64708e-06 	6.99141e-15
0.0711912 	50.9639 	-2.64708e-06 	6.9914e-15
0.0714454 	51.1188 	-2.64708e-06 	6.99139e-15
0.0716997 	51.2737 	-2.64708e-06 	6.99138e-15
0.071954 	51.4325 	-2.75206e-06 	7.20565e-15
0.0722082 	51.596 	-2.75206e-06 	7.20564e-15
0.0724625 	51.7596 	-2.75206e-06 	7.20563e-15
0.0727167 	51.9231 	-2.75206e-06 	7.20562e-15
0.072971 	52.0866 	-2.75206e-06 	7.20561e-15
0.0732252 	52.2501 	-2.75206e-06 	7.2056e-15
0.0734795 	52.4136 	-2.75206e-06 	7.20559e-15
0.0737337 	52.5771 	-2.75206e-06 	7.20558e-15
0.073988 	52.7406 	-2.75206e-06 	7.20557e-15
0.0742422 	52.9042 	-2.75206e-06 	7.20556e-15
0.0744965 	53.0708 	-2.83764e-06 	7.43022e-15
0.0747508 	53.2431 	-2.83764e-06 	7.43021e-15
0.075005 	53.4153 	-2.83764e-06 	7.4302e-15
0.0752593 	53.5875 	-2.83764e-06 	7.43018e-15
0.0755135 	53.7598 	-2.83764e-06 	7.43017e-15
0.0757678 	53.932 	-2.83764e-06 	7.43016e-15
0.076022 	54.1042 	-2.83764e-06 	7.43015e-15
0.0762763 	54.2765 	-2.83764e-06 	7.43014e-15
0.0765305 	54.4487 	-2.83764e-06 	7.43013e-15
0.0767848 	54.6209 	-2.83764e-06 	7.43012e-15
0.077039 	54.7955 	-2.88621e-06 	7.61258e-15
0.0772933 	54.9765 	-2.88621e-06 	7.61257e-15
0.0775475 	55.1575 	-2.88621e-06 	7.61256e-15
0.0778018 	55.3384 	-2.88621e-06 	7.61254e-15
0.0780561 	55.5194 	-2.88621e-06 	7.61253e-15
0.0783103 	55.7003 	-2.88621e-06 	7.61252e-15
0.0785646 	55.8813 	-2.88621e-06 	7.61251e-15
0.0788188 	56.0623 	-2.88621e-06 	7.6125e-15
0.0790731 	56.2432 	-2.88621e-06 	7.61249e-15
0.0793273 	56.4242 	-2.88621e-06 	7.61247e-15
0.0795816 	56.6067 	-2.91174e-06 	7.84905e-15
0.0798358 	56.7962 	-2.91174e-06 	7.84904e-15
0.0800901 	56.9858 	-2.91174e-06 	7.84902e-15
0.0803443 	57.1753 	-2.91174e-06 	7.84901e-15
0.0805986 	57.3648 	-2.91174e-06 	7.849e-15
0.0808529 	57.5544 	-2.91174e-06 	7.84899e-15
0.0811071 	57.7439 	-2.91174e-06 	7.84898e-15
0.0813614 	57.9335 	-2.91174e-06 	7.84896e-15
0.0816156 	58.123 	-2.91174e-06 	7.84895e-15
0.0818699 	58.3125 	-2.91174e-06 	7.84894e-15
0.0821241 	58.5028 	-2.93602e-06 	8.0909e-15
0.0823784 	58.7007 	-2.93602e-06 	8.09089e-15
0.0826326 	58.8986 	-2.93602e-06 	8.09087e-15
0.0828869 	59.0965 	-2.93602e-06 	8.09086e-15
0.0831411 	59.2944 	-2.93602e-06 	8.09085e-15
0.0833954 	59.4922 	-2.93602e-06 	8.09083e-15
0.0836496 	59.6901 	-2.93602e-06 	8.09082e-15
0.0839039 	59.888 	-2.93602e-06 	8.09081e-15
0.0841582 	60.0859 	-2.93602e-06 	8.0908e-15
0.0844124 	60.2837 	-2.93602e-06 	8.09078e-15
0.0846667 	60.4816 	-3.85026e-06 	2.26648e-17
0.0849209 	60.6876 	-2.9359e-06 	8.33237e-15
0.0851752 	60.8935 	-2.9359e-06 	8.33236e-15
0.0854294 	61.0995 	-2.9359e-06 	8.33234e-15
0.0856837 	61.3055 	-2.9359e-06 	8.33233e-15
0.0859379 	61.5114 	-2.9359e-06 	8.33232e-15
0.0861922 	61.7174 	-2.9359e-06 	8.3323e-15
0.0864464 	61.9233 	-2.9359e-06 	8.33229e-15
0.0867007 	62.1293 	-2.9359e-06 	8.33228e-15
0.086955 	62.3352 	-2.9359e-06 	8.33226e-15
0.0872092 	62.5412 	-2.9359e-06 	8.33225e-15
0.0874635 	62.7541 	-2.93625e-06 	8.57473e-15
0.0877177 	62.9677 	-2.93625e-06 	8.57472e-15
0.087972 	63.1814 	-2.93625e-06 	8.5747e-15
0.0882262 	63.395 	-2.93625e-06 	8.57469e-15
0.0884805 	63.6086 	-2.93625e-06 	8.57468e-15
0.0887347 	63.8223 	-2.93625e-06 	8.57466e-15
0.088989 	64.0359 	-2.93625e-06 	8.57465e-15
0.0892432 	64.2495 	-2.93625e-06 	8.57463e-15
0.0894975 	64.4631 	-2.93625e-06 	8.57462e-15
0.0897518 	64.6768 	-2.93625e-06 	8.57461e-15
0.090006 	64.8962 	-2.95247e-06 	8.81752e-15
0.0902603 	65.1169 	-2.95247e-06 	8.8175e-15
0.0905145 	65.3376 	-2.95247e-06 	8.81749e-15
0.0907688 	65.5583 	-2.95247e-06 	8.81747e-15
0.091023 	65.779 	-2.95247e-06 	8.81746e-15
0.0912773 	65.9997 	-2.95247e-06 	8.81744e-15
0.0915315 	66.2204 	-2.95247e-06 	8.81743e-15
0.0917858 	66.4411 	-2.95247e-06 	8.81742e-15
0.09204 	66.6618 	-2.95247e-06 	8.8174e-15
0.0922943 	66.8825 	-2.95247e-06 	8.81739e-15
0.0925485 	67.1077 	-2.94084e-06 	9.05967e-15
0.0928028 	67.3347 	-2.94084e-06 	9.05966e-15
0.0930571 	67.5618 	-2.94084e-06 	9.05964e-15
0.0933113 	67.7888 	-2.94084e-06 	9.05963e-15
0.0935656 	68.0158 	-2.94084e-06 	9.05961e-15
0.0938198 	68.2428 	-2.94084e-06 	9.0596e-15
0.0940741 	68.4698 	-2.94084e-06 	9.05959e-15
0.0943283 	68.6968 	-2.94084e-06 	9.05957e-15
0.0945826 	68.9238 	-2.94084e-06 	9.05956e-15
0.0948368 	69.1508 	-2.94084e-06 	9.05954e-15
0.0950911 	69.3812 	-2.89732e-06 	9.24669e-15
0.0953453 	69.6134 	-2.89732e-06 	9.24668e-15
0.0955996 	69.8457 	-2.89732e-06 	9.24666e-15
0.0958539 	70.0779 	-2.89732e-06 	9.24665e-15
0.0961081 	70.3102 	-2.89732e-06 	9.24663e-15
0.0963624 	70.5425 	-2.89732e-06 	9.24662e-15
0.0966166 	70.7747 	-2.89732e-06 	9.2466e-15
0.0968709 	71.007 	-2.89732e-06 	9.24659e-15
0.0971251 	71.2393 	-2.89732e-06 	9.24657e-15
0.0973794 	71.4715 	-2.89732e-06 	9.24656e-15
0.0976336 	71.7059 	-2.82673e-06 	9.52152e-15
0.0978879 	71.9419 	-2.82673e-06 	9.5215e-15
0.0981421 	72.178 	-2.82673e-06 	9.52148e-15
0.0983964 	72.414 	-2.82673e-06 	9.52147e-15
0.0986507 	72.6501 	-2.82673e-06 	9.52145e-15
0.0989049 	72.8862 	-2.82673e-06 	9.52144e-15
0.0991592 	73.1222 	-2.82673e-06 	9.52142e-15
0.0994134 	73.3583 	-2.82673e-06 	9.52141e-15
0.0996677 	73.5943 	-2.82673e-06 	9.52139e-15
0.0999219 	73.8304 	-2.82673e-06 	9.52138e-15
0.100176 	74.0674 	-2.7158e-06 	9.80401e-15
0.10043 	74.3054 	-2.7158e-06 	9.80399e-15
0.100685 	74.5435 	-2.7158e-06 	9.80397e-15
0.100939 	74.7815 	-2.7158e-06 	9.80396e-15
0.101193 	75.0196 	-2.7158e-06 	9.80394e-15
0.101447 	75.2576 	-2.7158e-06 	9.80393e-15
0.101702 	75.4957 	-2.7158e-06 	9.80391e-15
0.101956 	75.7338 	-2.7158e-06 	9.8039e-15
0.10221 	75.9718 	-2.7158e-06 	9.80388e-15
0.102464 	76.2099 	-2.7158e-06 	9.80387e-15
0.102719 	76.4479 	-2.5401e-06 	1.00252e-14
0.102973 	76.6858 	-2.5401e-06 	1.00252e-14
0.103227 	76.9237 	-2.5401e-06 	1.00252e-14
0.103481 	77.1616 	-2.5401e-06 	1.00252e-14
0.103736 	77.3994 	-2.5401e-06 	1.00252e-14
0.10399 	77.6373 	-2.5401e-06 	1.00252e-14
0.104244 	77.8752 	-2.5401e-06 	1.00251e-14
0.104498 	78.1131 	-2.5401e-06 	1.00251e-14
0.104753 	78.351 	-2.5401e-06 	1.00251e-14
0.105007 	78.5889 	-2.5401e-06 	1.00251e-14
0.105261 	78.8261 	-2.34874e-06 	1.02748e-14
0.105516 	79.0614 	-2.34874e-06 	1.02747e-14
0.10577 	79.2968 	-2.34874e-06 	1.02747e-14
0.106024 	79.5321 	-2.34874e-06 	1.02747e-14
0.106278 	79.7674 	-2.34874e-06 	1.02747e-14
0.106533 	80.0027 	-2.34874e-06 	1.02747e-14
0.106787 	80.238 	-2.34874e-06 	1.02747e-14
0.107041 	80.4733 	-2.34874e-06 	1.02746e-14
0.107295 	80.7087 	-2.34874e-06 	1.02746e-14
0.10755 	80.944 	-2.34874e-06 	1.02746e-14
0.107804 	81.1784 	-2.0639e-06 	1.05079e-14
0.108058 	81.4085 	-2.0639e-06 	1.05079e-14
0.108312 	81.6387 	-2.0639e-06 	1.05079e-14
0.108567 	81.8689 	-2.0639e-06 	1.05079e-14
0.108821 	82.099 	-2.0639e-06 	1.05079e-14
0.109075 	82.3292 	-2.0639e-06 	1.05078e-14
0.109329 	82.5594 	-2.0639e-06 	1.05078e-14
0.109584 	82.7895 	-2.0639e-06 	1.05078e-14
0.109838 	83.0197 	-2.0639e-06 	1.05078e-14
0.110092 	83.2499 	-2.0639e-06 	1.05078e-14
0.110346 	83.4793 	-1.75296e-06 	1.06648e-14
0.110601 	83.7015 	-1.75296e-06 	1.06648e-14
0.110855 	83.9237 	-1.75296e-06 	1.06648e-14
0.111109 	84.1459 	-1.75296e-06 	1.06648e-14
0.111363 	84.3681 	-1.75296e-06 	1.06648e-14
0.111618 	84.5903 	-1.75296e-06 	1.06647e-14
0.111872 	84.8125 	-1.75296e-06 	1.06647e-14
0.112126 	85.0347 	-1.75296e-06 	1.06647e-14
0.11238 	85.2569 	-1.75296e-06 	1.06647e-14
0.112635 	85.4791 	-1.75296e-06 	1.06647e-14
0.112889 	85.7013 	-2.86569e-06 	4.15665e-17
0.113143 	85.9124 	-1.40822e-06 	1.07914e-14
0.113397 	86.1235 	-1.40822e-06 	1.07914e-14
0.113652 	86.3346 	-1.40822e-06 	1.07914e-14
0.113906 	86.5458 	-1.40822e-06 	1.07914e-14
0.11416 	86.7569 	-1.40822e-06 	1.07913e-14
0.114414 	86.968 	-1.40822e-06 	1.07913e-14
0.114669 	87.1791 	-1.40822e-06 	1.07913e-14
0.114923 	87.3902 	-1.40822e-06 	1.07913e-14
0.115177 	87.6013 	-1.40822e-06 	1.07913e-14
0.115431 	87.8124 	-1.40822e-06 	1.07913e-14
0.115686 	88.0105 	-1.00816e-06 	1.08934e-14
0.11594 	88.2072 	-1.00816e-06 	1.08934e-14
0.116194 	88.4039 	-1.00816e-06 	1.08933e-14
0.116448 	88.6006 	-1.00816e-06 	1.08933e-14
0.116703 	88.7973 	-1.00816e-06 	1.08933e-14
0.116957 	88.994 	-1.00816e-06 	1.08933e-14
0.117211 	89.1907 	-1.00816e-06 	1.08933e-14
0.117465 	89.3874 	-1.00816e-06 	1.08933e-14
0.11772 	89.5842 	-1.00816e-06 	1.08933e-14
0.117974 	89.7809 	-1.00816e-06 	1.08933e-14
0.118228 	89.963 	-6.03216e-07 	1.09655e-14
0.118482 	90.1418 	-6.03216e-07 	1.09655e-14
0.118737 	90.3207 	-6.03216e-07 	1.09655e-14
0.118991 	90.4995 	-6.03216e-07 	1.09654e-14
0.119245 	90.6784 	-6.03216e-07 	1.09654e-14
0.119499 	90.8572 	-6.03216e-07 	1.09654e-14
0.119754 	91.036 	-6.03216e-07 	1.09654e-14
0.120008 	91.2149 	-6.03216e-07 	1.09654e-14
0.120262 	91.3937 	-6.03216e-07 	1.09654e-14
0.120517 	91.5726 	-6.03216e-07 	1.09654e-14
0.120771 	91.736 	-1.9214e-07 	1.10067e-14
0.121025 	91.8936 	-1.9214e-07 	1.10067e-14
0.121279 	92.0512 	-1.9214e-07 	1.10066e-14
0.121534 	92.2088 	-1.9214e-07 	1.10066e-14
0.121788 	92.3664 	-1.9214e-07 	1.10066e-14
0.122042 	92.524 	-1.9214e-07 	1.10066e-14
0.122296 	92.6816 	-1.9214e-07 	1.10066e-14
0.122551 	92.8392 	-1.9214e-07 	1.10066e-14
0.122805 	92.9968 	-1.9214e-07 	1.10066e-14
0.123059 	93.1545 	-1.9214e-07 	1.10066e-14
0.123313 	93.2967 	2.21682e-07 	1.1016e-14
0.123568 	93.43 	2.21682e-07 	1.1016e-14
0.123822 	93.5634 	2.21682e-07 	1.1016e-14
0.124076 	93.6968 	2.21682e-07 	1.1016e-14
0.12433 	93.8302 	2.21682e-07 	1.1016e-14
0.124585 	93.9636 	2.21682e-07 	1.1016e-14
0.124839 	94.097 	2.21682e-07 	1.1016e-14
0.125093 	94.2304 	2.21682e-07 	1.1016e-14
0.125347 	94.3638 	2.21682e-07 	1.1016e-14
0.125602 	94.4972 	2.21682e-07 	1.1016e-14
0.125856 	94.6161 	5.97012e-07 	1.09959e-14
0.12611 	94.723 	5.97012e-07 	1.09959e-14
0.126364 	94.8298 	5.97012e-07 	1.09959e-14
0.126619 	94.9367 	5.97012e-07 	1.09959e-14
0.126873 	95.0436 	5.97012e-07 	1.09959e-14
0.127127 	95.1504 	5.97012e-07 	1.09959e-14
0.127381 	95.2573 	5.97012e-07 	1.09959e-14
0.127636 	95.3642 	5.97012e-07 	1.09959e-14
0.12789 	95.4711 	5.97012e-07 	1.09959e-14
0.128144 	95.5779 	5.97012e-07 	1.09959e-14
0.128398 	95.6722 	9.2598e-07 	1.09525e-14
0.128653 	95.7513 	9.2598e-07 	1.09525e-14
0.128907 	95.8304 	9.2598e-07 	1.09525e-14
0.129161 	95.9095 	9.2598e-07 	1.09525e-14
0.129415 	95.9886 	9.2598e-07 	1.09524e-14
0.12967 	96.0677 	9.2598e-07 	1.09524e-14
0.129924 	96.1468 	9.2598e-07 	1.09524e-14
0.130178 	96.2259 	9.2598e-07 	1.09524e-14
0.130432 	96.3049 	9.2598e-07 	1.09524e-14
0.130687 	96.384 	9.2598e-07 	1.09524e-14
0.130941 	96.453 	1.20542e-06 	1.08919e-14
0.131195 	96.5042 	1.20542e-06 	1.08919e-14
0.131449 	96.5555 	1.20542e-06 	1.08919e-14
0.131704 	96.6067 	1.20542e-06 	1.08919e-14
0.131958 	96.6579 	1.20542e-06 	1.08919e-14
0.132212 	96.7091 	1.20542e-06 	1.08919e-14
0.132466 	96.7604 	1.20542e-06 	1.08919e-14
0.132721 	96.8116 	1.20542e-06 	1.08919e-14
0.132975 	96.8628 	1.20542e-06 	1.08919e-14
0.133229 	96.914 	1.20542e-06 	1.08919e-14
0.133483 	96.9579 	1.42646e-06 	1.08177e-14
0.133738 	96.9822 	1.42646e-06 	1.08177e-14
0.133992 	97.0065 	1.42646e-06 	1.08177e-14
0.134246 	97.0308 	1.42646e-06 	1.08177e-14
0.134501 	97.0551 	1.42646e-06 	1.08177e-14
0.134755 	97.0794 	1.42646e-06 	1.08177e-14
0.135009 	97.1037 	1.42646e-06 	1.08177e-14
0.135263 	97.128 	1.42646e-06 	1.08177e-14
0.135518 	97.1523 	1.42646e-06 	1.08177e-14
0.135772 	97.1766 	1.42646e-06 	1.08177e-14
0.136026 	97.1964 	1.62513e-06 	1.07856e-14
0.13628 	97.1954 	1.62513e-06 	1.07856e-14
0.136535 	97.1945 	1.62513e-06 	1.07856e-14
0.136789 	97.1935 	1.62513e-06 	1.07856e-14
0.137043 	97.1926 	1.62513e-06 	1.07856e-14
0.137297 	97.1917 	1.62513e-06 	1.07856e-14
0.137552 	97.1907 	1.62513e-06 	1.07856e-14
0.137806 	97.1898 	1.62513e-06 	1.07856e-14
0.13806 	97.1889 	1.62513e-06 	1.07856e-14
0.138314 	97.1879 	1.62513e-06 	1.07856e-14
0.138569 	97.1849 	1.7816e-06 	1.06199e-14
0.138823 	97.1607 	1.7816e-06 	1.06199e-14
0.139077 	97.1366 	1.7816e-06 	1.06199e-14
0.139331 	97.1125 	1.7816e-06 	1.06199e-14
0.139586 	97.0883 	1.7816e-06 	1.06199e-14
0.13984 	97.0642 	1.7816e-06 	1.06199e-14
0.140094 	97.04 	1.7816e-06 	1.06199e-14
0.140348 	97.0159 	1.7816e-06 	1.06199e-14
0.140603 	96.9917 	1.7816e-06 	1.06199e-14
0.140857 	96.9676 	1.7816e-06 	1.06199e-14
0.141111 	96.9434 	9.67837e-07 	2.89688e-17
0.141365 	96.8982 	1.90702e-06 	1.05211e-14
0.14162 	96.853 	1.90702e-06 	1.05211e-14
0.141874 	96.8078 	1.90702e-06 	1.05211e-14
0.142128 	96.7626 	1.90702e-06 	1.05211e-14
0.142382 	96.7174 	1.90702e-06 	1.05211e-14
0.142637 	96.6722 	1.90702e-06 	1.05211e-14
0.142891 	96.627 	1.90702e-06 	1.05211e-14
0.143145 	96.5818 	1.90702e-06 	1.05211e-14
0.143399 	96.5366 	1.90702e-06 	1.05211e-14
0.143654 	96.4914 	1.90702e-06 	1.05211e-14
0.143908 	96.429 	2.02431e-06 	1.03394e-14
0.144162 	96.3649 	2.02431e-06 	1.03394e-14
0.144416 	96.3008 	2.02431e-06 	1.03394e-14
0.144671 	96.2367 	2.02431e-06 	1.03394e-14
0.144925 	96.1726 	2.02431e-06 	1.03394e-14
0.145179 	96.1085 	2.02431e-06 	1.03394e-14
0.145433 	96.0443 	2.02431e-06 	1.03394e-14
0.145688 	95.9802 	2.02431e-06 	1.03394e-14
0.145942 	95.9161 	2.02431e-06 	1.03394e-14
0.146196 	95.852 	2.02431e-06 	1.03394e-14
0.14645 	95.7741 	2.13037e-06 	1.01883e-14
0.146705 	95.6931 	2.13037e-06 	1.01883e-14
0.146959 	95.6121 	2.13037e-06 	1.01883e-14
0.147213 	95.5311 	2.13037e-06 	1.01883e-14
0.147467 	95.4502 	2.13037e-06 	1.01883e-14
0.147722 	95.3692 	2.13037e-06 	1.01883e-14
0.147976 	95.2882 	2.13037e-06 	1.01883e-14
0.14823 	95.2072 	2.13037e-06 	1.01883e-14
0.148484 	95.1262 	2.13037e-06 	1.01883e-14
0.148739 	95.0452 	2.13037e-06 	1.01883e-14
0.148993 	94.9534 	2.23127e-06 	1.00521e-14
0.149247 	94.8574 	2.23127e-06 	1.00521e-14
0.149502 	94.7614 	2.23127e-06 	1.00521e-14
0.149756 	94.6655 	2.23127e-06 	1.00521e-14
0.15001 	94.5695 	2.23127e-06 	1.00521e-14
0.150264 	94.4736 	2.23127e-06 	1.00521e-14
0.150519 	94.3776 	2.23127e-06 	1.00521e-14
0.150773 	94.2816 	2.23127e-06 	1.00521e-14
0.151027 	94.1857 	2.23127e-06 	1.00521e-14
0.151281 	94.0897 	2.23127e-06 	1.00522e-14
0.151536 	93.9854 	2.3271e-06 	9.91537e-15
0.15179 	93.8762 	2.3271e-06 	9.91538e-15
0.152044 	93.7671 	2.3271e-06 	9.91539e-15
0.152298 	93.658 	2.3271e-06 	9.9154e-15
0.152553 	93.5489 	2.3271e-06 	9.9154e-15
0.152807 	93.4397 	2.3271e-06 	9.91541e-15
0.153061 	93.3306 	2.3271e-06 	9.91542e-15
0.153315 	93.2215 	2.3271e-06 	9.91542e-15
0.15357 	93.1124 	2.3271e-06 	9.91543e-15
0.153824 	93.0032 	2.3271e-06 	9.91544e-15
0.154078 	92.8879 	2.41456e-06 	9.77141e-15
0.154332 	92.7674 	2.41456e-06 	9.77142e-15
0.154587 	92.647 	2.41456e-06 	9.77143e-15
0.154841 	92.5265 	2.41456e-06 	9.77144e-15
0.155095 	92.406 	2.41456e-06 	9.77144e-15
0.155349 	92.2855 	2.41456e-06 	9.77145e-15
0.155604 	92.165 	2.41456e-06 	9.77146e-15
0.155858 	92.0446 	2.41456e-06 	9.77147e-15
0.156112 	91.9241 	2.41456e-06 	9.77147e-15
0.156366 	91.8036 	2.41456e-06 	9.77148e-15
0.156621 	91.6788 	2.4903e-06 	9.62175e-15
0.156875 	91.5488 	2.4903e-06 	9.62176e-15
0.157129 	91.4188 	2.4903e-06 	9.62177e-15
0.157383 	91.2888 	2.4903e-06 	9.62178e-15
0.157638 	91.1588 	2.4903e-06 	9.62178e-15
0.157892 	91.0288 	2.4903e-06 	9.62179e-15
0.158146 	90.8988 	2.4903e-06 	9.6218e-15
0.1584 	90.7688 	2.4903e-06 	9.62181e-15
0.158655 	90.6389 	2.4903e-06 	9.62182e-15
0.158909 	90.5089 	2.4903e-06 	9.62183e-15
0.159163 	90.3761 	2.55215e-06 	9.52184e-15
0.159417 	90.2385 	2.55215e-06 	9.52185e-15
0.159672 	90.1009 	2.55215e-06 	9.52186e-15
0.159926 	89.9632 	2.55215e-06 	9.52187e-15
0.16018 	89.8256 	2.55215e-06 	9.52187e-15
0.160434 	89.688 	2.55215e-06 	9.52188e-15
0.160689 	89.5504 	2.55215e-06 	9.52189e-15
0.160943 	89.4127 	2.55215e-06 	9.5219e-15
0.161197 	89.2751 	2.55215e-06 	9.52191e-15
0.161451 	89.1375 	2.55215e-06 	9.52192e-15
0.161706 	88.9983 	2.59941e-06 	9.40111e-15
0.16196 	88.8549 	2.59941e-06 	9.40112e-15
0.162214 	88.7116 	2.59941e-06 	9.40113e-15
0.162468 	88.5682 	2.59941e-06 	9.40114e-15
0.162723 	88.4248 	2.59941e-06 	9.40115e-15
0.162977 	88.2815 	2.59941e-06 	9.40116e-15
0.163231 	88.1381 	2.59941e-06 	9.40117e-15
0.163485 	87.9947 	2.59941e-06 	9.40118e-15
0.16374 	87.8513 	2.59941e-06 	9.40119e-15
0.163994 	87.708 	2.59941e-06 	9.4012e-15
0.164248 	87.5639 	2.63248e-06 	9.2407e-15
0.164503 	87.4166 	2.63248e-06 	9.24071e-15
0.164757 	87.2693 	2.63248e-06 	9.24072e-15
0.165011 	87.1219 	2.63248e-06 	9.24073e-15
0.165265 	86.9746 	2.63248e-06 	9.24074e-15
0.16552 	86.8273 	2.63248e-06 	9.24074e-15
0.165774 	86.68 	2.63248e-06 	9.24075e-15
0.166028 	86.5327 	2.63248e-06 	9.24076e-15
0.166282 	86.3854 	2.63248e-06 	9.24077e-15
0.166537 	86.2381 	2.63248e-06 	9.24078e-15
0.166791 	86.0905 	2.65222e-06 	9.07898e-15
0.167045 	85.941 	2.65222e-06 	9.07899e-15
0.167299 	85.7914 	2.65222e-06 	9.079e-15
0.167554 	85.6418 	2.65222e-06 	9.07901e-15
0.167808 	85.4923 	2.65222e-06 	9.07902e-15
0.168062 	85.3427 	2.65222e-06 	9.07903e-15
0.168316 	85.1931 	2.65222e-06 	9.07904e-15
0.168571 	85.0435 	2.65222e-06 	9.07905e-15
0.168825 	84.894 	2.65222e-06 	9.07906e-15
0.169079 	84.7444 	2.65222e-06 	9.07907e-15
0.169333 	84.5948 	2.0127e-06 	1.67007e-17