0 	31.9349 	-0.0273796 	4.05348e-13
0.000254254 	31.9349 	-0.0273851 	6.89361e-11
0.000508509 	31.9349 	-0.0273907 	1.37467e-10
0.000762763 	31.9382 	-0.0275571 	-7.16422e-06
0.00101702 	31.9439 	-0.0278453 	-1.97476e-05
0.00127127 	31.9497 	-0.0281335 	-3.23311e-05
0.00152553 	31.9555 	-0.0284217 	-2.09148e-05
0.00177978 	31.9612 	-0.0287099 	-8.34156e-06
0.00203403 	31.9689 	-0.0290286 	1.43433e-10
0.00228829 	31.9805 	-0.0294071 	7.48565e-11
0.00254254 	31.992 	-0.0297857 	6.28041e-12
0.0027968 	32.0036 	-0.0295544 	6.23271e-11
0.00305105 	32.0152 	-0.0292616 	1.30938e-10
0.00330531 	32.028 	-0.0292096 	-4.31104e-06
0.00355956 	32.0422 	-0.0294138 	-1.32088e-05
0.00381381 	32.0564 	-0.029618 	-2.21066e-05
0.00406807 	32.0705 	-0.0298222 	-1.56755e-05
0.00432232 	32.0847 	-0.0300264 	-6.79387e-06
0.00457658 	32.0995 	-0.0303151 	1.49697e-10
0.00483083 	32.1163 	-0.0308792 	8.11282e-11
0.00508509 	32.1331 	-0.0314432 	1.25589e-11
0.00533934 	32.15 	-0.0313861 	5.66686e-11
0.00559359 	32.167 	-0.0311898 	1.26044e-10
0.00584785 	32.1841 	-0.0312477 	-7.60627e-06
0.0061021 	32.2013 	-0.0316768 	-2.6321e-05
0.00635636 	32.2186 	-0.0321059 	-4.50357e-05
0.00661061 	32.2358 	-0.032535 	-3.49627e-05
0.00686486 	32.2531 	-0.032964 	-1.63046e-05
0.00711912 	32.2704 	-0.0334357 	1.57649e-10
0.00737337 	32.288 	-0.0342022 	8.83438e-11
0.00762763 	32.3056 	-0.0349687 	1.90386e-11
0.00788188 	32.3234 	-0.0350835 	5.03569e-11
0.00813614 	32.3413 	-0.0349514 	1.19787e-10
0.00839039 	32.3593 	-0.0350729 	-9.1253e-06
0.00864464 	32.3776 	-0.0356953 	-3.62801e-05
0.0088989 	32.3959 	-0.0363177 	-6.34349e-05
0.00915315 	32.4142 	-0.03694 	-5.38241e-05
0.00940741 	32.4325 	-0.0375624 	-2.67841e-05
0.00966166 	32.4508 	-0.0381879 	1.64054e-10
0.00991592 	32.4695 	-0.0391467 	9.47227e-11
0.0101702 	32.4883 	-0.0401055 	2.53909e-11
0.0104244 	32.5073 	-0.040381 	4.4566e-11
0.0106787 	32.5264 	-0.0402615 	1.14884e-10
0.0109329 	32.5458 	-0.0403847 	-9.15877e-06
0.0111872 	32.5659 	-0.0411525 	-4.26613e-05
0.0114414 	32.5861 	-0.0419203 	-7.61638e-05
0.0116957 	32.6062 	-0.0426881 	-7.0474e-05
0.0119499 	32.6264 	-0.043456 	-3.71533e-05
0.0122042 	32.6465 	-0.0442238 	-3.83261e-06
0.0124585 	32.6676 	-0.0453198 	1.02316e-10
0.0127127 	32.6888 	-0.0464584 	3.21258e-11
0.012967 	32.7102 	-0.0468982 	3.85137e-11
0.0132212 	32.7319 	-0.0467482 	1.09532e-10
0.0134755 	32.7538 	-0.0468216 	-8.31956e-06
0.0137297 	32.7769 	-0.0476946 	-4.64051e-05
0.013984 	32.8 	-0.0485677 	-8.44907e-05
0.0142382 	32.823 	-0.0494407 	-8.50252e-05
0.0144925 	32.8461 	-0.0503138 	-4.71919e-05
0.0147467 	32.8692 	-0.0511868 	-9.35866e-06
0.015001 	32.8934 	-0.052387 	1.09772e-10
0.0152553 	32.918 	-0.0536947 	3.89104e-11
0.0155095 	32.9427 	-0.0543171 	3.21177e-11
0.0157638 	32.9677 	-0.0541049 	1.03349e-10
0.016018 	32.993 	-0.0540915 	-7.08689e-06
0.0162723 	33.0197 	-0.0550404 	-4.84613e-05
0.0165265 	33.0464 	-0.0559893 	-8.98357e-05
0.0167808 	33.0732 	-0.0569381 	-9.80148e-05
0.017035 	33.0999 	-0.057887 	-5.69637e-05
0.0172893 	33.1266 	-0.0588359 	-1.59127e-05
0.0175435 	33.1543 	-0.0601031 	1.16546e-10
0.0177978 	33.1827 	-0.0615718 	4.55011e-11
0.0180521 	33.2113 	-0.0624059 	2.56937e-11
0.0183063 	33.2402 	-0.0621096 	9.71552e-11
0.0185606 	33.2693 	-0.0619851 	-5.77903e-06
0.0188148 	33.3 	-0.0629903 	-4.95768e-05
0.0190691 	33.3307 	-0.0639954 	-9.33745e-05
0.0193233 	33.3614 	-0.0650005 	-0.000110067
0.0195776 	33.3921 	-0.0660057 	-6.6663e-05
0.0198318 	33.4228 	-0.0670108 	-2.32595e-05
0.0200861 	33.4544 	-0.0683036 	1.23379e-10
0.0203403 	33.4869 	-0.0699285 	5.21325e-11
0.0205946 	33.5195 	-0.0710116 	1.92512e-11
0.0208488 	33.5526 	-0.0706169 	9.10096e-11
0.0211031 	33.5858 	-0.0703674 	-4.59189e-06
0.0213574 	33.6207 	-0.0714171 	-5.02918e-05
0.0216116 	33.6556 	-0.0724669 	-9.59918e-05
0.0218659 	33.6906 	-0.0735166 	-0.000121782
0.0221201 	33.7255 	-0.0745663 	-7.65471e-05
0.0223744 	33.7605 	-0.075616 	-3.13123e-05
0.0226286 	33.796 	-0.0768904 	1.30363e-10
0.0228829 	33.8328 	-0.0786699 	5.88491e-11
0.0231371 	33.8697 	-0.0800452 	1.27724e-11
0.0233914 	33.9071 	-0.0795422 	8.48934e-11
0.0236456 	33.9446 	-0.0791617 	-3.64219e-06
0.0238999 	33.984 	-0.0802503 	-5.09812e-05
0.0241542 	34.0233 	-0.0813388 	-9.83202e-05
0.0244084 	34.0627 	-0.0824273 	-0.000133699
0.0246627 	34.102 	-0.0835159 	-8.68971e-05
0.0249169 	34.1414 	-0.0846044 	-4.00953e-05
0.0251712 	34.181 	-0.0858144 	1.37514e-10
0.0254254 	34.2224 	-0.0877502 	6.56671e-11
0.0256797 	34.2637 	-0.089466 	6.24034e-12
0.0259339 	34.3056 	-0.0888435 	7.87897e-11
0.0261882 	34.3476 	-0.0883284 	-3.0048e-06
0.0264424 	34.3916 	-0.0894553 	-5.19501e-05
0.0266967 	34.4355 	-0.0905822 	-0.000100895
0.026951 	34.4795 	-0.091709 	-0.000146422
0.0272052 	34.5235 	-0.0928359 	-9.8089e-05
0.0274595 	34.5674 	-0.0939628 	-4.97559e-05
0.0277137 	34.6114 	-0.0950897 	-1.42282e-06
0.027968 	34.6573 	-0.0971633 	7.26038e-11
0.0282222 	34.7033 	-0.0992655 	3.5821e-13
0.0284765 	34.7499 	-0.0985063 	7.2679e-11
0.0287307 	34.7966 	-0.0978374 	-2.7291e-06
0.028985 	34.8453 	-0.0990049 	-5.33548e-05
0.0292392 	34.894 	-0.100172 	-0.00010398
0.0294935 	34.9428 	-0.10134 	-0.000154606
0.0297477 	34.9915 	-0.102507 	-0.000110381
0.030002 	35.0403 	-0.103675 	-6.04464e-05
0.0302563 	35.089 	-0.104842 	-1.05122e-05
0.0305105 	35.1394 	-0.106905 	7.96738e-11
0.0307648 	35.1903 	-0.109207 	6.96659e-12
0.031019 	35.2417 	-0.108532 	6.71419e-11
0.0312733 	35.2932 	-0.107662 	-2.85221e-06
0.0315275 	35.3469 	-0.10887 	-5.5127e-05
0.0317818 	35.4006 	-0.110078 	-0.000107402
0.032036 	35.4543 	-0.111287 	-0.000159677
0.0322903 	35.508 	-0.112495 	-0.000123606
0.0325445 	35.5617 	-0.113703 	-7.21045e-05
0.0327988 	35.6154 	-0.114912 	-2.06031e-05
0.0330531 	35.6704 	-0.116935 	8.76733e-11
0.0333073 	35.7263 	-0.119501 	1.37841e-11
0.0335616 	35.7827 	-0.118971 	6.03458e-11
0.0338158 	35.8394 	-0.117887 	-3.41194e-06
0.0340701 	35.8982 	-0.119134 	-5.72009e-05
0.0343243 	35.957 	-0.120381 	-0.00011099
0.0345786 	36.0159 	-0.121628 	-0.000164779
0.0348328 	36.0747 	-0.122875 	-0.000137526
0.0350871 	36.1336 	-0.124122 	-8.45934e-05
0.0353413 	36.1924 	-0.125369 	-3.16607e-05
0.0355956 	36.2522 	-0.127264 	9.42407e-11
0.0358498 	36.3133 	-0.130123 	2.04511e-11
0.0361041 	36.3749 	-0.129828 	5.46527e-11
0.0363584 	36.4368 	-0.128547 	-4.44695e-06
0.0366126 	36.501 	-0.12983 	-5.96221e-05
0.0368669 	36.5652 	-0.131113 	-0.000114797
0.0371211 	36.6294 	-0.132396 	-0.000169973
0.0373754 	36.6936 	-0.133679 	-0.000152124
0.0376296 	36.7577 	-0.134962 	-9.78879e-05
0.0378839 	36.8219 	-0.136245 	-4.36521e-05
0.0381381 	36.8866 	-0.137895 	1.02812e-10
0.0383924 	36.9531 	-0.141058 	2.76355e-11
0.0386466 	37.0201 	-0.141111 	4.86615e-11
0.0389009 	37.0876 	-0.139682 	-5.99304e-06
0.0391552 	37.1573 	-0.140999 	-6.24581e-05
0.0394094 	37.227 	-0.142316 	-0.000118923
0.0396637 	37.2968 	-0.143634 	-0.000175388
0.0399179 	37.3665 	-0.144951 	-0.000167454
0.0401722 	37.4362 	-0.146268 	-0.000112012
0.0404264 	37.506 	-0.147585 	-5.657e-05
0.0406807 	37.5757 	-0.148903 	-1.12776e-06
0.0409349 	37.6478 	-0.152307 	3.50229e-11
0.0411892 	37.7204 	-0.152804 	4.25032e-11
0.0414434 	37.7936 	-0.151276 	-8.08628e-06
0.0416977 	37.8691 	-0.152627 	-6.57975e-05
0.041952 	37.9446 	-0.153978 	-0.000123509
0.0422062 	38.0201 	-0.155328 	-0.00018122
0.0424605 	38.0956 	-0.156679 	-0.000183663
0.0427147 	38.1711 	-0.15803 	-0.000127058
0.042969 	38.2466 	-0.15938 	-7.04543e-05
0.0432232 	38.3221 	-0.160731 	-1.38502e-05
0.0434775 	38.3995 	-0.163874 	4.27e-11
0.0437317 	38.4779 	-0.164905 	3.5856e-11
0.043986 	38.5572 	-0.163331 	-1.07625e-05
0.0442402 	38.6387 	-0.164715 	-6.97027e-05
0.0444945 	38.7202 	-0.166099 	-0.000128643
0.0447487 	38.8017 	-0.167483 	-0.000187583
0.045003 	38.8832 	-0.168867 	-0.000200845
0.0452573 	38.9647 	-0.170251 	-0.000143097
0.0455115 	39.0461 	-0.171636 	-8.53487e-05
0.0457658 	39.1276 	-0.17302 	-2.76007e-05
0.04602 	39.2105 	-0.175767 	5.02894e-11
0.0462743 	39.2949 	-0.177422 	2.89125e-11
0.0465285 	39.3805 	-0.175858 	-1.40473e-05
0.0467828 	39.4682 	-0.177275 	-7.41655e-05
0.047037 	39.5559 	-0.178691 	-0.000134284
0.0472913 	39.6436 	-0.180108 	-0.000194402
0.0475455 	39.7314 	-0.181525 	-0.000218901
0.0477998 	39.8191 	-0.182941 	-0.00016006
0.0480541 	39.9068 	-0.184358 	-0.000101219
0.0483083 	39.9945 	-0.185775 	-4.2378e-05
0.0485626 	40.083 	-0.187988 	5.77491e-11
0.0488168 	40.1737 	-0.190356 	2.18237e-11
0.0490711 	40.2658 	-0.188864 	-1.79523e-05
0.0493253 	40.36 	-0.190311 	-7.91531e-05
0.0495796 	40.4542 	-0.191758 	-0.000140354
0.0498338 	40.5484 	-0.193206 	-0.000201555
0.0500881 	40.6426 	-0.194653 	-0.000237657
0.0503423 	40.7368 	-0.1961 	-0.000177816
0.0505966 	40.831 	-0.197548 	-0.000117976
0.0508509 	40.9252 	-0.198995 	-5.81358e-05
0.0511051 	41.0195 	-0.20053 	6.51149e-11
0.0513594 	41.1167 	-0.203698 	1.47857e-11
0.0516136 	41.2157 	-0.202345 	-2.24688e-05
0.0518679 	41.3166 	-0.20382 	-8.45982e-05
0.0521221 	41.4175 	-0.205295 	-0.000146728
0.0523764 	41.5184 	-0.20677 	-0.000208857
0.0526306 	41.6194 	-0.208244 	-0.000256829
0.0528849 	41.7203 	-0.209719 	-0.00019614
0.0531391 	41.8212 	-0.211194 	-0.000135451
0.0533934 	41.9222 	-0.212669 	-7.47622e-05
0.0536476 	42.0231 	-0.214143 	-1.40732e-05
0.0539019 	42.1263 	-0.21743 	7.56733e-12
0.0541562 	42.2325 	-0.216288 	-2.75568e-05
0.0544104 	42.3404 	-0.217785 	-9.0386e-05
0.0546647 	42.4483 	-0.219282 	-0.000153215
0.0549189 	42.5562 	-0.22078 	-0.000216045
0.0551732 	42.6641 	-0.222277 	-0.000276
0.0554274 	42.7721 	-0.223775 	-0.000214685
0.0556817 	42.88 	-0.225272 	-0.000153369
0.0559359 	42.9879 	-0.226769 	-9.20539e-05
0.0561902 	43.0958 	-0.228267 	-3.07385e-05
0.0564444 	43.2052 	-0.231516 	2.7729e-13
0.0566987 	43.3188 	-0.23066 	-3.31392e-05
0.056953 	43.434 	-0.232173 	-9.6362e-05
0.0572072 	43.5491 	-0.233687 	-0.000159585
0.0574615 	43.6643 	-0.2352 	-0.000222808
0.0577157 	43.7795 	-0.236714 	-0.00028603
0.05797 	43.8946 	-0.238227 	-0.000233001
0.0582242 	44.0098 	-0.23974 	-0.000171357
0.0584785 	44.1249 	-0.241254 	-0.000109712
0.0587327 	44.2401 	-0.242767 	-4.80675e-05
0.058987 	44.3559 	-0.245123 	7.03619e-12
0.0592412 	44.4772 	-0.245416 	-3.91866e-05
0.0594955 	44.5999 	-0.246941 	-0.000102567
0.0597497 	44.7225 	-0.248465 	-0.000165947
0.060004 	44.8452 	-0.24999 	-0.000229327
0.0602583 	44.9678 	-0.251515 	-0.000292707
0.0605125 	45.0905 	-0.253039 	-0.000251126
0.0607668 	45.2131 	-0.254564 	-0.00018938
0.061021 	45.3358 	-0.256089 	-0.000127634
0.0612753 	45.4584 	-0.257613 	-6.58883e-05
0.0615295 	45.5811 	-0.259138 	-4.14222e-06
0.0617838 	45.7101 	-0.260531 	-4.56838e-05
0.062038 	45.8405 	-0.262063 	-0.00010906
0.0622923 	45.9709 	-0.263596 	-0.000172435
0.0625465 	46.1013 	-0.265128 	-0.000235811
0.0628008 	46.2316 	-0.266661 	-0.000299187
0.0630551 	46.362 	-0.268097 	-0.000268092
0.0633093 	46.4922 	-0.269448 	-0.000204357
0.0635636 	46.6225 	-0.2708 	-0.000140622
0.0638178 	46.7528 	-0.272152 	-7.68876e-05
0.0640721 	46.8831 	-0.273503 	-1.31528e-05
0.0643263 	47.0192 	-0.274926 	-4.14252e-05
0.0645806 	47.1574 	-0.276271 	-0.000102638
0.0648348 	47.2957 	-0.277615 	-0.000163851
0.0650891 	47.4339 	-0.278959 	-0.000225064
0.0653433 	47.5721 	-0.280303 	-0.000286277
0.0655976 	47.7104 	-0.281647 	-0.000265323
0.0658519 	47.8486 	-0.282991 	-0.000201698
0.0661061 	47.9868 	-0.284335 	-0.000138073
0.0663604 	48.1251 	-0.285679 	-7.44478e-05
0.0666146 	48.2633 	-0.287023 	-1.08229e-05
0.0668689 	48.4068 	-0.288615 	-2.82636e-05
0.0671231 	48.5533 	-0.289964 	-8.98455e-05
0.0673774 	48.6997 	-0.291313 	-0.000151427
0.0676316 	48.8461 	-0.292662 	-0.000213009
0.0678859 	48.9925 	-0.294011 	-0.000274591
0.0681401 	49.139 	-0.29536 	-0.000264535
0.0683944 	49.2854 	-0.296709 	-0.000200469
0.0686486 	49.4318 	-0.298059 	-0.000136404
0.0689029 	49.5783 	-0.299408 	-7.23381e-05
0.0691572 	49.7247 	-0.300757 	-8.27257e-06
0.0694114 	49.8758 	-0.302564 	-1.46327e-05
0.0696657 	50.0306 	-0.303918 	-7.6535e-05
0.0699199 	50.1855 	-0.305273 	-0.000138437
0.0701742 	50.3403 	-0.306627 	-0.00020034
0.0704284 	50.4952 	-0.307982 	-0.000262242
0.0706827 	50.65 	-0.309336 	-0.000263189
0.0709369 	50.8049 	-0.310691 	-0.00019874
0.0711912 	50.9597 	-0.312045 	-0.000134291
0.0714454 	51.1146 	-0.3134 	-6.98418e-05
0.0716997 	51.2695 	-0.314754 	-5.39289e-06
0.071954 	51.4283 	-0.316818 	-5.60311e-07
0.0722082 	51.5918 	-0.31814 	-6.10843e-05
0.0724625 	51.7553 	-0.319463 	-0.000121608
0.0727167 	51.9187 	-0.320786 	-0.000182132
0.072971 	52.0822 	-0.322108 	-0.000242656
0.0732252 	52.2457 	-0.323431 	-0.000254366
0.0734795 	52.4091 	-0.324754 	-0.000191312
0.0737337 	52.5726 	-0.326076 	-0.000128257
0.073988 	52.7361 	-0.327399 	-6.52025e-05
0.0742422 	52.8996 	-0.328722 	-2.1479e-06
0.0744965 	53.0671 	-0.330911 	6.32073e-05
0.0747508 	53.2385 	-0.332282 	-4.39458e-05
0.075005 	53.4107 	-0.333514 	-0.000100438
0.0752593 	53.5829 	-0.334746 	-0.000156931
0.0755135 	53.7551 	-0.335978 	-0.000213424
0.0757678 	53.9273 	-0.33721 	-0.000234398
0.076022 	54.0995 	-0.338442 	-0.000175514
0.0762763 	54.2717 	-0.339674 	-0.00011663
0.0765305 	54.4439 	-0.340906 	-5.77457e-05
0.0767848 	54.6162 	-0.342143 	6.08896e-06
0.077039 	54.7925 	-0.344004 	0.000139542
0.0772933 	54.9718 	-0.34587 	-2.79886e-05
0.0775475 	55.1527 	-0.346994 	-7.95604e-05
0.0778018 	55.3336 	-0.348119 	-0.000131132
0.0780561 	55.5145 	-0.349243 	-0.000182704
0.0783103 	55.6954 	-0.350368 	-0.000211002
0.0785646 	55.8763 	-0.351492 	-0.000157229
0.0788188 	56.0572 	-0.352617 	-0.000103456
0.0790731 	56.2381 	-0.353741 	-4.96834e-05
0.0793273 	56.4193 	-0.354804 	2.53327e-05
0.0795816 	56.6041 	-0.355824 	0.000224507
0.0798358 	56.7912 	-0.358792 	-1.46337e-05
0.0800901 	56.9807 	-0.359846 	-6.27436e-05
0.0803443 	57.1702 	-0.360899 	-0.000110853
0.0805986 	57.3597 	-0.361953 	-0.000158963
0.0808529 	57.5491 	-0.363007 	-0.000193883
0.0811071 	57.7386 	-0.364061 	-0.000143712
0.0813614 	57.9281 	-0.365115 	-9.35415e-05
0.0816156 	58.1175 	-0.366168 	-4.33707e-05
0.0818699 	58.3075 	-0.366942 	4.76442e-05
0.0821241 	58.5006 	-0.366607 	0.000319057
0.0823784 	58.6954 	-0.371239 	-2.62656e-06
0.0826326 	58.8932 	-0.372156 	-4.44031e-05
0.0828869 	59.091 	-0.373074 	-8.61797e-05
0.0831411 	59.2888 	-0.373992 	-0.000127956
0.0833954 	59.4866 	-0.37491 	-0.000165668
0.0836496 	59.6844 	-0.375827 	-0.000122104
0.0839039 	59.8822 	-0.376745 	-7.85398e-05
0.0841582 	60.0801 	-0.377663 	-3.49755e-05
0.0844124 	60.2786 	-0.377906 	7.24654e-05
0.0846667 	60.4798 	-0.375624 	0.000420312
0.0849209 	60.6825 	-0.381332 	6.42658e-05
0.0851752 	60.8878 	-0.382958 	-2.71487e-05
0.0854294 	61.0937 	-0.383684 	-6.02771e-05
0.0856837 	61.2996 	-0.38441 	-9.34055e-05
0.0859379 	61.5055 	-0.385136 	-0.000126534
0.0861922 	61.7113 	-0.385863 	-9.4627e-05
0.0864464 	61.9172 	-0.386589 	-6.00899e-05
0.0867007 	62.1231 	-0.387315 	-2.55529e-05
0.086955 	62.3299 	-0.386856 	9.82611e-05
0.0872092 	62.5391 	-0.383026 	0.000476006
0.0874635 	62.7495 	-0.388736 	0.000155602
0.0877177 	62.9617 	-0.391769 	-1.55386e-05
0.087972 	63.1753 	-0.392362 	-4.25686e-05
0.0882262 	63.3888 	-0.392954 	-6.95986e-05
0.0884805 	63.6024 	-0.393546 	-9.66286e-05
0.0887347 	63.8159 	-0.394138 	-7.53815e-05
0.088989 	64.0295 	-0.39473 	-4.72162e-05
0.0892432 	64.243 	-0.395322 	-1.9051e-05
0.0894975 	64.4576 	-0.394135 	0.000125659
0.0897518 	64.6745 	-0.389226 	0.000513981
0.090006 	64.8921 	-0.394242 	0.000252246
0.0902603 	65.1108 	-0.398901 	-5.76237e-06
0.0905145 	65.3315 	-0.399277 	-2.32292e-05
0.0907688 	65.5521 	-0.399653 	-4.0696e-05
0.091023 	65.7728 	-0.400029 	-5.81628e-05
0.0912773 	65.9934 	-0.400405 	-4.75295e-05
0.0915315 	66.2141 	-0.400781 	-2.93428e-05
0.0917858 	66.4348 	-0.401157 	-1.11561e-05
0.09204 	66.6566 	-0.399076 	0.000153277
0.0922943 	66.8803 	-0.393096 	0.000549781
0.0925485 	67.1046 	-0.39686 	0.000351669
0.0928028 	67.3293 	-0.4031 	-2.61445e-07
0.0930571 	67.5563 	-0.403144 	-3.31428e-06
0.0933113 	67.7833 	-0.403189 	-6.36711e-06
0.0935656 	68.0103 	-0.403234 	-9.41995e-06
0.0938198 	68.2373 	-0.403279 	-8.10365e-06
0.0940741 	68.4642 	-0.403324 	-4.92825e-06
0.0943283 	68.6912 	-0.403369 	-1.75286e-06
0.0945826 	68.9194 	-0.40031 	0.000177501
0.0948368 	69.1491 	-0.393425 	0.000573765
0.0950911 	69.3792 	-0.395682 	0.000444988
0.0953453 	69.6095 	-0.402395 	6.02503e-05
0.0955996 	69.8414 	-0.403214 	9.21469e-06
0.0958539 	70.0737 	-0.402938 	2.01401e-05
0.0961081 	70.306 	-0.402663 	3.10656e-05
0.0963624 	70.5382 	-0.402387 	2.82997e-05
0.0966166 	70.7705 	-0.402111 	1.69505e-05
0.0968709 	71.0027 	-0.401835 	5.60137e-06
0.0971251 	71.2361 	-0.397802 	0.00019868
0.0973794 	71.4705 	-0.390107 	0.000590967
0.0976336 	71.7052 	-0.390733 	0.000532162
0.0978879 	71.94 	-0.397308 	0.000150862
0.0981421 	72.1756 	-0.399537 	1.55961e-05
0.0983964 	72.4117 	-0.398921 	4.14021e-05
0.0986507 	72.6478 	-0.398305 	6.72082e-05
0.0989049 	72.8839 	-0.397689 	6.52814e-05
0.0991592 	73.1199 	-0.397073 	3.85179e-05
0.0994134 	73.356 	-0.396456 	1.17543e-05
0.0996677 	73.5929 	-0.391386 	0.000216266
0.0999219 	73.8305 	-0.382829 	0.000601892
0.100176 	74.0681 	-0.381629 	0.000611802
0.10043 	74.3059 	-0.387974 	0.000236471
0.100685 	74.5438 	-0.391597 	1.59377e-05
0.100939 	74.7819 	-0.390586 	5.90161e-05
0.101193 	75.02 	-0.389574 	0.000102094
0.101447 	75.2581 	-0.388563 	0.000106592
0.101702 	75.4962 	-0.387551 	6.20012e-05
0.101956 	75.7343 	-0.38654 	1.74106e-05
0.10221 	75.9727 	-0.380432 	0.000226072
0.102464 	76.2113 	-0.37106 	0.000596955
0.102719 	76.4499 	-0.367965 	0.000671849
0.102973 	76.6886 	-0.374127 	0.000310295
0.103227 	76.9272 	-0.379227 	8.10946e-06
0.103481 	77.1652 	-0.377895 	6.53075e-05
0.103736 	77.4031 	-0.376563 	0.000122506
0.10399 	77.6411 	-0.375231 	0.000138755
0.104244 	77.8791 	-0.373899 	7.96817e-05
0.104498 	78.117 	-0.372567 	2.06083e-05
0.104753 	78.3546 	-0.365504 	0.000230573
0.105007 	78.592 	-0.35537 	0.000584675
0.105261 	78.8294 	-0.350354 	0.000718852
0.105516 	79.0667 	-0.356508 	0.000373024
0.10577 	79.304 	-0.362663 	2.71955e-05
0.106024 	79.5396 	-0.361576 	6.79156e-05
0.106278 	79.775 	-0.359871 	0.000141628
0.106533 	80.0104 	-0.358166 	0.000175862
0.106787 	80.2459 	-0.356461 	9.99276e-05
0.107041 	80.4813 	-0.354756 	2.39934e-05
0.107295 	80.7155 	-0.346601 	0.000226221
0.10755 	80.9491 	-0.335467 	0.000556939
0.107804 	81.1827 	-0.328173 	0.000741064
0.108058 	81.4162 	-0.334175 	0.000417405
0.108312 	81.6496 	-0.340178 	9.37465e-05
0.108567 	81.8808 	-0.340431 	6.4506e-05
0.108821 	82.1111 	-0.338339 	0.000155314
0.109075 	82.3414 	-0.336247 	0.000213923
0.109329 	82.5717 	-0.334155 	0.000120645
0.109584 	82.8019 	-0.332063 	2.73674e-05
0.109838 	83.03 	-0.322996 	0.00021059
0.110092 	83.2572 	-0.311034 	0.000508621
0.110346 	83.4844 	-0.30148 	0.000727818
0.110601 	83.7113 	-0.307546 	0.000435478
0.110855 	83.9381 	-0.313612 	0.000143138
0.111109 	84.1627 	-0.315379 	5.24174e-05
0.111363 	84.385 	-0.313022 	0.000155121
0.111618 	84.6073 	-0.310665 	0.000240057
0.111872 	84.8296 	-0.308308 	0.000134893
0.112126 	85.0519 	-0.305951 	2.97293e-05
0.11238 	85.2711 	-0.296053 	0.000191395
0.112635 	85.4889 	-0.283183 	0.000458218
0.112889 	85.7068 	-0.271126 	0.000702417
0.113143 	85.9241 	-0.277298 	0.00044003
0.113397 	86.1415 	-0.28347 	0.000177642
0.113652 	86.3569 	-0.286784 	3.77267e-05
0.113906 	86.5681 	-0.28411 	0.000154533
0.11416 	86.7794 	-0.281436 	0.00027134
0.114414 	86.9906 	-0.278762 	0.000153209
0.114669 	87.2018 	-0.276087 	3.40142e-05
0.114923 	87.4088 	-0.265348 	0.000168807
0.115177 	87.6141 	-0.251389 	0.000405021
0.115431 	87.8193 	-0.23743 	0.000641235
0.115686 	88.0239 	-0.242834 	0.000430982
0.11594 	88.2285 	-0.249222 	0.000198064
0.116194 	88.4319 	-0.254207 	1.95432e-05
0.116448 	88.6287 	-0.251221 	0.000150137
0.116703 	88.8256 	-0.248236 	0.000280731
0.116957 	89.0224 	-0.24525 	0.000172978
0.117211 	89.2192 	-0.242265 	4.02036e-05
0.117465 	89.4108 	-0.230759 	0.000145909
0.11772 	89.6 	-0.215552 	0.000355186
0.117974 	89.7892 	-0.200346 	0.000564462
0.118228 	89.9777 	-0.203907 	0.000415631
0.118482 	90.166 	-0.210515 	0.000208677
0.118737 	90.3543 	-0.217122 	1.72341e-06
0.118991 	90.5333 	-0.213989 	0.000139519
0.119245 	90.7123 	-0.210775 	0.000280209
0.119499 	90.8912 	-0.20756 	0.000190386
0.119754 	91.0702 	-0.204345 	4.79024e-05
0.120008 	91.243 	-0.192491 	0.000124464
0.120262 	91.4128 	-0.176261 	0.000311965
0.120517 	91.5825 	-0.160032 	0.000499465
0.120771 	91.7514 	-0.161624 	0.000399831
0.121025 	91.92 	-0.168575 	0.000213849
0.121279 	92.0886 	-0.175526 	2.78671e-05
0.121534 	92.2479 	-0.173717 	0.000124739
0.121788 	92.4056 	-0.170364 	0.000271463
0.122042 	92.5633 	-0.167011 	0.000205201
0.122296 	92.7211 	-0.163658 	5.72076e-05
0.122551 	92.8721 	-0.151946 	0.000101875
0.122805 	93.019 	-0.134967 	0.000267944
0.123059 	93.1659 	-0.117989 	0.000434013
0.123313 	93.312 	-0.117527 	0.000375767
0.123568 	93.4576 	-0.124944 	0.000210529
0.123822 	93.6033 	-0.132361 	4.52909e-05
0.124076 	93.7401 	-0.131985 	0.00010534
0.12433 	93.8736 	-0.128666 	0.000250455
0.124585 	94.007 	-0.125348 	0.000212015
0.124839 	94.1405 	-0.122029 	6.62445e-05
0.125093 	94.2673 	-0.111053 	8.02625e-05
0.125347 	94.3886 	-0.0936973 	0.000227382
0.125602 	94.5099 	-0.0763417 	0.000374502
0.125856 	94.6305 	-0.073875 	0.000349616
0.12611 	94.7505 	-0.0819628 	0.000202798
0.126364 	94.8705 	-0.0900506 	5.59809e-05
0.126619 	94.9824 	-0.0912176 	8.37246e-05
0.126873 	95.0893 	-0.0881196 	0.000219046
0.127127 	95.1962 	-0.0850215 	0.00020838
0.127381 	95.3031 	-0.0819235 	7.29409e-05
0.127636 	95.404 	-0.0722082 	6.18239e-05
0.12789 	95.4978 	-0.0547702 	0.000195801
0.128144 	95.5917 	-0.0373322 	0.000329778
0.128398 	95.6849 	-0.0328803 	0.000331587
0.128653 	95.7774 	-0.0417721 	0.00019759
0.128907 	95.87 	-0.0506639 	6.35933e-05
0.129161 	95.9555 	-0.0534289 	6.34671e-05
0.129415 	96.0346 	-0.0506599 	0.000184261
0.12967 	96.1138 	-0.0478909 	0.000197076
0.129924 	96.1929 	-0.0451219 	7.64347e-05
0.130178 	96.2671 	-0.0370358 	4.56325e-05
0.130432 	96.3327 	-0.0197563 	0.000170164
0.130687 	96.3983 	-0.00247678 	0.000294695
0.130941 	96.4635 	0.0039557 	0.000319222
0.131195 	96.528 	-0.00580012 	0.000194501
0.131449 	96.5925 	-0.015556 	6.97804e-05
0.131704 	96.6512 	-0.0199689 	4.55252e-05
0.131958 	96.7024 	-0.0175958 	0.000148871
0.132212 	96.7537 	-0.0152227 	0.000178885
0.132466 	96.8049 	-0.0128497 	7.58218e-05
0.132721 	96.8527 	-0.0066231 	3.1068e-05
0.132975 	96.8906 	0.0103287 	0.000148605
0.133229 	96.9285 	0.0272805 	0.000266142
0.133483 	96.9662 	0.0357268 	0.000310896
0.133738 	97.0032 	0.0251715 	0.000193052
0.133992 	97.0401 	0.0146163 	7.5208e-05
0.134246 	97.0725 	0.00859733 	3.11595e-05
0.134501 	97.0969 	0.0105803 	0.000117282
0.134755 	97.1212 	0.0125632 	0.000158143
0.135009 	97.1455 	0.0145461 	7.23746e-05
0.135263 	97.1679 	0.0187958 	1.70946e-05
0.135518 	97.1795 	0.0352937 	0.000126557
0.135772 	97.1911 	0.0517916 	0.000236019
0.136026 	97.2025 	0.0622414 	0.000297842
0.13628 	97.2134 	0.0508943 	0.00018798
0.136535 	97.2243 	0.0395472 	7.81172e-05
0.136789 	97.2318 	0.0319509 	2.04097e-05
0.137043 	97.2308 	0.0335842 	9.10408e-05
0.137297 	97.2299 	0.0352174 	0.000137529
0.137552 	97.229 	0.0368507 	6.72833e-05
0.137806 	97.2276 	0.0390968 	4.23339e-06
0.13806 	97.2148 	0.0552599 	0.000104594
0.138314 	97.202 	0.0714231 	0.000204954
0.138569 	97.1892 	0.0840626 	0.000280124
0.138823 	97.1759 	0.0720817 	0.000179294
0.139077 	97.1626 	0.0601008 	7.84643e-05
0.139331 	97.1469 	0.0510767 	1.28583e-05
0.139586 	97.1227 	0.0524254 	7.08248e-05
0.13984 	97.0986 	0.0537742 	0.000119609
0.140094 	97.0745 	0.055123 	6.20344e-05
0.140348 	97.0503 	0.0564717 	4.45979e-06
0.140603 	97.0162 	0.0712986 	8.66693e-05
0.140857 	96.9812 	0.0872571 	0.000180615
0.141111 	96.9463 	0.102273 	0.000268302
0.141365 	96.9109 	0.089861 	0.000173824
0.14162 	96.8755 	0.0774487 	7.93456e-05
0.141874 	96.8385 	0.0672149 	8.12319e-06
0.142128 	96.7934 	0.068403 	5.88359e-05
0.142382 	96.7482 	0.069591 	0.000109549
0.142637 	96.703 	0.0707791 	6.04937e-05
0.142891 	96.6578 	0.0719672 	1.01877e-05
0.143145 	96.6048 	0.084885 	7.05433e-05
0.143399 	96.5498 	0.100781 	0.000158999
0.143654 	96.4948 	0.116678 	0.000247455
0.143908 	96.4396 	0.10569 	0.000168843
0.144162 	96.3843 	0.0930233 	7.98013e-05
0.144416 	96.3281 	0.0817862 	4.86792e-06
0.144671 	96.264 	0.0828922 	5.17704e-05
0.144925 	96.1999 	0.0839981 	9.86729e-05
0.145179 	96.1358 	0.0851041 	6.1931e-05
0.145433 	96.0717 	0.08621 	1.54612e-05
0.145688 	96.0017 	0.0971769 	5.54387e-05
0.145942 	95.9289 	0.11306 	0.000138518
0.146196 	95.856 	0.128944 	0.000221598
0.14645 	95.7829 	0.120418 	0.000163029
0.146705 	95.7098 	0.107561 	7.93234e-05
0.146959 	95.6363 	0.0954323 	2.31597e-06
0.147213 	95.5553 	0.096482 	4.65457e-05
0.147467 	95.4743 	0.0975317 	9.07755e-05
0.147722 	95.3934 	0.0985814 	6.42456e-05
0.147976 	95.3124 	0.0996312 	2.04744e-05
0.14823 	95.2273 	0.108582 	4.15608e-05
0.148484 	95.1385 	0.124477 	0.000119646
0.148739 	95.0497 	0.140371 	0.000197731
0.148993 	94.9607 	0.134378 	0.000157042
0.149247 	94.8717 	0.121374 	7.83012e-05
0.149502 	94.7827 	0.108447 	2.34938e-07
0.149756 	94.6868 	0.109452 	4.22866e-05
0.15001 	94.5908 	0.110456 	8.43382e-05
0.150264 	94.4948 	0.111461 	6.68169e-05
0.150519 	94.3989 	0.112466 	2.52463e-05
0.150773 	94.3002 	0.119311 	2.85274e-05
0.151027 	94.1973 	0.13519 	0.000101172
0.151281 	94.0944 	0.15107 	0.000173817
0.151536 	93.9914 	0.147622 	0.00014933
0.15179 	93.8884 	0.134459 	7.60174e-05
0.152044 	93.7854 	0.121295 	2.70462e-06
0.152298 	93.6765 	0.121715 	3.75957e-05
0.152553 	93.5673 	0.122656 	7.66311e-05
0.152807 	93.4582 	0.123596 	6.75011e-05
0.153061 	93.3491 	0.124537 	2.89514e-05
0.153315 	93.2384 	0.129181 	1.66219e-05
0.15357 	93.1232 	0.144996 	8.33768e-05
0.153824 	93.008 	0.160812 	0.000150132
0.154078 	92.8927 	0.159895 	0.000139922
0.154332 	92.7775 	0.14654 	7.25033e-05
0.154587 	92.6622 	0.133186 	5.0844e-06
0.154841 	92.5421 	0.132963 	3.21777e-05
0.155095 	92.4216 	0.133811 	6.69796e-05
0.155349 	92.3011 	0.13466 	6.51878e-05
0.155604 	92.1807 	0.135508 	3.0851e-05
0.155858 	92.0596 	0.137865 	6.1776e-06
0.156112 	91.9339 	0.153574 	6.70224e-05
0.156366 	91.8082 	0.169283 	0.000127867
0.156621 	91.6825 	0.170883 	0.000129771
0.156875 	91.5568 	0.15731 	6.82791e-05
0.157129 	91.4311 	0.143737 	6.78717e-06
0.157383 	91.3016 	0.142893 	2.63662e-05
0.157638 	91.1716 	0.143627 	5.60031e-05
0.157892 	91.0416 	0.144362 	5.98731e-05
0.158146 	90.9116 	0.145097 	3.06571e-05
0.1584 	90.7816 	0.145832 	1.44106e-06
0.158655 	90.6474 	0.160674 	5.25902e-05
0.158909 	90.5131 	0.176247 	0.000107908
0.159163 	90.3788 	0.180364 	0.000119834
0.159417 	90.2445 	0.166561 	6.38934e-05
0.159672 	90.1103 	0.152759 	7.95262e-06
0.159926 	89.9732 	0.151321 	2.06265e-05
0.16018 	89.8355 	0.151933 	4.46707e-05
0.160434 	89.6979 	0.152544 	5.21803e-05
0.160689 	89.5602 	0.153155 	2.84958e-05
0.160943 	89.4226 	0.153767 	4.81124e-06
0.161197 	89.2822 	0.166183 	4.01826e-05
0.161451 	89.1411 	0.181608 	9.06076e-05
0.161706 	89.0001 	0.188249 	0.000110775
0.16196 	88.8593 	0.174225 	5.97544e-05
0.162214 	88.7184 	0.160202 	8.73338e-06
0.162468 	88.5754 	0.158206 	1.53115e-05
0.162723 	88.432 	0.158694 	3.37848e-05
0.162977 	88.2886 	0.159183 	4.29066e-05
0.163231 	88.1452 	0.159671 	2.47221e-05
0.163485 	88.0019 	0.160159 	6.53765e-06
0.16374 	87.8568 	0.170116 	2.96202e-05
0.163994 	87.7109 	0.185387 	7.58656e-05
0.164248 	87.565 	0.194566 	0.00010289
0.164503 	87.4193 	0.180343 	5.60749e-05
0.164757 	87.2737 	0.166119 	9.2602e-06
0.165011 	87.1267 	0.163603 	1.05741e-05
0.165265 	86.9793 	0.163975 	2.37552e-05
0.16552 	86.832 	0.164346 	3.26524e-05
0.165774 	86.6847 	0.164717 	1.96851e-05
0.166028 	86.5374 	0.165088 	6.71779e-06
0.166282 	86.3892 	0.172565 	2.05932e-05
0.166537 	86.2402 	0.18768 	6.33205e-05
0.166791 	86.0912 	0.199405 	9.61692e-05
0.167045 	85.9425 	0.185009 	5.28976e-05
0.167299 	85.7938 	0.170614 	9.62603e-06
0.167554 	85.6444 	0.167615 	6.40081e-06
0.167808 	85.4948 	0.167876 	1.46325e-05
0.168062 	85.3452 	0.168138 	2.16789e-05
0.168316 	85.1956 	0.168399 	1.35848e-05
0.168571 	85.046 	0.16866 	5.49068e-06
0.168825 	84.8961 	0.173647 	1.27845e-05
0.169079 	84.7456 	0.188598 	5.25276e-05
0.169333 	84.5951 	0.202864 	9.04123e-05
0.169588 	84.445 	0.188329 	5.01488e-05
0.169842 	84.2948 	0.173793 	9.88528e-06
0.170096 	84.1445 	0.170345 	2.76751e-06
0.17035 	83.9942 	0.170504 	6.43527e-06
0.170605 	83.8439 	0.170664 	1.0103e-05
0.170859 	83.6935 	0.170824 	6.63319e-06
0.171113 	83.5432 	0.170984 	3.02828e-06
0.171367 	83.3928 	0.173483 	5.94852e-06
0.171622 	83.2422 	0.188264 	4.31208e-05
0.171876 	83.0916 	0.203045 	8.0293e-05
0.17213 	82.9414 	0.190418 	4.77413e-05
0.172384 	82.7913 	0.17578 	1.00714e-05
0.172639 	82.6414 	0.171915 	-3.96808e-07
0.172893 	82.4916 	0.17198 	-9.38712e-07
0.173147 	82.3418 	0.172046 	-1.48062e-06
0.173401 	82.192 	0.172112 	-1.06606e-06
0.173656 	82.0423 	0.172178 	-5.33619e-07
0.17391 	81.8925 	0.172243 	-1.17829e-09
0.174164 	81.743 	0.1868 	3.48165e-05
0.174418 	81.5936 	0.201395 	6.9724e-05
0.174673 	81.4445 	0.191377 	4.55856e-05
0.174927 	81.2955 	0.176672 	1.0203e-05
0.175181 	81.1472 	0.172418 	-3.06999e-06
0.175435 	80.9991 	0.172399 	-7.3842e-06
0.17569 	80.851 	0.17238 	-1.16984e-05
0.175944 	80.7028 	0.172361 	-9.17833e-06
0.176198 	80.5547 	0.172343 	-4.94051e-06
0.176452 	80.4066 	0.172324 	-7.02686e-07
0.176707 	80.2592 	0.184332 	2.73435e-05
0.176961 	80.1119 	0.198731 	6.01239e-05
0.177215 	79.965 	0.191335 	4.3496e-05
0.177469 	79.8182 	0.176615 	1.02642e-05
0.177724 	79.6722 	0.172004 	-5.29165e-06
0.177978 	79.5267 	0.171909 	-1.29484e-05
0.178232 	79.3812 	0.171815 	-2.06051e-05
0.178486 	79.2356 	0.171721 	-1.75164e-05