/*--------------------------------*- C++ -*----------------------------------*\
| =========                 |                                                 |
| \\      /  F ield         | OpenFOAM: The Open Source CFD Toolbox           |
|  \\    /   O peration     | Version:  v3.0+                                 |
|   \\  /    A nd           | Web:      www.OpenFOAM.com                      |
|    \\/     M anipulation  |                                                 |
\*---------------------------------------------------------------------------*/
FoamFile
{
    version     2.0;
    format      ascii;
    class       volScalarField;
    location    "17000";
    object      sigmaEq;
}
// * * * * * * * * * * * * * * * * * * * * * * * * * * * * * * * * * * * * * //

dimensions      [1 -1 -2 0 0 0 0];

internalField   nonuniform List<scalar> 
27023
(
2.99038e+07
2.99088e+07
2.18719e+07
2.18688e+07
2.87184e+07
2.87235e+07
9.68408e+07
9.6836e+07
1.16173e+07
1.162e+07
6.89597e+07
6.89491e+07
2.87866e+06
2.88423e+06
2.79386e+07
2.06935e+07
1.97068e+07
5.95278e+07
5.95291e+07
4.27569e+07
4.27604e+07
9.62065e+07
9.62018e+07
4.42212e+07
4.42234e+07
7.18389e+06
3.16044e+07
4.44e+06
3.06934e+07
3.4208e+07
1.54281e+07
4.28844e+07
4.28874e+07
4.5185e+07
2.73938e+07
3.50977e+07
3.7548e+07
3.75438e+07
1.14418e+07
1.14445e+07
2.19614e+07
2.19646e+07
2.29027e+07
2.88751e+07
2.888e+07
5.8792e+07
5.87907e+07
4.27663e+07
4.2768e+07
3.15276e+07
4.12927e+07
4.1295e+07
4.41349e+07
544207
541597
4.95532e+07
2.07545e+07
3.70116e+07
1.76312e+07
2.26491e+07
2.26462e+07
3.06419e+07
5.73997e+06
5.79534e+06
2.27889e+07
1.35104e+07
3.84517e+07
8.98121e+06
3.27264e+07
2.16996e+07
3.5735e+07
3.57306e+07
6.2836e+07
6.28356e+07
8.98497e+07
8.98486e+07
998123
996464
1.0528e+08
1.05282e+08
2.36333e+07
6.65694e+07
6.65587e+07
6.09282e+07
6.0928e+07
9.54902e+07
9.5491e+07
3.83591e+07
6.46985e+06
1.8566e+07
1.75969e+07
3.09983e+07
3.09931e+07
2.35711e+07
8.53948e+06
4.46315e+07
4.46242e+07
2.36152e+07
1.84611e+07
6.22336e+06
2.91403e+07
1.80434e+07
1.8102e+07
7.55625e+07
7.55597e+07
4.92281e+06
8.60303e+07
8.60271e+07
4.87411e+07
3.43379e+07
2.21543e+07
8.57445e+07
8.57416e+07
4.40455e+07
4.40474e+07
9.0568e+07
9.0567e+07
2.34531e+07
3.38539e+07
2.49424e+07
2.17011e+07
3.39021e+06
8.31329e+07
8.31431e+07
1.062e+08
1.06195e+08
3.01497e+07
3.01445e+07
7.67131e+07
7.67102e+07
1.64223e+07
2.9824e+06
2.99957e+06
1.43775e+07
1.90701e+07
9.55772e+07
9.5578e+07
1.06056e+07
6.06149e+07
6.06136e+07
9.04749e+07
9.04812e+07
8.76112e+06
9.33371e+07
9.33321e+07
1.46026e+07
1.7164e+07
4.0472e+07
3.93027e+07
4.95064e+07
4.95007e+07
5.24578e+07
5.24542e+07
2.78428e+07
2.7036e+07
2.96145e+07
2.93595e+07
2.78689e+07
5.98783e+07
5.98769e+07
5.58785e+07
2.35976e+07
4.81304e+07
6.50707e+06
6.11203e+07
6.11248e+07
8.16432e+07
8.16499e+07
1.73648e+07
5.3382e+06
8.78082e+06
1.06016e+08
1.06019e+08
2.04391e+07
1.99087e+07
3.04512e+07
4.29734e+06
7.94424e+06
2.09339e+07
1.183e+07
3.94445e+07
8.65611e+07
8.6567e+07
3.06937e+07
5.51418e+07
5.85675e+07
4.19063e+07
4.18987e+07
5.05741e+07
1.88693e+07
8.17444e+07
8.17513e+07
2.32981e+07
6.40864e+06
1.05939e+08
1.05935e+08
6.23904e+07
7.9758e+07
7.97668e+07
3.16155e+07
2.96978e+07
3.2909e+07
8.82087e+07
8.82078e+07
2.74014e+07
2.74063e+07
2.09805e+07
6.1473e+07
8.79034e+07
8.79024e+07
344171
342552
2.47657e+07
2.23519e+07
1.33978e+07
1.33949e+07
2.69958e+07
6.63696e+06
9.04069e+06
9.36309e+07
9.36323e+07
1.65393e+07
8.33186e+07
8.33288e+07
2.84435e+07
8.13378e+07
8.13362e+07
6.32685e+07
6.32681e+07
5.87511e+06
5.87925e+06
6.91617e+06
8.39687e+07
8.3967e+07
5.67581e+07
8.23431e+07
8.23418e+07
9.1179e+07
3.41447e+07
1.03629e+08
1.03634e+08
3.28584e+07
5.87064e+07
5.80468e+07
4.59209e+07
2.52142e+07
6.89112e+06
2.97518e+07
4.84909e+07
4.49643e+07
9.588e+07
9.58827e+07
2.1792e+07
1.97298e+07
6.18942e+07
6.2493e+07
7.53077e+07
5.72198e+07
4.83433e+07
4.83426e+07
2.21607e+07
1.15882e+07
5.26305e+07
8.46042e+07
8.46029e+07
9.29589e+07
9.29541e+07
7.51233e+06
1.95616e+07
7.89295e+07
7.89198e+07
3.63056e+07
2.07458e+07
3.9982e+07
9.78417e+06
7.18731e+06
6.1358e+07
6.13629e+07
4.86771e+07
4.86832e+07
4.24754e+07
5.17649e+07
1.19064e+07
1.1506e+07
765289
768772
2.17398e+07
2.67603e+07
2.35186e+07
3.94231e+07
3.71441e+06
2.10739e+07
7.83967e+07
7.83984e+07
9.41173e+07
9.41183e+07
4.59385e+07
6.08844e+07
8.81789e+07
8.81798e+07
3.22658e+06
2.06183e+07
7.91715e+07
7.91761e+07
1.44656e+07
1.74899e+07
1.74783e+07
2.6666e+07
3.07401e+07
9.2217e+06
3.46115e+06
453684
452043
6.97048e+06
6.97606e+06
4.13859e+07
4.34337e+07
4.34363e+07
1.28491e+06
3.02437e+07
4.52954e+06
4.54801e+06
3.30217e+07
2.72934e+07
2.2216e+07
3.15738e+07
7.15875e+07
1.04522e+07
3.79439e+07
4.60093e+07
1.88107e+07
4.60542e+07
8.20177e+07
8.56974e+06
3.48278e+07
4.37708e+07
4.37759e+07
1.51875e+07
2.06686e+07
7.31306e+07
7.31287e+07
6.04525e+07
6.07468e+07
322648
321129
3.08657e+07
3.34284e+07
3.34231e+07
2.60272e+07
1.20229e+07
4.62742e+07
4.63353e+07
8.66283e+07
8.66267e+07
141646
140730
2.2982e+07
1.00618e+08
1.0062e+08
6.53775e+06
3.74094e+07
8.51854e+07
8.51865e+07
9.2709e+07
9.27181e+07
1.84535e+07
3.76728e+07
1.97407e+07
3.62333e+07
3.62379e+07
1.00336e+08
1.00338e+08
2.32511e+07
5.68646e+07
2.23104e+07
5.8212e+07
5.74311e+07
3.05179e+07
3.78063e+07
3.46445e+07
2.90777e+07
3.46384e+07
9.84207e+07
9.84163e+07
2.83593e+07
1.14292e+07
1.67595e+07
5.93577e+07
4.27177e+07
8.4823e+06
2.92152e+07
1.20295e+07
3.73879e+07
7.81266e+06
2.05457e+07
1.06399e+07
3.66836e+07
1.99128e+07
8.41197e+07
3.94154e+07
6.25575e+07
6.25573e+07
2.75965e+07
2.21969e+07
1.24647e+07
3.65371e+07
3.65414e+07
2.92432e+06
1.996e+07
4.04622e+07
2.66689e+06
4.03845e+07
1.02932e+06
1.02463e+06
1.78722e+07
4.90204e+07
3.47552e+07
5.99702e+07
3.26803e+07
4.23336e+07
1.77311e+07
5.32088e+07
1.94942e+07
8.68758e+06
5.18e+06
8.0414e+07
8.55517e+07
8.55527e+07
7.4348e+07
9.33928e+06
5.83725e+07
2.56994e+07
8.22968e+07
8.22956e+07
5.45141e+07
5.45139e+07
5.98247e+07
1.03033e+07
1.53652e+07
1.5367e+07
7.56156e+07
7.55872e+07
5.08338e+07
5.08323e+07
477805
479987
1.77952e+07
1.40969e+07
4.74607e+07
1.92041e+07
2.06066e+07
8.29531e+07
8.29632e+07
8.26938e+07
8.27035e+07
5.19935e+07
5.19985e+07
5.42459e+07
5.42402e+07
1.32977e+07
7.36014e+06
1.13158e+07
4.59332e+07
2.04794e+07
5.58282e+07
1.95429e+07
1.03427e+08
1.03433e+08
5.03895e+07
2.56505e+07
1.38896e+07
6.77523e+07
5.80951e+07
3.55014e+07
1.33491e+07
7.89593e+07
7.89575e+07
2.32897e+07
2.31792e+07
1.93776e+07
1.93726e+07
8.30737e+07
8.30721e+07
2.95166e+06
1.50363e+07
1.29378e+07
2.19933e+07
8.16765e+07
1.0902e+07
6.97294e+07
6.97401e+07
3.27668e+07
3.79906e+07
2.76843e+06
4.395e+07
4.39525e+07
3.67323e+07
3.67271e+07
2.93286e+07
6.99924e+07
4.07573e+07
2.97688e+07
2.97704e+07
4.54229e+07
2.04038e+07
3.74982e+07
3.74999e+07
3.10457e+07
9.94436e+07
9.94323e+07
7.08301e+07
7.08199e+07
4.17577e+07
7.33744e+07
7.33813e+07
2.36124e+07
3.35007e+07
7.75964e+07
7.75952e+07
5.99653e+07
8.6625e+07
8.6626e+07
5.08497e+07
7.43374e+07
7.4339e+07
4.87948e+07
4.88006e+07
1.13084e+07
6.67258e+07
6.67202e+07
4.02593e+07
9.04705e+06
9.2866e+06
1.26836e+07
5.19879e+07
5.19911e+07
9.58275e+07
9.58298e+07
3.68108e+07
6.20247e+07
3.0505e+07
4.55224e+06
3.72034e+07
3.43605e+07
2.19036e+07
1.53202e+07
1.53184e+07
7.17661e+07
9.45101e+07
9.45111e+07
3.67514e+07
3.85112e+06
7.42269e+07
7.42287e+07
3.60706e+07
4.83967e+07
4.8423e+07
2.47221e+06
1.09392e+07
1.49598e+07
2.9823e+07
3.13657e+07
3.63758e+07
3.63795e+07
4.34985e+07
2.14965e+07
6.75644e+07
6.75628e+07
1.64022e+07
4.22971e+07
4.22928e+07
1.29132e+07
4.25757e+07
4.25705e+07
7.69245e+07
7.69328e+07
4.96889e+07
4.96946e+07
4.86416e+07
2.84957e+07
2.84486e+07
4.77244e+07
5.13885e+07
5.13943e+07
3.40089e+07
2.10684e+07
1.6744e+07
5.0653e+07
2.11108e+07
1.00683e+07
2.4969e+07
7.99663e+07
4.1317e+07
4.13163e+07
3.77287e+07
4.22761e+07
4.22777e+07
3.58546e+07
5.98967e+07
5.98966e+07
1.26334e+07
6.60905e+06
4.30197e+07
4.3017e+07
8.07459e+07
8.07447e+07
6.19381e+07
2.14e+07
3.30527e+07
6.44212e+07
6.44199e+07
9.11882e+07
9.11868e+07
3.03388e+07
2.34138e+07
1.17142e+07
1.21082e+07
2.97957e+07
2.97835e+07
3.72916e+07
221036
401609
403521
222104
2.3119e+07
2.58561e+06
2.59019e+06
4.76667e+07
4.76724e+07
2.96681e+07
2.96732e+07
4.33652e+07
4.33598e+07
1.44268e+07
5.34196e+07
5.3421e+07
4.77445e+07
2.39202e+07
4.98809e+07
4.98787e+07
2.87582e+07
6.00439e+07
6.00432e+07
3.77216e+07
2.71198e+07
5.84647e+07
4.75602e+07
4.75657e+07
5.75501e+07
7.09497e+06
6.02071e+06
2.83833e+07
7.66844e+07
7.66862e+07
2.24194e+07
4.12314e+07
1.00063e+08
1.00065e+08
505595
507862
5.12571e+07
5.12629e+07
4.46936e+07
7.80769e+06
1.02249e+08
1.02248e+08
2.66866e+07
4.15391e+07
1.52514e+07
2.08591e+07
3.59361e+07
3.29585e+07
1.90578e+07
3.24265e+06
1.32107e+07
5.60969e+07
3.36357e+07
5.26835e+07
5.0229e+07
2.6939e+07
2.23753e+07
577647
576646
5.96295e+07
5.96294e+07
3.59128e+07
3.28933e+06
2.30444e+07
8.64844e+06
4.62055e+07
4.95433e+07
4.13573e+07
5.78746e+06
3.17899e+07
3.53612e+07
1.3085e+07
2.69386e+07
2.69327e+07
3.72088e+07
6.50009e+07
8.10057e+06
3.28402e+07
7.88977e+07
7.88959e+07
8.88743e+07
8.88752e+07
516408
513874
5.43318e+06
1.84164e+07
2.52076e+07
9.94687e+06
3.80118e+07
3.80024e+07
2.80629e+07
1.22671e+07
1.22705e+07
9.37825e+07
9.37839e+07
7.39264e+07
6.86624e+07
6.86612e+07
2.18585e+07
5.88791e+07
3.7043e+07
2.2389e+07
5.84585e+07
7.50999e+06
7.69157e+07
7.69145e+07
3.16321e+07
8.31546e+06
9.23242e+07
9.23151e+07
3.1242e+07
8.37476e+07
2.35545e+07
8.37499e+07
2.30852e+07
2.3095e+07
4.2183e+07
3.02193e+07
4.44981e+07
1.98611e+07
4.43238e+07
1.89379e+07
7.78115e+07
1.3434e+07
2.84872e+07
2.84866e+07
8.86233e+07
8.86243e+07
2.28503e+07
6.7703e+06
7.49525e+07
7.49542e+07
4.86512e+07
4.05614e+07
3.36259e+07
1.48499e+07
3.68267e+07
3.34609e+07
3.34556e+07
1.30302e+07
3.93345e+07
3.93384e+07
8.75034e+07
8.75046e+07
2.27061e+06
3.37495e+07
7.19796e+06
7.77541e+07
6.35889e+07
6.35784e+07
3.34913e+07
1.12051e+07
2.44742e+07
5.27812e+07
2.19624e+07
2.89828e+07
1.37093e+07
3.09894e+07
3.71694e+07
8.92338e+07
8.92327e+07
7.18198e+07
7.18094e+07
5.85697e+07
5.75822e+07
1.24739e+07
1.64827e+07
8.64732e+07
8.64719e+07
6.10586e+07
5.55067e+07
3.16523e+06
2.28549e+07
7.1438e+06
6.20677e+06
6.20644e+06
2.2942e+07
9.53078e+06
9.43467e+07
9.43408e+07
5.68501e+06
2.59945e+07
1.11702e+07
1.04307e+08
1.04305e+08
3.09955e+07
3.09955e+07
3.35366e+07
2.56356e+07
2.56414e+07
1.35868e+07
7.0268e+06
7.06154e+06
8.96149e+06
8.05259e+07
8.05247e+07
1.34046e+07
4.33158e+07
4.33181e+07
9.08178e+07
9.08168e+07
2.76111e+07
2.72481e+07
5.56793e+07
5.56736e+07
9.13835e+07
9.13912e+07
9.79949e+06
5.70988e+07
9.39855e+07
9.39786e+07
5.9881e+07
6.66545e+06
5.02956e+07
5.02906e+07
7.12996e+07
7.12984e+07
4.66983e+07
7.73136e+07
7.73154e+07
9.92132e+07
9.92143e+07
4.66935e+07
2.48008e+07
3.52224e+07
1.68043e+07
6.23303e+07
6.23289e+07
7.9957e+07
8.24584e+06
7.24693e+06
7.99565e+07
2.25705e+07
3.6287e+07
3.57029e+07
3.93207e+07
3.93238e+07
7.19058e+06
1.20933e+07
4.30888e+07
6.37319e+07
6.37547e+07
2.56395e+07
2.72927e+06
706526
707410
2.9583e+07
3.30802e+07
2.99877e+07
9.23326e+07
9.23272e+07
4.90295e+07
4.40717e+07
4.83452e+07
2.77521e+07
5.56971e+07
5.56909e+07
5.72199e+07
2.11972e+07
4.90583e+07
3.18213e+07
3.19493e+07
4.83379e+07
5.30265e+07
5.08191e+07
5.08146e+07
7.91139e+07
7.91152e+07
5.16293e+07
1.69258e+07
3.35721e+07
7.34259e+07
7.34163e+07
7.0286e+07
7.02876e+07
1.75151e+07
2.77486e+07
6.27768e+07
6.27755e+07
3.72062e+07
1.15121e+07
1.15124e+07
2.91865e+07
2.92589e+07
8.0114e+07
4.84223e+07
5.08784e+07
6.05579e+07
3.2015e+07
3.39991e+07
1.22149e+07
9.10973e+07
9.10959e+07
7.80297e+06
1.48529e+07
1.53473e+07
3.54342e+07
1.65505e+07
2.25705e+07
6.01836e+06
3.42849e+07
2.77473e+07
1.87206e+07
1.45651e+07
2.98475e+07
2.35505e+07
7.32349e+07
1.92991e+07
1.90565e+07
1.60199e+07
1.60183e+07
2.92454e+07
1.28864e+07
1.28817e+07
2.47042e+07
1.29621e+07
5.35907e+07
5.35932e+07
3.10182e+07
9.78102e+06
9.78024e+06
2.63152e+07
1.63554e+07
2.9242e+07
3.6978e+07
3.98095e+07
2.76707e+07
8.50435e+07
3.10249e+07
2.91262e+07
4.80592e+07
3.23383e+07
3.23332e+07
1.1774e+07
1.35835e+07
3.10797e+06
3.11151e+06
4.26525e+07
4.73892e+06
3.49982e+07
2.6194e+07
3.28459e+07
3.28367e+07
5.91632e+07
1.02177e+07
3.0887e+07
1.55476e+06
1.55452e+06
3.33343e+07
2.3239e+07
1.76883e+07
5.31579e+06
1.99365e+07
5.81071e+07
2.82853e+07
4.3835e+07
3.42173e+07
3.42132e+07
6.79087e+07
5.27599e+07
1.42543e+07
1.54198e+07
3.98084e+07
6.13926e+07
6.14026e+07
8.05142e+06
2.53904e+07
6.52851e+07
1.66146e+07
1.66133e+07
3.51115e+07
2.37435e+07
3.5834e+07
7.90725e+07
7.90742e+07
1.42933e+07
3.82262e+07
3.82028e+07
5.60699e+07
5.60649e+07
2.70036e+07
3.46052e+07
1.01043e+06
1.0112e+06
2.58806e+07
2.87481e+06
1.1948e+07
8.83442e+07
8.83429e+07
1.13881e+07
1.01517e+08
1.01506e+08
9.03222e+06
4.32295e+07
1.32999e+07
6.02725e+07
2.36837e+07
1.05673e+07
6.02844e+07
6.3624e+07
7.03303e+06
2.54177e+07
3.58572e+07
3.58549e+07
3.37551e+07
3.45787e+07
5.6936e+07
2.56306e+07
3.87502e+07
9.17729e+06
8.91895e+06
1.38485e+07
1.95313e+07
5.70029e+06
9.84041e+06
2.26854e+07
8.30637e+06
1.31636e+07
3.75499e+07
2.12491e+07
4.81541e+07
3.567e+07
2.1145e+07
5.94046e+07
5.53719e+07
6.77083e+07
6.77138e+07
2.13955e+07
8.03604e+06
3.22738e+07
3.22621e+07
6.77036e+07
6.77021e+07
2.36639e+07
1.00831e+07
4.77987e+07
8.13297e+06
8.13425e+06
8.60393e+07
8.60382e+07
7.84794e+06
1.69085e+07
3.121e+07
1.87292e+07
7.48575e+06
2.21313e+07
1.00459e+07
9.53852e+06
5.90439e+07
5.18687e+07
5.18708e+07
2.99701e+07
3.00393e+07
1.67573e+07
1.41064e+07
8.61103e+07
8.61092e+07
1.93297e+07
1.41021e+07
3.14355e+07
1.32918e+07
5.40341e+07
2.37609e+07
2.11568e+07
1.76661e+07
6.4765e+07
1.04877e+07
2.09043e+07
7.69189e+07
5.40897e+07
5.40912e+07
6.82321e+07
1.32322e+07
3.53134e+07
2.84305e+07
2.96004e+07
7.50906e+07
7.50349e+07
2.83244e+07
7.85462e+07
9.63835e+06
9.63659e+06
1.20696e+07
1.20714e+07
2.65006e+07
3.24159e+07
2.96441e+07
8.89126e+07
8.41277e+07
8.41382e+07
1.64551e+07
1.64474e+07
2.2568e+07
9.10978e+07
9.10964e+07
3.64393e+07
3.61918e+07
9.20416e+06
372330
370561
2.90012e+07
1.81228e+07
7.26537e+07
1.93884e+07
8.17842e+07
8.17897e+07
3.00977e+07
6.9762e+07
6.93036e+07
2.65528e+07
1.75814e+07
2.63069e+06
3.08551e+07
3.08672e+07
8.55685e+07
8.55698e+07
1.52141e+07
3.57681e+07
3.57499e+07
7.86483e+07
7.86501e+07
1.61638e+07
4.38166e+07
3.63967e+07
1.521e+07
3.24199e+07
3.24175e+07
2.82524e+07
2.07882e+07
6.29365e+07
5.2005e+06
3.62213e+07
3.6226e+07
3.77196e+07
1.72505e+07
7.45221e+07
7.31155e+07
7.31139e+07
5.61105e+07
7.13321e+06
2.8817e+07
2.89946e+07
9.62353e+07
9.6226e+07
4.01509e+07
5.87917e+07
5.87912e+07
3.87714e+07
6.21307e+07
4.9929e+07
4.99307e+07
3.03459e+07
2.27371e+07
5.58991e+06
4.02816e+06
4.6202e+07
1.65659e+07
1.22581e+07
447945
445165
6.2169e+07
1.2606e+07
1.26061e+07
7.36026e+07
7.35927e+07
4.80769e+06
9.18408e+07
9.18323e+07
6.91131e+07
6.91189e+07
9.76911e+07
9.7692e+07
2.55425e+07
8.98352e+07
8.98341e+07
8.43469e+06
3.13008e+07
3.24413e+06
2.71107e+07
2.04229e+07
2.75111e+07
7.01392e+07
7.01399e+07
2.16991e+07
2.17087e+07
1.78263e+07
3.29452e+06
1.05002e+07
5.70851e+07
1.08516e+07
4.16651e+07
6.18678e+07
2.23039e+07
1.28949e+07
7.70468e+06
7.70793e+06
5.76017e+07
3.60293e+07
5.69448e+07
3.69697e+07
1.73815e+07
1.50512e+07
3.41007e+07
3.40867e+07
3.43179e+07
2.12077e+07
3.28324e+07
3.27232e+07
1.44144e+07
4.45879e+07
8.74857e+07
4.17714e+07
4.17676e+07
6.17181e+07
2.99576e+07
3.30824e+07
3.75643e+07
4.1485e+07
8.74895e+07
3.75765e+07
4.9021e+07
3.97539e+07
2.12099e+07
3.4379e+07
1.27324e+07
3.13952e+07
2.42692e+07
1.89432e+07
8.15314e+06
2.02031e+07
3.3471e+07
3.30746e+07
2.2639e+07
7.09405e+07
7.09391e+07
5.12943e+07
2.2877e+07
1.29892e+07
1.69422e+07
6.04499e+07
5.46687e+07
6.30848e+06
7.28203e+07
2.56651e+07
1.15929e+07
5.46875e+07
3.26359e+07
4.70408e+07
1.9956e+07
1.05224e+07
5.56253e+07
5.48142e+07
3.79423e+07
852542
849150
6.22005e+07
6.67506e+07
6.67612e+07
8.0025e+06
7.46319e+07
7.46259e+07
2.13733e+07
3.1904e+07
3.18987e+07
4.05435e+07
973639
1.013e+07
9.41197e+07
9.41189e+07
8.23617e+06
7.25694e+07
7.8953e+07
2.87557e+07
7.32765e+07
7.3267e+07
3.86483e+07
1.2003e+07
1.05486e+07
6.71932e+07
3.33248e+07
3.33278e+07
541217
538749
8.82693e+06
2.23037e+07
5.4831e+07
5.48251e+07
7.55157e+07
7.55138e+07
6.63449e+07
1.45505e+07
2.8045e+07
6.876e+07
6.87587e+07
6.75866e+06
871812
874867
6.97161e+07
6.9693e+07
7.58926e+07
7.58944e+07
7.39311e+07
8.56187e+07
8.56174e+07
5.55249e+07
5.55191e+07
4.17782e+07
1.96248e+07
7.98161e+07
7.86434e+07
3.15405e+07
7.08296e+06
7.86463e+07
1.33573e+07
3.71273e+07
4.39845e+07
4.70458e+07
2.84757e+07
8.1918e+07
8.19168e+07
1.93502e+07
7.12098e+07
7.12162e+07
8.59682e+07
8.59656e+07
3.07659e+07
5.44822e+07
5.44816e+07
3.35019e+07
3.35113e+07
3.46402e+07
3.18117e+07
3.18169e+07
3.55609e+07
8.88703e+07
8.88712e+07
2.28468e+07
1.56259e+07
3.55059e+07
2.04823e+07
2.73076e+07
2.72233e+07
1.38005e+07
3.4368e+07
2.05245e+07
2.74799e+07
269117
270736
9.56368e+07
9.56395e+07
1.4352e+07
2.47543e+07
9.70221e+07
9.70127e+07
3.76578e+07
2.9339e+07
1.87221e+07
5.74737e+07
5.79297e+07
3.20116e+07
6.87948e+06
6.04609e+07
9.97516e+06
9.45848e+07
9.45924e+07
3.6767e+07
3.67656e+07
5.50399e+07
5.50414e+07
2.52539e+06
2.516e+06
1.65591e+07
5.58066e+07
1.1767e+07
3.17191e+07
2.93214e+07
1.85456e+07
4.95867e+06
4.96305e+06
1.65458e+07
4.03602e+06
2.93643e+07
3.57361e+07
3.57414e+07
2.75005e+07
5.67991e+06
4.27184e+07
5.77056e+07
5.7705e+07
3.33172e+07
2.19972e+07
6.17012e+07
6.17024e+07
2.68349e+07
5.71304e+07
5.71297e+07
5.12446e+07
2.62967e+07
3.13629e+07
1.87073e+07
2.19795e+07
2.19815e+07
7.96399e+07
1.65316e+07
5.02448e+07
5.02415e+07
5.03594e+06
4.40578e+07
4.40526e+07
8.79802e+06
6.42177e+07
6.42168e+07
3.4219e+07
3.42241e+07
5.36562e+06
2.24165e+07
2.24276e+07
6.79428e+07
6.7944e+07
4.24067e+07
2.26883e+07
4.24463e+07
4.71305e+07
4.7125e+07
4.22184e+07
1.40801e+07
3.36569e+07
3.36774e+07
1.07919e+07
8.78033e+07
8.77917e+07
1.22527e+07
5.42791e+07
8.69833e+07
8.69822e+07
973006
972618
1.08112e+07
7.29094e+07
7.29078e+07
9.66934e+06
3.36123e+07
3.36022e+07
7.47067e+06
7.47263e+06
1.4833e+07
3.19771e+07
8.72414e+07
8.72299e+07
9.9946e+07
9.99494e+07
3.14058e+07
1.39437e+07
1.44207e+07
1.44184e+07
2.29862e+07
279257
277866
9.31033e+07
9.31043e+07
2.47278e+07
1.93206e+07
1.93199e+07
1.10518e+07
7.56521e+07
7.56539e+07
1.8646e+07
2.1196e+07
8.66423e+07
8.66438e+07
8.1906e+07
8.19161e+07
2.30727e+07
1.81335e+07
5.80751e+07
2.80927e+07
1.81535e+07
9.19028e+06
2.9439e+07
3.06369e+07
3.8478e+07
3.87331e+07
6.95957e+07
6.95972e+07
8.68968e+07
8.68956e+07
6.97893e+07
3.69742e+07
1.03138e+07
2.14928e+07
8.25029e+07
3.62435e+07
5.686e+07
5.28008e+07
5.75546e+07
4.59808e+07
4.59806e+07
4.14846e+07
4.14895e+07
9.50441e+06
1.15025e+07
3.19669e+07
1.46883e+07
1.74676e+07
2.83237e+07
3.06661e+07
1.30177e+07
3.59881e+07
3.59841e+07
1.13115e+07
3.95214e+07
3.95234e+07
1.61335e+07
9.71176e+07
9.71298e+07
8.28158e+07
8.28212e+07
1.89967e+07
5.82273e+07
5.82272e+07
1.06168e+08
1.06165e+08
6.57893e+07
6.57883e+07
5.02346e+07
5.02288e+07
7.76311e+07
1.72609e+07
2.37643e+07
1.18533e+07
3.7632e+07
3.7636e+07
5.92539e+07
5.92538e+07
2.22652e+07
2.22416e+07
1.74038e+07
1.00329e+08
1.00328e+08
3.6733e+07
5.16004e+07
5.17075e+07
2.88364e+07
3.65849e+07
5.41454e+07
1.62722e+07
3.08216e+07
3.07804e+07
7.35549e+06
3.82912e+07
3.49523e+07
3.81859e+06
3.82377e+06
6.56495e+07
1.34586e+07
1.45787e+07
1.87422e+07
4.65255e+07
7.60191e+07
1.86261e+07
2.29908e+07
2.29875e+07
7.39623e+07
7.39607e+07
4.50559e+07
4.50505e+07
2.1479e+07
1.91242e+07
1.78526e+07
1.4603e+07
1.72521e+07
6.43872e+07
2.38328e+07
2.62706e+07
1.04349e+07
7.23339e+07
7.23089e+07
7.21931e+06
7.22488e+06
1.9639e+07
1.76007e+07
4.93248e+07
4.93199e+07
5.34317e+07
5.34255e+07
9.31198e+07
9.31189e+07
2.20802e+07
1.22232e+07
1.20751e+07
6.01506e+06
6.77824e+07
6.86049e+07
8.28572e+07
8.28584e+07
3.77465e+07
3.82907e+06
6.1055e+07
6.10444e+07
3.99303e+07
3.97828e+07
2.94603e+07
1.30917e+07
3.86207e+07
1.9435e+07
2.88061e+07
2.87243e+07
5.67071e+07
5.6703e+07
5.60319e+07
8.12971e+07
8.12955e+07
7.0392e+07
7.03814e+07
7.64657e+07
2.92388e+07
2.91981e+07
2.70807e+07
2.7087e+07
1.42052e+07
2.20859e+07
3.99134e+07
3.22927e+07
3.22976e+07
1.43305e+07
1.43282e+07
2.19262e+07
3.92547e+07
5.22816e+07
5.22807e+07
4.51082e+07
2.05179e+07
9.82591e+07
9.82626e+07
1.97592e+07
5.31174e+07
6.7358e+07
2.1366e+07
5.53907e+07
6.45901e+07
6.45908e+07
2.30404e+07
6.939e+07
6.93888e+07
2.29988e+07
2.20789e+07
5.53973e+07
4.87808e+07
4.87799e+07
2.61772e+07
2.65825e+07
5.21227e+06
8.48541e+07
8.48526e+07
1.05528e+07
1.49922e+07
4.60015e+07
4.59999e+07
3.10016e+07
3.06589e+07
3.04188e+07
1.0806e+07
4.32191e+06
4.25402e+06
4.55126e+07
4.55127e+07
1.98845e+07
1.36698e+07
3.21942e+07
6.04583e+07
6.1046e+06
1.51807e+07
5.09165e+06
6.38213e+06
2.98407e+07
7.27042e+07
2.37633e+07
7.51481e+07
7.51388e+07
3.19442e+07
4.64346e+06
4.64804e+06
7.18838e+07
7.1878e+07
2.48283e+07
7.78177e+07
7.78258e+07
3.1267e+07
7.1293e+07
1.18247e+07
2.21455e+06
2.21229e+06
1.05296e+07
6.14632e+07
6.14647e+07
3.7988e+07
5.9632e+06
3.85058e+07
2.02489e+07
6.97834e+07
3.36272e+07
2.35677e+07
2.35785e+07
4.87981e+07
4.87925e+07
3.69541e+07
1.76899e+07
3.04222e+07
6.75423e+07
6.7544e+07
1.02644e+07
8.67928e+06
8.67916e+06
2.61817e+06
8.73625e+07
8.73636e+07
1.30732e+07
1.93864e+07
2.89267e+07
2.66853e+07
2.67091e+07
3.79952e+07
3.79915e+07
2.65821e+07
3.21527e+07
4.26657e+07
4.24839e+07
5.19749e+07
3.51356e+07
5.33308e+07
6.7366e+06
6.61403e+07
2.18811e+07
3.14925e+07
3.14793e+07
8.747e+06
2.26249e+07
2.26212e+07
7.09979e+07
7.10053e+07
5.85628e+07
8.06852e+07
5.68423e+06
1.51293e+07
3.09266e+07
7.46296e+06
6.69217e+07
6.44675e+07
4.44419e+07
2.76058e+07
3.70017e+07
1.35096e+07
3.66548e+07
4.47358e+07
4.47349e+07
4.19925e+07
4.19889e+07
5.72618e+07
5.83147e+07
2.77265e+07
4.1325e+07
4.13282e+07
7.33382e+06
4.88726e+07
4.89413e+07
6.82352e+07
6.82364e+07
1.66062e+07
4.98341e+07
1.09688e+07
3.70511e+07
6.55759e+07
266897
268580
3.18052e+07
1.87304e+07
2.15515e+07
1.65955e+07
1.01498e+07
3.42023e+07
3.41983e+07
5.50022e+07
5.50009e+07
3.17176e+07
6.97159e+07
8.94636e+07
8.94624e+07
4.81721e+07
4.8169e+07
2.88493e+07
2.3199e+07
2.34462e+07
2.89066e+07
5.16408e+07
5.19477e+07
2.03059e+07
4.63808e+07
4.64573e+07
4.96966e+07
4.97023e+07
4.89734e+07
3.28569e+07
3.28517e+07
3.16161e+07
3.15967e+07
4.00858e+07
2.57843e+07
2.57885e+07
1.50668e+07
2.13633e+07
5.45607e+06
2.26581e+07
2.97033e+07
1.022e+07
1.02232e+07
2.49865e+07
2.97161e+07
5.39967e+07
5.39984e+07
2.081e+07
3.01833e+07
3.11109e+07
3.5836e+07
4.13175e+07
4.13129e+07
3.79634e+07
8.68084e+07
8.6816e+07
3.44008e+07
3.67658e+07
1.65092e+07
5.76735e+07
4.61905e+07
4.61923e+07
1.69744e+07
4.27623e+07
3.53493e+07
7.99543e+07
7.99555e+07
5.30822e+07
5.30622e+07
2.42689e+07
2.56641e+07
2.4004e+07
1.73598e+07
2.38338e+07
2.15439e+07
2.88183e+07
2.67038e+07
4.45185e+06
6.80202e+06
5.55146e+07
5.55138e+07
9.44253e+06
9.14327e+07
6.12345e+07
6.12349e+07
5.89414e+07
3.70051e+07
3.53043e+07
2.88163e+07
3.70217e+07
8.48018e+07
8.48028e+07
1.25343e+07
3.96399e+07
5.81171e+07
5.81171e+07
3.3369e+07
3.12011e+07
5.06692e+07
85193
84138.2
2.99381e+07
7.42756e+07
7.42681e+07
3.09942e+07
1.15306e+07
2.60495e+07
6.02418e+07
4.89352e+07
2.96171e+06
9.14249e+07
1.42119e+06
1.42075e+06
2.1047e+07
4.32249e+07
1.36568e+07
1.04293e+06
1.04371e+06
3.55963e+07
5.31462e+07
5.31461e+07
9.44579e+07
9.44515e+07
4.83e+07
4.83055e+07
3.53447e+07
3.36268e+06
3.36541e+06
3.59506e+07
1.8855e+07
2.65364e+07
4.97985e+06
3.01969e+07
2.83268e+07
6.72585e+07
6.72851e+07
6.14755e+07
6.1477e+07
9.64612e+06
3.07823e+07
8.24533e+07
1.99392e+07
4.09864e+07
1.43957e+06
3.87231e+07
4.01458e+07
9.98066e+07
9.97954e+07
6.42691e+07
2.40683e+07
4.84428e+07
4.84483e+07
1.12651e+07
2.86842e+06
2.80357e+06
2.91068e+07
115888
114672
1.70373e+07
1.10986e+07
1.11003e+07
9.25054e+06
8.03394e+07
8.03437e+07
1.40036e+07
3.22574e+07
4.80609e+07
3.22832e+07
6.71914e+07
6.71393e+07
1.52872e+07
2.24611e+07
3.32393e+07
6.8598e+06
8.00229e+07
8.00276e+07
4.31917e+07
4.33293e+07
8.35929e+07
1.32201e+07
1.00725e+08
1.00731e+08
3.50711e+07
3.50656e+07
2.90494e+07
6.71292e+07
1.03106e+07
4.82698e+07
4.82662e+07
9.07844e+07
9.07835e+07
3.59841e+06
8.37309e+06
3.61625e+07
7.86389e+07
2.90579e+07
1.8834e+07
5.69368e+07
5.69367e+07
1.43134e+07
2.53161e+07
3.49918e+07
5.84723e+07
1.47067e+07
3.44711e+07
5.36371e+07
5.36356e+07
7.45037e+07
8.95088e+07
8.951e+07
828647
825102
4.3095e+07
3.21074e+07
9.20153e+07
3.91512e+07
4.8464e+07
4.846e+07
4.92593e+07
3.19745e+07
6.83931e+07
2.90946e+07
1.65264e+07
9.48933e+07
9.48949e+07
6.31071e+07
6.39233e+07
6.39294e+07
1.01129e+08
1.01135e+08
9.20054e+07
325059
323446
2.98666e+07
9.86588e+07
9.86601e+07
4.94669e+07
4.94688e+07
1.3748e+07
1.37451e+07
4.85266e+07
1.6135e+07
7.07933e+07
7.0792e+07
1.41998e+07
2.08762e+07
5.59666e+07
5.59666e+07
3.643e+07
2.73671e+07
7.21194e+07
7.21176e+07
3.03396e+07
1.44774e+07
1.44761e+07
5.15336e+07
1.2204e+07
2.64842e+07
1.01729e+08
1.01718e+08
6.96318e+07
4.6244e+07
4.62446e+07
3.6124e+07
3.6129e+07
7.82663e+06
7.82858e+06
1.71238e+07
6.14971e+07
9.43816e+06
9.43824e+06
5.35973e+07
5.35989e+07
1.73112e+07
1.06922e+07
2.6517e+07
4.92568e+07
1.44419e+07
1.02541e+07
7.52717e+07
7.52631e+07
6.57109e+07
6.57098e+07
1.06592e+08
1.06596e+08
2.93312e+07
3.13956e+07
3.12402e+07
6.43921e+07
6.43907e+07
2.38169e+07
1.1341e+06
1.1391e+06
1.49541e+07
5.2602e+07
3.29709e+07
3.2987e+07
8.06945e+07
2.11978e+07
4.27362e+07
8.92912e+07
8.92922e+07
2.80899e+07
3.06455e+07
3.06773e+07
5.02572e+06
2.44353e+07
4.44813e+06
5.08127e+07
6.18929e+07
6.19032e+07
8.46037e+06
2.57434e+07
8.8008e+07
5.02837e+07
5.02894e+07
1.66612e+07
6.59297e+07
6.59286e+07
7.07363e+06
2.10688e+07
2.10309e+07
6.42881e+06
1.70978e+07
8.30479e+06
6.87877e+07
6.87889e+07
6.68325e+07
6.68265e+07
1.23637e+07
8.32275e+07
8.32293e+07
8.20633e+06
1.49308e+07
8.20902e+06
2.74072e+07
2.74078e+07
2.87749e+07
2.82555e+07
1.64612e+07
4.88143e+06
2.9112e+07
2.63075e+07
6.66071e+07
6.65997e+07
2.33967e+07
2.74981e+07
5.58824e+07
2.1358e+07
7.68493e+07
6.23617e+07
2.16132e+07
2.26171e+07
7.41646e+06
1.34058e+07
9.16553e+07
9.16575e+07
9.0789e+07
9.07904e+07
4.43757e+06
3.59482e+06
3.604e+06
3.75929e+07
2.27689e+07
2.91271e+07
4.10385e+06
1.11001e+07
6.89739e+07
7.48578e+06
3.31833e+06
9.25716e+07
9.25732e+07
2.44582e+07
2.13113e+07
7.3503e+07
3.80339e+07
3.80282e+07
6.31261e+07
7.64413e+07
1.71843e+07
5.39632e+07
2.28426e+07
4.74082e+07
9.46352e+06
6.89075e+06
1.99901e+07
2.10798e+07
9.67183e+07
9.67196e+07
3.96975e+06
3.98145e+06
2.53834e+07
4.4248e+06
4.60368e+07
4.6008e+07
2.02255e+07
2.49589e+07
2.55246e+07
5.19652e+07
5.19657e+07
7.38002e+07
7.06393e+06
4.06583e+07
2.88023e+07
8.50789e+06
5.90159e+07
1.18855e+07
3.54133e+07
3.27441e+06
4.00242e+06
2.42853e+07
4.48522e+06
2.0826e+07
4.37007e+07
9.23621e+07
9.23612e+07
4.01233e+07
4.0117e+07
2.52696e+07
2.52832e+07
1.22909e+07
5.09995e+07
3.58127e+07
3.50511e+07
3.50543e+07
7.25585e+07
2.87043e+07
3.93461e+06
3.59117e+07
3.22134e+07
2.09941e+07
1.45148e+07
3.53171e+06
3.52139e+06
3.41836e+07
3.41886e+07
9.80234e+06
9.80021e+06
5.47858e+07
4.52816e+07
2.68516e+07
2.33202e+07
2.89152e+07
2.21816e+07
784082
2.66417e+06
5.64047e+06
2.60989e+07
4.49899e+07
1.23291e+07
1.04363e+07
4.03857e+07
6.68195e+07
6.68362e+07
4.23729e+07
1.50758e+07
9.86873e+06
7.00592e+07
7.00578e+07
6.08183e+07
6.08175e+07
2.99403e+07
1.49575e+07
2.45314e+07
2.83393e+07
2.85463e+07
2.65254e+07
2.81111e+07
9.13156e+06
2.76215e+07
1.78363e+07
1.73945e+07
9.35493e+06
2.09643e+07
2.26488e+06
2.24591e+06
1.19014e+07
3.99169e+07
5.6384e+07
1.35808e+07
3.90795e+07
3.90674e+07
8.1249e+07
4.53678e+07
4.53667e+07
1.4503e+06
1.44325e+06
3.21335e+07
6.51619e+07
6.51609e+07
6.1251e+06
3.53406e+07
2.1573e+07
1.06433e+07
1.85993e+07
1.85691e+07
5.53603e+07
5.53605e+07
1.97053e+07
8.79049e+06
3.98661e+07
8.15696e+07
8.15612e+07
6.53923e+07
6.53917e+07
9.26823e+06
3.96963e+07
3.9695e+07
2.99516e+07
2.69437e+07
7.753e+07
7.75315e+07
1.41894e+07
2.86133e+07
3.28362e+07
1.07959e+07
24703.1
25499.8
4.98694e+07
4.98698e+07
4.27547e+07
4.27571e+07
8.45042e+06
8.45325e+06
2.33165e+07
4.01724e+06
4.02285e+06
4.84501e+07
6.7533e+07
3.1709e+07
4.65697e+07
4.65682e+07
5.55052e+06
5.68883e+07
6.71924e+06
1.94966e+07
6.21338e+07
5.03935e+07
5.03994e+07
2.74504e+07
1.80469e+07
6.13651e+07
8.99283e+07
8.99376e+07
5.61173e+07
6.50455e+07
6.50333e+07
3.99463e+07
3.99492e+07
26030
25395.2
2.66626e+07
3.2621e+07
1.80445e+07
8.77182e+07
2.9682e+07
3.28792e+07
2.66506e+07
2.66448e+07
8.5842e+07
8.58404e+07
2.13279e+07
7.76765e+07
7.76753e+07
3.5371e+07
4.18844e+07
4.1881e+07
7.58192e+07
3.38831e+07
7.13154e+07
7.13167e+07
6.82021e+07
3.24494e+07
4.43157e+07
2.63889e+07
2.75939e+07
5.61348e+07
5.61351e+07
2.68576e+07
2.68608e+07
2.19875e+07
4.7576e+06
7.42237e+07
2.82563e+07
7.55073e+06
4.06742e+07
4.08255e+07
1.56715e+07
9.93191e+07
9.93204e+07
6.83872e+07
6.83882e+07
8.4774e+06
1.47866e+07
1.48552e+07
8.69203e+07
6.10399e+07
4.17375e+07
7.8946e+06
7.89469e+07
3.04914e+07
8.31961e+07
6.18541e+06
8.54084e+06
1.87129e+07
2.48366e+07
4.5197e+07
4.59477e+07
4.59466e+07
6.1373e+06
1.02905e+08
1.02911e+08
5.21328e+07
5.21311e+07
3.17464e+07
2.38229e+07
1.23053e+07
1.23084e+07
5.0977e+07
8.13018e+07
8.13003e+07
5.44155e+07
1.88983e+07
1.66974e+07
1.22657e+07
991037
987875
8.48709e+07
4.5501e+06
5.45643e+07
5.4566e+07
2.90725e+07
2.90773e+07
2.04958e+07
2.05076e+07
4.4529e+07
4.51777e+07
5.14046e+06
4.45725e+07
9.19599e+06
3.19697e+07
3.20364e+07
4.56544e+07
3.06096e+07
3.06118e+07
3.49246e+07
6.41407e+07
6.41517e+07
1.25474e+07
2.14294e+07
2.06597e+07
2.54722e+07
1.91672e+07
1.06609e+07
2.83973e+07
8.60408e+07
8.60421e+07
3.82473e+07
3.79073e+07
3.79131e+07
1.0412e+08
1.04122e+08
3.56262e+07
2.21066e+07
5.50616e+07
5.50611e+07
2.02691e+07
3.54687e+07
1.49783e+07
3.23419e+07
1.85341e+07
5.997e+07
3.54033e+07
3.54004e+07
1.19437e+07
1.29551e+07
1.29589e+07
9.90486e+07
9.90495e+07
3.82216e+07