0 	31.9369 	-2.73811e-07 	3.37752e-18
0.000254254 	31.9427 	-2.74177e-07 	6.27552e-15
0.000508509 	31.9485 	-2.74177e-07 	6.27552e-15
0.000762763 	31.9542 	-2.74177e-07 	6.27552e-15
0.00101702 	31.96 	-2.74177e-07 	6.27552e-15
0.00127127 	31.9658 	-2.74177e-07 	6.27552e-15
0.00152553 	31.9716 	-2.74177e-07 	6.27552e-15
0.00177978 	31.9774 	-2.74177e-07 	6.27552e-15
0.00203403 	31.9831 	-2.74177e-07 	6.27552e-15
0.00228829 	31.9889 	-2.74177e-07 	6.27552e-15
0.00254254 	31.9947 	-2.74177e-07 	6.27552e-15
0.0027968 	32.0081 	-2.79618e-07 	6.28134e-15
0.00305105 	32.0224 	-2.79618e-07 	6.28134e-15
0.00330531 	32.0366 	-2.79618e-07 	6.28134e-15
0.00355956 	32.0508 	-2.79618e-07 	6.28134e-15
0.00381381 	32.065 	-2.79618e-07 	6.28134e-15
0.00406807 	32.0792 	-2.79618e-07 	6.28134e-15
0.00432232 	32.0934 	-2.79618e-07 	6.28134e-15
0.00457658 	32.1076 	-2.79618e-07 	6.28134e-15
0.00483083 	32.1219 	-2.79618e-07 	6.28134e-15
0.00508509 	32.1361 	-2.79618e-07 	6.28134e-15
0.00533934 	32.1528 	-3.02993e-07 	6.34097e-15
0.00559359 	32.1701 	-3.02993e-07 	6.34096e-15
0.00584785 	32.1874 	-3.02993e-07 	6.34096e-15
0.0061021 	32.2047 	-3.02993e-07 	6.34096e-15
0.00635636 	32.222 	-3.02993e-07 	6.34096e-15
0.00661061 	32.2393 	-3.02993e-07 	6.34096e-15
0.00686486 	32.2566 	-3.02993e-07 	6.34096e-15
0.00711912 	32.2739 	-3.02993e-07 	6.34096e-15
0.00737337 	32.2912 	-3.02993e-07 	6.34096e-15
0.00762763 	32.3085 	-3.02993e-07 	6.34096e-15
0.00788188 	32.3266 	-3.43391e-07 	6.35775e-15
0.00813614 	32.3449 	-3.43391e-07 	6.35775e-15
0.00839039 	32.3633 	-3.43391e-07 	6.35775e-15
0.00864464 	32.3816 	-3.43391e-07 	6.35775e-15
0.0088989 	32.3999 	-3.43391e-07 	6.35775e-15
0.00915315 	32.4182 	-3.43391e-07 	6.35775e-15
0.00940741 	32.4366 	-3.43391e-07 	6.35775e-15
0.00966166 	32.4549 	-3.43391e-07 	6.35775e-15
0.00991592 	32.4732 	-3.43391e-07 	6.35774e-15
0.0101702 	32.4916 	-3.43391e-07 	6.35774e-15
0.0104244 	32.5111 	-3.96948e-07 	6.41731e-15
0.0106787 	32.5313 	-3.96948e-07 	6.41731e-15
0.0109329 	32.5514 	-3.96948e-07 	6.4173e-15
0.0111872 	32.5716 	-3.96948e-07 	6.4173e-15
0.0114414 	32.5918 	-3.96948e-07 	6.4173e-15
0.0116957 	32.6119 	-3.96948e-07 	6.4173e-15
0.0119499 	32.6321 	-3.96948e-07 	6.4173e-15
0.0122042 	32.6523 	-3.96948e-07 	6.4173e-15
0.0124585 	32.6724 	-3.96948e-07 	6.4173e-15
0.0127127 	32.6926 	-3.96948e-07 	6.4173e-15
0.012967 	32.7144 	-4.60192e-07 	6.49268e-15
0.0132212 	32.7375 	-4.60192e-07 	6.49267e-15
0.0134755 	32.7606 	-4.60192e-07 	6.49267e-15
0.0137297 	32.7837 	-4.60192e-07 	6.49267e-15
0.013984 	32.8068 	-4.60192e-07 	6.49267e-15
0.0142382 	32.8299 	-4.60192e-07 	6.49267e-15
0.0144925 	32.853 	-4.60192e-07 	6.49267e-15
0.0147467 	32.8761 	-4.60192e-07 	6.49266e-15
0.015001 	32.8991 	-4.60192e-07 	6.49266e-15
0.0152553 	32.9222 	-4.60192e-07 	6.49266e-15
0.0155095 	32.947 	-5.30494e-07 	6.54099e-15
0.0157638 	32.9737 	-5.30494e-07 	6.54099e-15
0.016018 	33.0004 	-5.30494e-07 	6.54099e-15
0.0162723 	33.0271 	-5.30494e-07 	6.54099e-15
0.0165265 	33.0538 	-5.30494e-07 	6.54099e-15
0.0167808 	33.0805 	-5.30494e-07 	6.54098e-15
0.017035 	33.1073 	-5.30494e-07 	6.54098e-15
0.0172893 	33.134 	-5.30494e-07 	6.54098e-15
0.0175435 	33.1607 	-5.30494e-07 	6.54098e-15
0.0177978 	33.1874 	-5.30494e-07 	6.54098e-15
0.0180521 	33.2156 	-6.06017e-07 	6.59959e-15
0.0183063 	33.2463 	-6.06017e-07 	6.59959e-15
0.0185606 	33.277 	-6.06017e-07 	6.59958e-15
0.0188148 	33.3077 	-6.06017e-07 	6.59958e-15
0.0190691 	33.3384 	-6.06017e-07 	6.59958e-15
0.0193233 	33.3691 	-6.06017e-07 	6.59958e-15
0.0195776 	33.3998 	-6.06017e-07 	6.59958e-15
0.0198318 	33.4305 	-6.06017e-07 	6.59957e-15
0.0200861 	33.4612 	-6.06017e-07 	6.59957e-15
0.0203403 	33.4919 	-6.06017e-07 	6.59957e-15
0.0205946 	33.5238 	-6.85604e-07 	6.66742e-15
0.0208488 	33.5587 	-6.85604e-07 	6.66742e-15
0.0211031 	33.5936 	-6.85604e-07 	6.66742e-15
0.0213574 	33.6286 	-6.85604e-07 	6.66742e-15
0.0216116 	33.6635 	-6.85604e-07 	6.66741e-15
0.0218659 	33.6984 	-6.85604e-07 	6.66741e-15
0.0221201 	33.7334 	-6.85604e-07 	6.66741e-15
0.0223744 	33.7683 	-6.85604e-07 	6.66741e-15
0.0226286 	33.8032 	-6.85604e-07 	6.66741e-15
0.0228829 	33.8382 	-6.85604e-07 	6.6674e-15
0.0231371 	33.8739 	-7.68589e-07 	6.7439e-15
0.0233914 	33.9132 	-7.68589e-07 	6.7439e-15
0.0236456 	33.9526 	-7.68589e-07 	6.7439e-15
0.0238999 	33.9919 	-7.68589e-07 	6.74389e-15
0.0241542 	34.0313 	-7.68589e-07 	6.74389e-15
0.0244084 	34.0706 	-7.68589e-07 	6.74389e-15
0.0246627 	34.11 	-7.68589e-07 	6.74389e-15
0.0249169 	34.1493 	-7.68589e-07 	6.74388e-15
0.0251712 	34.1887 	-7.68589e-07 	6.74388e-15
0.0254254 	34.228 	-7.68589e-07 	6.74388e-15
0.0256797 	34.2678 	-8.54424e-07 	6.82954e-15
0.0259339 	34.3118 	-8.54424e-07 	6.82954e-15
0.0261882 	34.3557 	-8.54424e-07 	6.82954e-15
0.0264424 	34.3996 	-8.54424e-07 	6.82953e-15
0.0266967 	34.4436 	-8.54424e-07 	6.82953e-15
0.026951 	34.4875 	-8.54424e-07 	6.82953e-15
0.0272052 	34.5315 	-8.54424e-07 	6.82953e-15
0.0274595 	34.5754 	-8.54424e-07 	6.82952e-15
0.0277137 	34.6194 	-8.54424e-07 	6.82952e-15
0.027968 	34.6633 	-8.54424e-07 	6.82952e-15
0.0282222 	34.7073 	-9.92699e-07 	2.0727e-18
0.0284765 	34.756 	-9.41763e-07 	6.92511e-15
0.0287307 	34.8047 	-9.41763e-07 	6.92511e-15
0.028985 	34.8534 	-9.41763e-07 	6.92511e-15
0.0292392 	34.9022 	-9.41763e-07 	6.9251e-15
0.0294935 	34.9509 	-9.41763e-07 	6.9251e-15
0.0297477 	34.9996 	-9.41763e-07 	6.9251e-15
0.030002 	35.0483 	-9.41763e-07 	6.92509e-15
0.0302563 	35.097 	-9.41763e-07 	6.92509e-15
0.0305105 	35.1458 	-9.41763e-07 	6.92509e-15
0.0307648 	35.1945 	-9.41763e-07 	6.92508e-15
0.031019 	35.2477 	-1.02853e-06 	7.07365e-15
0.0312733 	35.3014 	-1.02853e-06 	7.07365e-15
0.0315275 	35.3551 	-1.02853e-06 	7.07365e-15
0.0317818 	35.4087 	-1.02853e-06 	7.07364e-15
0.032036 	35.4624 	-1.02853e-06 	7.07364e-15
0.0322903 	35.5161 	-1.02853e-06 	7.07364e-15
0.0325445 	35.5698 	-1.02853e-06 	7.07363e-15
0.0327988 	35.6235 	-1.02853e-06 	7.07363e-15
0.0330531 	35.6771 	-1.02853e-06 	7.07363e-15
0.0333073 	35.7308 	-1.02853e-06 	7.07362e-15
0.0335616 	35.7887 	-1.11685e-06 	7.14048e-15
0.0338158 	35.8475 	-1.11685e-06 	7.14047e-15
0.0340701 	35.9063 	-1.11685e-06 	7.14047e-15
0.0343243 	35.9652 	-1.11685e-06 	7.14046e-15
0.0345786 	36.024 	-1.11685e-06 	7.14046e-15
0.0348328 	36.0828 	-1.11685e-06 	7.14046e-15
0.0350871 	36.1416 	-1.11685e-06 	7.14045e-15
0.0353413 	36.2005 	-1.11685e-06 	7.14045e-15
0.0355956 	36.2593 	-1.11685e-06 	7.14044e-15
0.0358498 	36.3181 	-1.11685e-06 	7.14044e-15
0.0361041 	36.3808 	-1.20775e-06 	7.30457e-15
0.0363584 	36.445 	-1.20775e-06 	7.30456e-15
0.0366126 	36.5091 	-1.20775e-06 	7.30456e-15
0.0368669 	36.5733 	-1.20775e-06 	7.30455e-15
0.0371211 	36.6375 	-1.20775e-06 	7.30455e-15
0.0373754 	36.7016 	-1.20775e-06 	7.30455e-15
0.0376296 	36.7658 	-1.20775e-06 	7.30454e-15
0.0378839 	36.83 	-1.20775e-06 	7.30454e-15
0.0381381 	36.8941 	-1.20775e-06 	7.30453e-15
0.0383924 	36.9583 	-1.20775e-06 	7.30453e-15
0.0386466 	37.026 	-1.30306e-06 	7.50085e-15
0.0389009 	37.0957 	-1.30306e-06 	7.50084e-15
0.0391552 	37.1654 	-1.30306e-06 	7.50084e-15
0.0394094 	37.2351 	-1.30306e-06 	7.50083e-15
0.0396637 	37.3048 	-1.30306e-06 	7.50083e-15
0.0399179 	37.3745 	-1.30306e-06 	7.50083e-15
0.0401722 	37.4443 	-1.30306e-06 	7.50082e-15
0.0404264 	37.514 	-1.30306e-06 	7.50082e-15
0.0406807 	37.5837 	-1.30306e-06 	7.50081e-15
0.0409349 	37.6534 	-1.30306e-06 	7.50081e-15
0.0411892 	37.7262 	-1.4021e-06 	7.6998e-15
0.0414434 	37.8017 	-1.4021e-06 	7.69979e-15
0.0416977 	37.8772 	-1.4021e-06 	7.69979e-15
0.041952 	37.9527 	-1.4021e-06 	7.69978e-15
0.0422062 	38.0281 	-1.4021e-06 	7.69978e-15
0.0424605 	38.1036 	-1.4021e-06 	7.69977e-15
0.0427147 	38.1791 	-1.4021e-06 	7.69977e-15
0.042969 	38.2546 	-1.4021e-06 	7.69976e-15
0.0432232 	38.33 	-1.4021e-06 	7.69976e-15
0.0434775 	38.4055 	-1.4021e-06 	7.69975e-15
0.0437317 	38.4837 	-1.50458e-06 	7.86795e-15
0.043986 	38.5652 	-1.50458e-06 	7.86795e-15
0.0442402 	38.6466 	-1.50458e-06 	7.86794e-15
0.0444945 	38.7281 	-1.50458e-06 	7.86794e-15
0.0447487 	38.8096 	-1.50458e-06 	7.86793e-15
0.045003 	38.891 	-1.50458e-06 	7.86793e-15
0.0452573 	38.9725 	-1.50458e-06 	7.86792e-15
0.0455115 	39.0539 	-1.50458e-06 	7.86792e-15
0.0457658 	39.1354 	-1.50458e-06 	7.86791e-15
0.04602 	39.2169 	-1.50458e-06 	7.86791e-15
0.0462743 	39.3006 	-1.61041e-06 	7.99896e-15
0.0465285 	39.3883 	-1.61041e-06 	7.99895e-15
0.0467828 	39.476 	-1.61041e-06 	7.99895e-15
0.047037 	39.5637 	-1.61041e-06 	7.99894e-15
0.0472913 	39.6514 	-1.61041e-06 	7.99894e-15
0.0475455 	39.7391 	-1.61041e-06 	7.99893e-15
0.0477998 	39.8267 	-1.61041e-06 	7.99892e-15
0.0480541 	39.9144 	-1.61041e-06 	7.99892e-15
0.0483083 	40.0021 	-1.61041e-06 	7.99891e-15
0.0485626 	40.0898 	-1.61041e-06 	7.99891e-15
0.0488168 	40.1793 	-1.71944e-06 	8.16471e-15
0.0490711 	40.2734 	-1.71944e-06 	8.1647e-15
0.0493253 	40.3676 	-1.71944e-06 	8.16469e-15
0.0495796 	40.4618 	-1.71944e-06 	8.16469e-15
0.0498338 	40.5559 	-1.71944e-06 	8.16468e-15
0.0500881 	40.6501 	-1.71944e-06 	8.16468e-15
0.0503423 	40.7443 	-1.71944e-06 	8.16467e-15
0.0505966 	40.8384 	-1.71944e-06 	8.16466e-15
0.0508509 	40.9326 	-1.71944e-06 	8.16466e-15
0.0511051 	41.0268 	-1.71944e-06 	8.16465e-15
0.0513594 	41.1221 	-1.83137e-06 	8.3642e-15
0.0516136 	41.223 	-1.83137e-06 	8.36419e-15
0.0518679 	41.3239 	-1.83137e-06 	8.36418e-15
0.0521221 	41.4248 	-1.83137e-06 	8.36418e-15
0.0523764 	41.5257 	-1.83137e-06 	8.36417e-15
0.0526306 	41.6266 	-1.83137e-06 	8.36416e-15
0.0528849 	41.7275 	-1.83137e-06 	8.36416e-15
0.0531391 	41.8284 	-1.83137e-06 	8.36415e-15
0.0533934 	41.9293 	-1.83137e-06 	8.36414e-15
0.0536476 	42.0302 	-1.83137e-06 	8.36414e-15
0.0539019 	42.1317 	-1.94572e-06 	8.53101e-15
0.0541562 	42.2396 	-1.94572e-06 	8.531e-15
0.0544104 	42.3474 	-1.94572e-06 	8.53099e-15
0.0546647 	42.4553 	-1.94572e-06 	8.53098e-15
0.0549189 	42.5632 	-1.94572e-06 	8.53098e-15
0.0551732 	42.6711 	-1.94572e-06 	8.53097e-15
0.0554274 	42.7789 	-1.94572e-06 	8.53096e-15
0.0556817 	42.8868 	-1.94572e-06 	8.53096e-15
0.0559359 	42.9947 	-1.94572e-06 	8.53095e-15
0.0561902 	43.1025 	-1.94572e-06 	8.53094e-15
0.0564444 	43.2104 	-2.31596e-06 	1.28262e-18
0.0566987 	43.3255 	-2.06178e-06 	8.76304e-15
0.056953 	43.4406 	-2.06178e-06 	8.76303e-15
0.0572072 	43.5557 	-2.06178e-06 	8.76302e-15
0.0574615 	43.6709 	-2.06178e-06 	8.76302e-15
0.0577157 	43.786 	-2.06178e-06 	8.76301e-15
0.05797 	43.9011 	-2.06178e-06 	8.763e-15
0.0582242 	44.0162 	-2.06178e-06 	8.76299e-15
0.0584785 	44.1313 	-2.06178e-06 	8.76299e-15
0.0587327 	44.2464 	-2.06178e-06 	8.76298e-15
0.058987 	44.3615 	-2.06178e-06 	8.76297e-15
0.0592412 	44.4834 	-2.17855e-06 	9.00691e-15
0.0594955 	44.606 	-2.17855e-06 	9.0069e-15
0.0597497 	44.7286 	-2.17855e-06 	9.0069e-15
0.060004 	44.8512 	-2.17855e-06 	9.00689e-15
0.0602583 	44.9739 	-2.17855e-06 	9.00688e-15
0.0605125 	45.0965 	-2.17855e-06 	9.00687e-15
0.0607668 	45.2191 	-2.17855e-06 	9.00686e-15
0.061021 	45.3417 	-2.17855e-06 	9.00686e-15
0.0612753 	45.4643 	-2.17855e-06 	9.00685e-15
0.0615295 	45.5869 	-2.17855e-06 	9.00684e-15
0.0617838 	45.7158 	-2.29609e-06 	9.32259e-15
0.062038 	45.8461 	-2.29609e-06 	9.32258e-15
0.0622923 	45.9765 	-2.29609e-06 	9.32257e-15
0.0625465 	46.1068 	-2.29609e-06 	9.32256e-15
0.0628008 	46.2371 	-2.29609e-06 	9.32255e-15
0.0630551 	46.3675 	-2.29609e-06 	9.32255e-15
0.0633093 	46.4978 	-2.29609e-06 	9.32254e-15
0.0635636 	46.6282 	-2.29609e-06 	9.32253e-15
0.0638178 	46.7585 	-2.29609e-06 	9.32252e-15
0.0640721 	46.8888 	-2.29609e-06 	9.32251e-15
0.0643263 	47.025 	-2.41408e-06 	9.55426e-15
0.0645806 	47.1633 	-2.41408e-06 	9.55425e-15
0.0648348 	47.3016 	-2.41408e-06 	9.55424e-15
0.0650891 	47.4399 	-2.41408e-06 	9.55423e-15
0.0653433 	47.5782 	-2.41408e-06 	9.55422e-15
0.0655976 	47.7165 	-2.41408e-06 	9.55421e-15
0.0658519 	47.8548 	-2.41408e-06 	9.5542e-15
0.0661061 	47.9931 	-2.41408e-06 	9.5542e-15
0.0663604 	48.1314 	-2.41408e-06 	9.55419e-15
0.0666146 	48.2697 	-2.41408e-06 	9.55418e-15
0.0668689 	48.4132 	-2.5318e-06 	9.83353e-15
0.0671231 	48.5597 	-2.5318e-06 	9.83352e-15
0.0673774 	48.7062 	-2.5318e-06 	9.83351e-15
0.0676316 	48.8527 	-2.5318e-06 	9.8335e-15
0.0678859 	48.9992 	-2.5318e-06 	9.83349e-15
0.0681401 	49.1457 	-2.5318e-06 	9.83348e-15
0.0683944 	49.2922 	-2.5318e-06 	9.83347e-15
0.0686486 	49.4387 	-2.5318e-06 	9.83346e-15
0.0689029 	49.5852 	-2.5318e-06 	9.83345e-15
0.0691572 	49.7317 	-2.5318e-06 	9.83344e-15
0.0694114 	49.8828 	-2.64771e-06 	1.01362e-14
0.0696657 	50.0377 	-2.64771e-06 	1.01362e-14
0.0699199 	50.1927 	-2.64771e-06 	1.01362e-14
0.0701742 	50.3476 	-2.64771e-06 	1.01362e-14
0.0704284 	50.5025 	-2.64771e-06 	1.01362e-14
0.0706827 	50.6574 	-2.64771e-06 	1.01362e-14
0.0709369 	50.8123 	-2.64771e-06 	1.01362e-14
0.0711912 	50.9672 	-2.64771e-06 	1.01362e-14
0.0714454 	51.1222 	-2.64771e-06 	1.01362e-14
0.0716997 	51.2771 	-2.64771e-06 	1.01362e-14
0.071954 	51.4359 	-2.75294e-06 	1.04563e-14
0.0722082 	51.5994 	-2.75294e-06 	1.04563e-14
0.0724625 	51.7629 	-2.75294e-06 	1.04563e-14
0.0727167 	51.9265 	-2.75294e-06 	1.04563e-14
0.072971 	52.09 	-2.75294e-06 	1.04563e-14
0.0732252 	52.2535 	-2.75294e-06 	1.04563e-14
0.0734795 	52.417 	-2.75294e-06 	1.04563e-14
0.0737337 	52.5805 	-2.75294e-06 	1.04563e-14
0.073988 	52.7441 	-2.75294e-06 	1.04563e-14
0.0742422 	52.9076 	-2.75294e-06 	1.04562e-14
0.0744965 	53.0743 	-2.8362e-06 	1.07888e-14
0.0747508 	53.2465 	-2.8362e-06 	1.07888e-14
0.075005 	53.4187 	-2.8362e-06 	1.07888e-14
0.0752593 	53.5909 	-2.8362e-06 	1.07888e-14
0.0755135 	53.7632 	-2.8362e-06 	1.07888e-14
0.0757678 	53.9354 	-2.8362e-06 	1.07888e-14
0.076022 	54.1076 	-2.8362e-06 	1.07888e-14
0.0762763 	54.2798 	-2.8362e-06 	1.07888e-14
0.0765305 	54.4521 	-2.8362e-06 	1.07888e-14
0.0767848 	54.6243 	-2.8362e-06 	1.07887e-14
0.077039 	54.7989 	-2.89821e-06 	1.10779e-14
0.0772933 	54.9798 	-2.89821e-06 	1.10779e-14
0.0775475 	55.1608 	-2.89821e-06 	1.10779e-14
0.0778018 	55.3417 	-2.89821e-06 	1.10778e-14
0.0780561 	55.5227 	-2.89821e-06 	1.10778e-14
0.0783103 	55.7036 	-2.89821e-06 	1.10778e-14
0.0785646 	55.8846 	-2.89821e-06 	1.10778e-14
0.0788188 	56.0655 	-2.89821e-06 	1.10778e-14
0.0790731 	56.2465 	-2.89821e-06 	1.10778e-14
0.0793273 	56.4274 	-2.89821e-06 	1.10778e-14
0.0795816 	56.6099 	-2.91652e-06 	1.14274e-14
0.0798358 	56.7995 	-2.91652e-06 	1.14274e-14
0.0800901 	56.9891 	-2.91652e-06 	1.14274e-14
0.0803443 	57.1786 	-2.91652e-06 	1.14274e-14
0.0805986 	57.3682 	-2.91652e-06 	1.14274e-14
0.0808529 	57.5578 	-2.91652e-06 	1.14273e-14
0.0811071 	57.7473 	-2.91652e-06 	1.14273e-14
0.0813614 	57.9369 	-2.91652e-06 	1.14273e-14
0.0816156 	58.1265 	-2.91652e-06 	1.14273e-14
0.0818699 	58.316 	-2.91652e-06 	1.14273e-14
0.0821241 	58.5063 	-2.93493e-06 	1.17805e-14
0.0823784 	58.7043 	-2.93493e-06 	1.17805e-14
0.0826326 	58.9022 	-2.93493e-06 	1.17805e-14
0.0828869 	59.1001 	-2.93493e-06 	1.17805e-14
0.0831411 	59.298 	-2.93493e-06 	1.17805e-14
0.0833954 	59.496 	-2.93493e-06 	1.17805e-14
0.0836496 	59.6939 	-2.93493e-06 	1.17804e-14
0.0839039 	59.8918 	-2.93493e-06 	1.17804e-14
0.0841582 	60.0897 	-2.93493e-06 	1.17804e-14
0.0844124 	60.2877 	-2.93493e-06 	1.17804e-14
0.0846667 	60.4856 	-3.8588e-06 	3.47887e-17
0.0849209 	60.6915 	-2.95674e-06 	1.21386e-14
0.0851752 	60.8975 	-2.95674e-06 	1.21385e-14
0.0854294 	61.1034 	-2.95674e-06 	1.21385e-14
0.0856837 	61.3094 	-2.95674e-06 	1.21385e-14
0.0859379 	61.5153 	-2.95674e-06 	1.21385e-14
0.0861922 	61.7213 	-2.95674e-06 	1.21385e-14
0.0864464 	61.9273 	-2.95674e-06 	1.21385e-14
0.0867007 	62.1332 	-2.95674e-06 	1.21385e-14
0.086955 	62.3392 	-2.95674e-06 	1.21385e-14
0.0872092 	62.5451 	-2.95674e-06 	1.21384e-14
0.0874635 	62.758 	-2.96126e-06 	1.25002e-14
0.0877177 	62.9716 	-2.96126e-06 	1.25002e-14
0.087972 	63.1853 	-2.96126e-06 	1.25002e-14
0.0882262 	63.3989 	-2.96126e-06 	1.25002e-14
0.0884805 	63.6125 	-2.96126e-06 	1.25002e-14
0.0887347 	63.8261 	-2.96126e-06 	1.25002e-14
0.088989 	64.0397 	-2.96126e-06 	1.25002e-14
0.0892432 	64.2533 	-2.96126e-06 	1.25001e-14
0.0894975 	64.4669 	-2.96126e-06 	1.25001e-14
0.0897518 	64.6806 	-2.96126e-06 	1.25001e-14
0.090006 	64.9 	-2.94779e-06 	1.28642e-14
0.0902603 	65.1208 	-2.94779e-06 	1.28642e-14
0.0905145 	65.3415 	-2.94779e-06 	1.28642e-14
0.0907688 	65.5622 	-2.94779e-06 	1.28642e-14
0.091023 	65.783 	-2.94779e-06 	1.28642e-14
0.0912773 	66.0037 	-2.94779e-06 	1.28641e-14
0.0915315 	66.2245 	-2.94779e-06 	1.28641e-14
0.0917858 	66.4452 	-2.94779e-06 	1.28641e-14
0.09204 	66.666 	-2.94779e-06 	1.28641e-14
0.0922943 	66.8867 	-2.94779e-06 	1.28641e-14
0.0925485 	67.1121 	-2.92669e-06 	1.32277e-14
0.0928028 	67.3391 	-2.92669e-06 	1.32277e-14
0.0930571 	67.5662 	-2.92669e-06 	1.32277e-14
0.0933113 	67.7933 	-2.92669e-06 	1.32277e-14
0.0935656 	68.0203 	-2.92669e-06 	1.32277e-14
0.0938198 	68.2474 	-2.92669e-06 	1.32276e-14
0.0940741 	68.4745 	-2.92669e-06 	1.32276e-14
0.0943283 	68.7015 	-2.92669e-06 	1.32276e-14
0.0945826 	68.9286 	-2.92669e-06 	1.32276e-14
0.0948368 	69.1557 	-2.92669e-06 	1.32276e-14
0.0950911 	69.386 	-2.89764e-06 	1.35368e-14
0.0953453 	69.6183 	-2.89764e-06 	1.35368e-14
0.0955996 	69.8506 	-2.89764e-06 	1.35368e-14
0.0958539 	70.0829 	-2.89764e-06 	1.35368e-14
0.0961081 	70.3152 	-2.89764e-06 	1.35368e-14
0.0963624 	70.5475 	-2.89764e-06 	1.35368e-14
0.0966166 	70.7797 	-2.89764e-06 	1.35367e-14
0.0968709 	71.012 	-2.89764e-06 	1.35367e-14
0.0971251 	71.2443 	-2.89764e-06 	1.35367e-14
0.0973794 	71.4766 	-2.89764e-06 	1.35367e-14
0.0976336 	71.711 	-2.8288e-06 	1.39327e-14
0.0978879 	71.947 	-2.8288e-06 	1.39327e-14
0.0981421 	72.1831 	-2.8288e-06 	1.39326e-14
0.0983964 	72.4192 	-2.8288e-06 	1.39326e-14
0.0986507 	72.6552 	-2.8288e-06 	1.39326e-14
0.0989049 	72.8913 	-2.8288e-06 	1.39326e-14
0.0991592 	73.1274 	-2.8288e-06 	1.39326e-14
0.0994134 	73.3635 	-2.8288e-06 	1.39326e-14
0.0996677 	73.5995 	-2.8288e-06 	1.39326e-14
0.0999219 	73.8356 	-2.8288e-06 	1.39325e-14
0.100176 	74.0726 	-2.71301e-06 	1.43247e-14
0.10043 	74.3107 	-2.71301e-06 	1.43247e-14
0.100685 	74.5488 	-2.71301e-06 	1.43247e-14
0.100939 	74.7869 	-2.71301e-06 	1.43246e-14
0.101193 	75.025 	-2.71301e-06 	1.43246e-14
0.101447 	75.263 	-2.71301e-06 	1.43246e-14
0.101702 	75.5011 	-2.71301e-06 	1.43246e-14
0.101956 	75.7392 	-2.71301e-06 	1.43246e-14
0.10221 	75.9773 	-2.71301e-06 	1.43246e-14
0.102464 	76.2154 	-2.71301e-06 	1.43246e-14
0.102719 	76.4534 	-2.53513e-06 	1.4642e-14
0.102973 	76.6914 	-2.53513e-06 	1.4642e-14
0.103227 	76.9293 	-2.53513e-06 	1.46419e-14
0.103481 	77.1672 	-2.53513e-06 	1.46419e-14
0.103736 	77.4052 	-2.53513e-06 	1.46419e-14
0.10399 	77.6431 	-2.53513e-06 	1.46419e-14
0.104244 	77.881 	-2.53513e-06 	1.46419e-14
0.104498 	78.119 	-2.53513e-06 	1.46419e-14
0.104753 	78.3569 	-2.53513e-06 	1.46419e-14
0.105007 	78.5948 	-2.53513e-06 	1.46418e-14
0.105261 	78.8321 	-2.358e-06 	1.49982e-14
0.105516 	79.0674 	-2.358e-06 	1.49982e-14
0.10577 	79.3028 	-2.358e-06 	1.49981e-14
0.106024 	79.5381 	-2.358e-06 	1.49981e-14
0.106278 	79.7734 	-2.358e-06 	1.49981e-14
0.106533 	80.0088 	-2.358e-06 	1.49981e-14
0.106787 	80.2441 	-2.358e-06 	1.49981e-14
0.107041 	80.4795 	-2.358e-06 	1.49981e-14
0.107295 	80.7148 	-2.358e-06 	1.49981e-14
0.10755 	80.9502 	-2.358e-06 	1.4998e-14
0.107804 	81.1846 	-2.0738e-06 	1.53379e-14
0.108058 	81.4148 	-2.0738e-06 	1.53379e-14
0.108312 	81.645 	-2.0738e-06 	1.53379e-14
0.108567 	81.8752 	-2.0738e-06 	1.53379e-14
0.108821 	82.1054 	-2.0738e-06 	1.53379e-14
0.109075 	82.3356 	-2.0738e-06 	1.53378e-14
0.109329 	82.5658 	-2.0738e-06 	1.53378e-14
0.109584 	82.796 	-2.0738e-06 	1.53378e-14
0.109838 	83.0262 	-2.0738e-06 	1.53378e-14
0.110092 	83.2564 	-2.0738e-06 	1.53378e-14
0.110346 	83.4858 	-1.77062e-06 	1.55678e-14
0.110601 	83.7081 	-1.77062e-06 	1.55678e-14
0.110855 	83.9303 	-1.77062e-06 	1.55678e-14
0.111109 	84.1525 	-1.77062e-06 	1.55677e-14
0.111363 	84.3747 	-1.77062e-06 	1.55677e-14
0.111618 	84.597 	-1.77062e-06 	1.55677e-14
0.111872 	84.8192 	-1.77062e-06 	1.55677e-14
0.112126 	85.0414 	-1.77062e-06 	1.55677e-14
0.11238 	85.2636 	-1.77062e-06 	1.55677e-14
0.112635 	85.4859 	-1.77062e-06 	1.55677e-14
0.112889 	85.7081 	-2.87885e-06 	6.3258e-17
0.113143 	85.9192 	-1.43935e-06 	1.57662e-14
0.113397 	86.1303 	-1.43935e-06 	1.57662e-14
0.113652 	86.3415 	-1.43935e-06 	1.57662e-14
0.113906 	86.5526 	-1.43935e-06 	1.57662e-14
0.11416 	86.7637 	-1.43935e-06 	1.57662e-14
0.114414 	86.9748 	-1.43935e-06 	1.57662e-14
0.114669 	87.186 	-1.43935e-06 	1.57661e-14
0.114923 	87.3971 	-1.43935e-06 	1.57661e-14
0.115177 	87.6082 	-1.43935e-06 	1.57661e-14
0.115431 	87.8193 	-1.43935e-06 	1.57661e-14
0.115686 	88.0174 	-1.01824e-06 	1.59195e-14
0.11594 	88.2141 	-1.01824e-06 	1.59195e-14
0.116194 	88.4109 	-1.01824e-06 	1.59195e-14
0.116448 	88.6076 	-1.01824e-06 	1.59195e-14
0.116703 	88.8044 	-1.01824e-06 	1.59195e-14
0.116957 	89.0011 	-1.01824e-06 	1.59194e-14
0.117211 	89.1979 	-1.01824e-06 	1.59194e-14
0.117465 	89.3946 	-1.01824e-06 	1.59194e-14
0.11772 	89.5913 	-1.01824e-06 	1.59194e-14
0.117974 	89.7881 	-1.01824e-06 	1.59194e-14
0.118228 	89.9702 	-6.04643e-07 	1.60259e-14
0.118482 	90.1491 	-6.04643e-07 	1.60259e-14
0.118737 	90.328 	-6.04643e-07 	1.60259e-14
0.118991 	90.5069 	-6.04643e-07 	1.60259e-14
0.119245 	90.6858 	-6.04643e-07 	1.60259e-14
0.119499 	90.8647 	-6.04643e-07 	1.60259e-14
0.119754 	91.0436 	-6.04643e-07 	1.60259e-14
0.120008 	91.2225 	-6.04643e-07 	1.60259e-14
0.120262 	91.4014 	-6.04643e-07 	1.60258e-14
0.120517 	91.5803 	-6.04643e-07 	1.60258e-14
0.120771 	91.7437 	-1.92072e-07 	1.6084e-14
0.121025 	91.9013 	-1.92072e-07 	1.6084e-14
0.121279 	92.059 	-1.92072e-07 	1.6084e-14
0.121534 	92.2166 	-1.92072e-07 	1.6084e-14
0.121788 	92.3743 	-1.92072e-07 	1.60839e-14
0.122042 	92.5319 	-1.92072e-07 	1.60839e-14
0.122296 	92.6896 	-1.92072e-07 	1.60839e-14
0.122551 	92.8472 	-1.92072e-07 	1.60839e-14
0.122805 	93.0049 	-1.92072e-07 	1.60839e-14
0.123059 	93.1625 	-1.92072e-07 	1.60839e-14
0.123313 	93.3048 	2.21843e-07 	1.60928e-14
0.123568 	93.4382 	2.21843e-07 	1.60928e-14
0.123822 	93.5716 	2.21843e-07 	1.60928e-14
0.124076 	93.705 	2.21843e-07 	1.60928e-14
0.12433 	93.8384 	2.21843e-07 	1.60928e-14
0.124585 	93.9719 	2.21843e-07 	1.60928e-14
0.124839 	94.1053 	2.21843e-07 	1.60928e-14
0.125093 	94.2387 	2.21843e-07 	1.60928e-14
0.125347 	94.3721 	2.21843e-07 	1.60928e-14
0.125602 	94.5055 	2.21843e-07 	1.60928e-14
0.125856 	94.6245 	5.97168e-07 	1.60572e-14
0.12611 	94.7314 	5.97168e-07 	1.60572e-14
0.126364 	94.8383 	5.97168e-07 	1.60572e-14
0.126619 	94.9452 	5.97168e-07 	1.60572e-14
0.126873 	95.0521 	5.97168e-07 	1.60572e-14
0.127127 	95.159 	5.97168e-07 	1.60572e-14
0.127381 	95.2659 	5.97168e-07 	1.60572e-14
0.127636 	95.3728 	5.97168e-07 	1.60572e-14
0.12789 	95.4797 	5.97168e-07 	1.60572e-14
0.128144 	95.5866 	5.97168e-07 	1.60572e-14
0.128398 	95.6809 	9.26089e-07 	1.59896e-14
0.128653 	95.76 	9.26089e-07 	1.59896e-14
0.128907 	95.8392 	9.26089e-07 	1.59896e-14
0.129161 	95.9183 	9.26089e-07 	1.59896e-14
0.129415 	95.9974 	9.26089e-07 	1.59896e-14
0.12967 	96.0765 	9.26089e-07 	1.59896e-14
0.129924 	96.1556 	9.26089e-07 	1.59896e-14
0.130178 	96.2348 	9.26089e-07 	1.59896e-14
0.130432 	96.3139 	9.26089e-07 	1.59896e-14
0.130687 	96.393 	9.26089e-07 	1.59896e-14
0.130941 	96.462 	1.20552e-06 	1.58999e-14
0.131195 	96.5132 	1.20552e-06 	1.58999e-14
0.131449 	96.5645 	1.20552e-06 	1.58999e-14
0.131704 	96.6157 	1.20552e-06 	1.58999e-14
0.131958 	96.667 	1.20552e-06 	1.58999e-14
0.132212 	96.7182 	1.20552e-06 	1.58999e-14
0.132466 	96.7695 	1.20552e-06 	1.58999e-14
0.132721 	96.8207 	1.20552e-06 	1.58999e-14
0.132975 	96.872 	1.20552e-06 	1.58999e-14
0.133229 	96.9232 	1.20552e-06 	1.58999e-14
0.133483 	96.9671 	1.42656e-06 	1.57925e-14
0.133738 	96.9914 	1.42656e-06 	1.57924e-14
0.133992 	97.0158 	1.42656e-06 	1.57924e-14
0.134246 	97.0401 	1.42656e-06 	1.57924e-14
0.134501 	97.0644 	1.42656e-06 	1.57924e-14
0.134755 	97.0887 	1.42656e-06 	1.57924e-14
0.135009 	97.113 	1.42656e-06 	1.57924e-14
0.135263 	97.1374 	1.42656e-06 	1.57924e-14
0.135518 	97.1617 	1.42656e-06 	1.57924e-14
0.135772 	97.186 	1.42656e-06 	1.57924e-14
0.136026 	97.2057 	1.62522e-06 	1.57113e-14
0.13628 	97.2048 	1.62522e-06 	1.57113e-14
0.136535 	97.2039 	1.62522e-06 	1.57113e-14
0.136789 	97.203 	1.62522e-06 	1.57113e-14
0.137043 	97.202 	1.62522e-06 	1.57113e-14
0.137297 	97.2011 	1.62522e-06 	1.57113e-14
0.137552 	97.2002 	1.62522e-06 	1.57113e-14
0.137806 	97.1993 	1.62522e-06 	1.57113e-14
0.13806 	97.1983 	1.62522e-06 	1.57113e-14
0.138314 	97.1974 	1.62522e-06 	1.57113e-14
0.138569 	97.1944 	1.78169e-06 	1.55309e-14
0.138823 	97.1702 	1.78169e-06 	1.55309e-14
0.139077 	97.1461 	1.78169e-06 	1.55309e-14
0.139331 	97.122 	1.78169e-06 	1.55309e-14
0.139586 	97.0978 	1.78169e-06 	1.55309e-14
0.13984 	97.0737 	1.78169e-06 	1.55309e-14
0.140094 	97.0495 	1.78169e-06 	1.55309e-14
0.140348 	97.0254 	1.78169e-06 	1.55309e-14
0.140603 	97.0013 	1.78169e-06 	1.55309e-14
0.140857 	96.9771 	1.78169e-06 	1.55309e-14
0.141111 	96.953 	9.67977e-07 	4.51904e-17
0.141365 	96.9078 	1.90709e-06 	1.53721e-14
0.14162 	96.8626 	1.90709e-06 	1.53721e-14
0.141874 	96.8174 	1.90709e-06 	1.53721e-14
0.142128 	96.7722 	1.90709e-06 	1.53721e-14
0.142382 	96.7269 	1.90709e-06 	1.53721e-14
0.142637 	96.6817 	1.90709e-06 	1.53722e-14
0.142891 	96.6365 	1.90709e-06 	1.53722e-14
0.143145 	96.5913 	1.90709e-06 	1.53722e-14
0.143399 	96.5461 	1.90709e-06 	1.53722e-14
0.143654 	96.5009 	1.90709e-06 	1.53722e-14
0.143908 	96.4385 	2.02437e-06 	1.51561e-14
0.144162 	96.3744 	2.02437e-06 	1.51561e-14
0.144416 	96.3103 	2.02437e-06 	1.51561e-14
0.144671 	96.2462 	2.02437e-06 	1.51561e-14
0.144925 	96.182 	2.02437e-06 	1.51561e-14
0.145179 	96.1179 	2.02437e-06 	1.51561e-14
0.145433 	96.0538 	2.02437e-06 	1.51561e-14
0.145688 	95.9897 	2.02437e-06 	1.51561e-14
0.145942 	95.9256 	2.02437e-06 	1.51561e-14
0.146196 	95.8615 	2.02437e-06 	1.51561e-14
0.14645 	95.7835 	2.13041e-06 	1.49297e-14
0.146705 	95.7025 	2.13041e-06 	1.49297e-14
0.146959 	95.6215 	2.13041e-06 	1.49297e-14
0.147213 	95.5405 	2.13041e-06 	1.49297e-14
0.147467 	95.4595 	2.13041e-06 	1.49297e-14
0.147722 	95.3786 	2.13041e-06 	1.49297e-14
0.147976 	95.2976 	2.13041e-06 	1.49297e-14
0.14823 	95.2166 	2.13041e-06 	1.49297e-14
0.148484 	95.1356 	2.13041e-06 	1.49297e-14
0.148739 	95.0546 	2.13041e-06 	1.49297e-14
0.148993 	94.9627 	2.2313e-06 	1.47383e-14
0.149247 	94.8667 	2.2313e-06 	1.47383e-14
0.149502 	94.7707 	2.2313e-06 	1.47383e-14
0.149756 	94.6747 	2.2313e-06 	1.47383e-14
0.15001 	94.5787 	2.2313e-06 	1.47383e-14
0.150264 	94.4828 	2.2313e-06 	1.47383e-14
0.150519 	94.3868 	2.2313e-06 	1.47383e-14
0.150773 	94.2908 	2.2313e-06 	1.47384e-14
0.151027 	94.1948 	2.2313e-06 	1.47384e-14
0.151281 	94.0988 	2.2313e-06 	1.47384e-14
0.151536 	93.9945 	2.32712e-06 	1.45402e-14
0.15179 	93.8853 	2.32712e-06 	1.45402e-14
0.152044 	93.7762 	2.32712e-06 	1.45402e-14
0.152298 	93.667 	2.32712e-06 	1.45402e-14
0.152553 	93.5579 	2.32712e-06 	1.45402e-14
0.152807 	93.4488 	2.32712e-06 	1.45403e-14
0.153061 	93.3396 	2.32712e-06 	1.45403e-14
0.153315 	93.2305 	2.32712e-06 	1.45403e-14
0.15357 	93.1213 	2.32712e-06 	1.45403e-14
0.153824 	93.0122 	2.32712e-06 	1.45403e-14
0.154078 	92.8968 	2.41458e-06 	1.43322e-14
0.154332 	92.7763 	2.41458e-06 	1.43322e-14
0.154587 	92.6558 	2.41458e-06 	1.43323e-14
0.154841 	92.5353 	2.41458e-06 	1.43323e-14
0.155095 	92.4148 	2.41458e-06 	1.43323e-14
0.155349 	92.2943 	2.41458e-06 	1.43323e-14
0.155604 	92.1738 	2.41458e-06 	1.43323e-14
0.155858 	92.0533 	2.41458e-06 	1.43323e-14
0.156112 	91.9328 	2.41458e-06 	1.43323e-14
0.156366 	91.8123 	2.41458e-06 	1.43323e-14
0.156621 	91.6874 	2.49031e-06 	1.41161e-14
0.156875 	91.5574 	2.49031e-06 	1.41161e-14
0.157129 	91.4274 	2.49031e-06 	1.41162e-14
0.157383 	91.2974 	2.49031e-06 	1.41162e-14
0.157638 	91.1674 	2.49031e-06 	1.41162e-14
0.157892 	91.0373 	2.49031e-06 	1.41162e-14
0.158146 	90.9073 	2.49031e-06 	1.41162e-14
0.1584 	90.7773 	2.49031e-06 	1.41162e-14
0.158655 	90.6473 	2.49031e-06 	1.41162e-14
0.158909 	90.5172 	2.49031e-06 	1.41162e-14
0.159163 	90.3844 	2.55215e-06 	1.39387e-14
0.159417 	90.2468 	2.55215e-06 	1.39387e-14
0.159672 	90.1091 	2.55215e-06 	1.39387e-14
0.159926 	89.9715 	2.55215e-06 	1.39387e-14
0.16018 	89.8338 	2.55215e-06 	1.39388e-14
0.160434 	89.6962 	2.55215e-06 	1.39388e-14
0.160689 	89.5585 	2.55215e-06 	1.39388e-14
0.160943 	89.4209 	2.55215e-06 	1.39388e-14
0.161197 	89.2832 	2.55215e-06 	1.39388e-14
0.161451 	89.1456 	2.55215e-06 	1.39388e-14
0.161706 	89.0064 	2.59941e-06 	1.37658e-14
0.16196 	88.863 	2.59941e-06 	1.37658e-14
0.162214 	88.7195 	2.59941e-06 	1.37658e-14
0.162468 	88.5761 	2.59941e-06 	1.37658e-14
0.162723 	88.4327 	2.59941e-06 	1.37658e-14
0.162977 	88.2893 	2.59941e-06 	1.37658e-14
0.163231 	88.1459 	2.59941e-06 	1.37658e-14
0.163485 	88.0025 	2.59941e-06 	1.37658e-14
0.16374 	87.8591 	2.59941e-06 	1.37658e-14
0.163994 	87.7157 	2.59941e-06 	1.37658e-14
0.164248 	87.5716 	2.63246e-06 	1.35349e-14
0.164503 	87.4243 	2.63246e-06 	1.35349e-14
0.164757 	87.2769 	2.63246e-06 	1.35349e-14
0.165011 	87.1296 	2.63246e-06 	1.35349e-14
0.165265 	86.9822 	2.63246e-06 	1.35349e-14
0.16552 	86.8349 	2.63246e-06 	1.35349e-14
0.165774 	86.6875 	2.63246e-06 	1.35349e-14
0.166028 	86.5402 	2.63246e-06 	1.35349e-14
0.166282 	86.3928 	2.63246e-06 	1.35349e-14
0.166537 	86.2455 	2.63246e-06 	1.35349e-14
0.166791 	86.0979 	2.65219e-06 	1.32972e-14
0.167045 	85.9483 	2.65219e-06 	1.32973e-14
0.167299 	85.7987 	2.65219e-06 	1.32973e-14
0.167554 	85.6491 	2.65219e-06 	1.32973e-14
0.167808 	85.4995 	2.65219e-06 	1.32973e-14
0.168062 	85.3499 	2.65219e-06 	1.32973e-14
0.168316 	85.2003 	2.65219e-06 	1.32973e-14
0.168571 	85.0507 	2.65219e-06 	1.32973e-14
0.168825 	84.9011 	2.65219e-06 	1.32973e-14
0.169079 	84.7515 	2.65219e-06 	1.32973e-14