0 	31.9363 	-2.73805e-07 	2.62988e-18
0.000254254 	31.9421 	-2.74166e-07 	5.1449e-15
0.000508509 	31.9479 	-2.74166e-07 	5.1449e-15
0.000762763 	31.9536 	-2.74166e-07 	5.1449e-15
0.00101702 	31.9594 	-2.74166e-07 	5.1449e-15
0.00127127 	31.9652 	-2.74166e-07 	5.1449e-15
0.00152553 	31.971 	-2.74166e-07 	5.1449e-15
0.00177978 	31.9767 	-2.74166e-07 	5.1449e-15
0.00203403 	31.9825 	-2.74166e-07 	5.1449e-15
0.00228829 	31.9883 	-2.74166e-07 	5.1449e-15
0.00254254 	31.9941 	-2.74166e-07 	5.1449e-15
0.0027968 	32.0075 	-2.79607e-07 	5.14913e-15
0.00305105 	32.0217 	-2.79607e-07 	5.14913e-15
0.00330531 	32.036 	-2.79607e-07 	5.14913e-15
0.00355956 	32.0502 	-2.79607e-07 	5.14913e-15
0.00381381 	32.0644 	-2.79607e-07 	5.14913e-15
0.00406807 	32.0786 	-2.79607e-07 	5.14913e-15
0.00432232 	32.0928 	-2.79607e-07 	5.14913e-15
0.00457658 	32.107 	-2.79607e-07 	5.14913e-15
0.00483083 	32.1213 	-2.79607e-07 	5.14913e-15
0.00508509 	32.1355 	-2.79607e-07 	5.14913e-15
0.00533934 	32.1522 	-3.02982e-07 	5.20384e-15
0.00559359 	32.1695 	-3.02982e-07 	5.20384e-15
0.00584785 	32.1868 	-3.02982e-07 	5.20384e-15
0.0061021 	32.2041 	-3.02982e-07 	5.20384e-15
0.00635636 	32.2214 	-3.02982e-07 	5.20384e-15
0.00661061 	32.2387 	-3.02982e-07 	5.20384e-15
0.00686486 	32.256 	-3.02982e-07 	5.20383e-15
0.00711912 	32.2733 	-3.02982e-07 	5.20383e-15
0.00737337 	32.2906 	-3.02982e-07 	5.20383e-15
0.00762763 	32.3079 	-3.02982e-07 	5.20383e-15
0.00788188 	32.326 	-3.4338e-07 	5.2141e-15
0.00813614 	32.3443 	-3.4338e-07 	5.2141e-15
0.00839039 	32.3626 	-3.4338e-07 	5.2141e-15
0.00864464 	32.381 	-3.4338e-07 	5.2141e-15
0.0088989 	32.3993 	-3.4338e-07 	5.2141e-15
0.00915315 	32.4176 	-3.4338e-07 	5.2141e-15
0.00940741 	32.436 	-3.4338e-07 	5.2141e-15
0.00966166 	32.4543 	-3.4338e-07 	5.21409e-15
0.00991592 	32.4726 	-3.4338e-07 	5.21409e-15
0.0101702 	32.491 	-3.4338e-07 	5.21409e-15
0.0104244 	32.5105 	-3.96936e-07 	5.27228e-15
0.0106787 	32.5306 	-3.96936e-07 	5.27228e-15
0.0109329 	32.5508 	-3.96936e-07 	5.27228e-15
0.0111872 	32.571 	-3.96936e-07 	5.27228e-15
0.0114414 	32.5912 	-3.96936e-07 	5.27227e-15
0.0116957 	32.6113 	-3.96936e-07 	5.27227e-15
0.0119499 	32.6315 	-3.96936e-07 	5.27227e-15
0.0122042 	32.6517 	-3.96936e-07 	5.27227e-15
0.0124585 	32.6718 	-3.96936e-07 	5.27227e-15
0.0127127 	32.692 	-3.96936e-07 	5.27227e-15
0.012967 	32.7138 	-4.60179e-07 	5.34394e-15
0.0132212 	32.7369 	-4.60179e-07 	5.34394e-15
0.0134755 	32.76 	-4.60179e-07 	5.34394e-15
0.0137297 	32.7831 	-4.60179e-07 	5.34393e-15
0.013984 	32.8062 	-4.60179e-07 	5.34393e-15
0.0142382 	32.8292 	-4.60179e-07 	5.34393e-15
0.0144925 	32.8523 	-4.60179e-07 	5.34393e-15
0.0147467 	32.8754 	-4.60179e-07 	5.34393e-15
0.015001 	32.8985 	-4.60179e-07 	5.34393e-15
0.0152553 	32.9216 	-4.60179e-07 	5.34393e-15
0.0155095 	32.9464 	-5.3048e-07 	5.38065e-15
0.0157638 	32.9731 	-5.3048e-07 	5.38065e-15
0.016018 	32.9998 	-5.3048e-07 	5.38064e-15
0.0162723 	33.0265 	-5.3048e-07 	5.38064e-15
0.0165265 	33.0532 	-5.3048e-07 	5.38064e-15
0.0167808 	33.0799 	-5.3048e-07 	5.38064e-15
0.017035 	33.1066 	-5.3048e-07 	5.38064e-15
0.0172893 	33.1334 	-5.3048e-07 	5.38064e-15
0.0175435 	33.1601 	-5.3048e-07 	5.38063e-15
0.0177978 	33.1868 	-5.3048e-07 	5.38063e-15
0.0180521 	33.2149 	-6.06003e-07 	5.42299e-15
0.0183063 	33.2456 	-6.06003e-07 	5.42299e-15
0.0185606 	33.2764 	-6.06003e-07 	5.42299e-15
0.0188148 	33.3071 	-6.06003e-07 	5.42298e-15
0.0190691 	33.3378 	-6.06003e-07 	5.42298e-15
0.0193233 	33.3685 	-6.06003e-07 	5.42298e-15
0.0195776 	33.3992 	-6.06003e-07 	5.42298e-15
0.0198318 	33.4299 	-6.06003e-07 	5.42298e-15
0.0200861 	33.4606 	-6.06003e-07 	5.42297e-15
0.0203403 	33.4913 	-6.06003e-07 	5.42297e-15
0.0205946 	33.5231 	-6.85589e-07 	5.47258e-15
0.0208488 	33.5581 	-6.85589e-07 	5.47257e-15
0.0211031 	33.593 	-6.85589e-07 	5.47257e-15
0.0213574 	33.6279 	-6.85589e-07 	5.47257e-15
0.0216116 	33.6629 	-6.85589e-07 	5.47257e-15
0.0218659 	33.6978 	-6.85589e-07 	5.47256e-15
0.0221201 	33.7327 	-6.85589e-07 	5.47256e-15
0.0223744 	33.7677 	-6.85589e-07 	5.47256e-15
0.0226286 	33.8026 	-6.85589e-07 	5.47256e-15
0.0228829 	33.8375 	-6.85589e-07 	5.47256e-15
0.0231371 	33.8733 	-7.68573e-07 	5.53118e-15
0.0233914 	33.9126 	-7.68573e-07 	5.53118e-15
0.0236456 	33.952 	-7.68573e-07 	5.53118e-15
0.0238999 	33.9913 	-7.68573e-07 	5.53118e-15
0.0241542 	34.0307 	-7.68573e-07 	5.53117e-15
0.0244084 	34.07 	-7.68573e-07 	5.53117e-15
0.0246627 	34.1094 	-7.68573e-07 	5.53117e-15
0.0249169 	34.1487 	-7.68573e-07 	5.53117e-15
0.0251712 	34.1881 	-7.68573e-07 	5.53116e-15
0.0254254 	34.2274 	-7.68573e-07 	5.53116e-15
0.0256797 	34.2672 	-8.54406e-07 	5.59918e-15
0.0259339 	34.3111 	-8.54406e-07 	5.59918e-15
0.0261882 	34.3551 	-8.54406e-07 	5.59918e-15
0.0264424 	34.399 	-8.54406e-07 	5.59917e-15
0.0266967 	34.443 	-8.54406e-07 	5.59917e-15
0.026951 	34.4869 	-8.54406e-07 	5.59917e-15
0.0272052 	34.5308 	-8.54406e-07 	5.59916e-15
0.0274595 	34.5748 	-8.54406e-07 	5.59916e-15
0.0277137 	34.6187 	-8.54406e-07 	5.59916e-15
0.027968 	34.6627 	-8.54406e-07 	5.59916e-15
0.0282222 	34.7066 	-9.92683e-07 	1.14819e-18
0.0284765 	34.7553 	-9.41742e-07 	5.67638e-15
0.0287307 	34.8041 	-9.41742e-07 	5.67638e-15
0.028985 	34.8528 	-9.41742e-07 	5.67638e-15
0.0292392 	34.9015 	-9.41742e-07 	5.67637e-15
0.0294935 	34.9502 	-9.41742e-07 	5.67637e-15
0.0297477 	34.9989 	-9.41742e-07 	5.67637e-15
0.030002 	35.0477 	-9.41742e-07 	5.67636e-15
0.0302563 	35.0964 	-9.41742e-07 	5.67636e-15
0.0305105 	35.1451 	-9.41742e-07 	5.67636e-15
0.0307648 	35.1938 	-9.41742e-07 	5.67636e-15
0.031019 	35.2471 	-1.0285e-06 	5.80376e-15
0.0312733 	35.3007 	-1.0285e-06 	5.80375e-15
0.0315275 	35.3544 	-1.0285e-06 	5.80375e-15
0.0317818 	35.4081 	-1.0285e-06 	5.80375e-15
0.032036 	35.4618 	-1.0285e-06 	5.80374e-15
0.0322903 	35.5154 	-1.0285e-06 	5.80374e-15
0.0325445 	35.5691 	-1.0285e-06 	5.80374e-15
0.0327988 	35.6228 	-1.0285e-06 	5.80373e-15
0.0330531 	35.6765 	-1.0285e-06 	5.80373e-15
0.0333073 	35.7302 	-1.0285e-06 	5.80372e-15
0.0335616 	35.788 	-1.11683e-06 	5.86626e-15
0.0338158 	35.8469 	-1.11683e-06 	5.86626e-15
0.0340701 	35.9057 	-1.11683e-06 	5.86626e-15
0.0343243 	35.9645 	-1.11683e-06 	5.86625e-15
0.0345786 	36.0233 	-1.11683e-06 	5.86625e-15
0.0348328 	36.0822 	-1.11683e-06 	5.86624e-15
0.0350871 	36.141 	-1.11683e-06 	5.86624e-15
0.0353413 	36.1998 	-1.11683e-06 	5.86624e-15
0.0355956 	36.2586 	-1.11683e-06 	5.86623e-15
0.0358498 	36.3174 	-1.11683e-06 	5.86623e-15
0.0361041 	36.3801 	-1.20774e-06 	5.99895e-15
0.0363584 	36.4443 	-1.20774e-06 	5.99895e-15
0.0366126 	36.5085 	-1.20774e-06 	5.99894e-15
0.0368669 	36.5726 	-1.20774e-06 	5.99894e-15
0.0371211 	36.6368 	-1.20774e-06 	5.99893e-15
0.0373754 	36.701 	-1.20774e-06 	5.99893e-15
0.0376296 	36.7651 	-1.20774e-06 	5.99892e-15
0.0378839 	36.8293 	-1.20774e-06 	5.99892e-15
0.0381381 	36.8935 	-1.20774e-06 	5.99892e-15
0.0383924 	36.9576 	-1.20774e-06 	5.99891e-15
0.0386466 	37.0253 	-1.30304e-06 	6.16529e-15
0.0389009 	37.095 	-1.30304e-06 	6.16528e-15
0.0391552 	37.1647 	-1.30304e-06 	6.16528e-15
0.0394094 	37.2344 	-1.30304e-06 	6.16528e-15
0.0396637 	37.3042 	-1.30304e-06 	6.16527e-15
0.0399179 	37.3739 	-1.30304e-06 	6.16527e-15
0.0401722 	37.4436 	-1.30304e-06 	6.16526e-15
0.0404264 	37.5133 	-1.30304e-06 	6.16526e-15
0.0406807 	37.583 	-1.30304e-06 	6.16525e-15
0.0409349 	37.6527 	-1.30304e-06 	6.16525e-15
0.0411892 	37.7256 	-1.40208e-06 	6.33541e-15
0.0414434 	37.801 	-1.40208e-06 	6.3354e-15
0.0416977 	37.8765 	-1.40208e-06 	6.3354e-15
0.041952 	37.952 	-1.40208e-06 	6.33539e-15
0.0422062 	38.0274 	-1.40208e-06 	6.33539e-15
0.0424605 	38.1029 	-1.40208e-06 	6.33539e-15
0.0427147 	38.1784 	-1.40208e-06 	6.33538e-15
0.042969 	38.2539 	-1.40208e-06 	6.33538e-15
0.0432232 	38.3293 	-1.40208e-06 	6.33537e-15
0.0434775 	38.4048 	-1.40208e-06 	6.33537e-15
0.0437317 	38.483 	-1.50453e-06 	6.47974e-15
0.043986 	38.5645 	-1.50453e-06 	6.47973e-15
0.0442402 	38.6459 	-1.50453e-06 	6.47973e-15
0.0444945 	38.7274 	-1.50453e-06 	6.47972e-15
0.0447487 	38.8088 	-1.50453e-06 	6.47972e-15
0.045003 	38.8903 	-1.50453e-06 	6.47971e-15
0.0452573 	38.9718 	-1.50453e-06 	6.47971e-15
0.0455115 	39.0532 	-1.50453e-06 	6.4797e-15
0.0457658 	39.1347 	-1.50453e-06 	6.4797e-15
0.04602 	39.2162 	-1.50453e-06 	6.47969e-15
0.0462743 	39.2999 	-1.61034e-06 	6.59475e-15
0.0465285 	39.3876 	-1.61034e-06 	6.59474e-15
0.0467828 	39.4753 	-1.61034e-06 	6.59474e-15
0.047037 	39.5629 	-1.61034e-06 	6.59473e-15
0.0472913 	39.6506 	-1.61034e-06 	6.59473e-15
0.0475455 	39.7383 	-1.61034e-06 	6.59472e-15
0.0477998 	39.826 	-1.61034e-06 	6.59471e-15
0.0480541 	39.9137 	-1.61034e-06 	6.59471e-15
0.0483083 	40.0014 	-1.61034e-06 	6.5947e-15
0.0485626 	40.0891 	-1.61034e-06 	6.5947e-15
0.0488168 	40.1785 	-1.71935e-06 	6.68706e-15
0.0490711 	40.2727 	-1.71935e-06 	6.68705e-15
0.0493253 	40.3669 	-1.71935e-06 	6.68704e-15
0.0495796 	40.461 	-1.71935e-06 	6.68704e-15
0.0498338 	40.5552 	-1.71935e-06 	6.68703e-15
0.0500881 	40.6494 	-1.71935e-06 	6.68703e-15
0.0503423 	40.7435 	-1.71935e-06 	6.68702e-15
0.0505966 	40.8377 	-1.71935e-06 	6.68701e-15
0.0508509 	40.9318 	-1.71935e-06 	6.68701e-15
0.0511051 	41.026 	-1.71935e-06 	6.687e-15
0.0513594 	41.1214 	-1.83128e-06 	6.84523e-15
0.0516136 	41.2223 	-1.83128e-06 	6.84522e-15
0.0518679 	41.3232 	-1.83128e-06 	6.84521e-15
0.0521221 	41.4241 	-1.83128e-06 	6.84521e-15
0.0523764 	41.525 	-1.83128e-06 	6.8452e-15
0.0526306 	41.6258 	-1.83128e-06 	6.84519e-15
0.0528849 	41.7267 	-1.83128e-06 	6.84519e-15
0.0531391 	41.8276 	-1.83128e-06 	6.84518e-15
0.0533934 	41.9285 	-1.83128e-06 	6.84518e-15
0.0536476 	42.0294 	-1.83128e-06 	6.84517e-15
0.0539019 	42.1309 	-1.94564e-06 	6.97298e-15
0.0541562 	42.2388 	-1.94564e-06 	6.97298e-15
0.0544104 	42.3467 	-1.94564e-06 	6.97297e-15
0.0546647 	42.4545 	-1.94564e-06 	6.97296e-15
0.0549189 	42.5624 	-1.94564e-06 	6.97296e-15
0.0551732 	42.6703 	-1.94564e-06 	6.97295e-15
0.0554274 	42.7781 	-1.94564e-06 	6.97294e-15
0.0556817 	42.886 	-1.94564e-06 	6.97293e-15
0.0559359 	42.9939 	-1.94564e-06 	6.97293e-15
0.0561902 	43.1017 	-1.94564e-06 	6.97292e-15
0.0564444 	43.2096 	-2.31592e-06 	5.43106e-19
0.0566987 	43.3247 	-2.06172e-06 	7.16679e-15
0.056953 	43.4398 	-2.06172e-06 	7.16678e-15
0.0572072 	43.5549 	-2.06172e-06 	7.16677e-15
0.0574615 	43.67 	-2.06172e-06 	7.16677e-15
0.0577157 	43.7852 	-2.06172e-06 	7.16676e-15
0.05797 	43.9003 	-2.06172e-06 	7.16675e-15
0.0582242 	44.0154 	-2.06172e-06 	7.16674e-15
0.0584785 	44.1305 	-2.06172e-06 	7.16674e-15
0.0587327 	44.2456 	-2.06172e-06 	7.16673e-15
0.058987 	44.3607 	-2.06172e-06 	7.16672e-15
0.0592412 	44.4826 	-2.17849e-06 	7.36678e-15
0.0594955 	44.6052 	-2.17849e-06 	7.36678e-15
0.0597497 	44.7278 	-2.17849e-06 	7.36677e-15
0.060004 	44.8504 	-2.17849e-06 	7.36676e-15
0.0602583 	44.973 	-2.17849e-06 	7.36675e-15
0.0605125 	45.0956 	-2.17849e-06 	7.36675e-15
0.0607668 	45.2182 	-2.17849e-06 	7.36674e-15
0.061021 	45.3408 	-2.17849e-06 	7.36673e-15
0.0612753 	45.4634 	-2.17849e-06 	7.36672e-15
0.0615295 	45.586 	-2.17849e-06 	7.36671e-15
0.0617838 	45.7149 	-2.296e-06 	7.63866e-15
0.062038 	45.8452 	-2.296e-06 	7.63865e-15
0.0622923 	45.9756 	-2.296e-06 	7.63864e-15
0.0625465 	46.1059 	-2.296e-06 	7.63863e-15
0.0628008 	46.2362 	-2.296e-06 	7.63862e-15
0.0630551 	46.3666 	-2.296e-06 	7.63862e-15
0.0633093 	46.4969 	-2.296e-06 	7.63861e-15
0.0635636 	46.6272 	-2.296e-06 	7.6386e-15
0.0638178 	46.7576 	-2.296e-06 	7.63859e-15
0.0640721 	46.8879 	-2.296e-06 	7.63858e-15
0.0643263 	47.024 	-2.4139e-06 	7.80341e-15
0.0645806 	47.1623 	-2.4139e-06 	7.8034e-15
0.0648348 	47.3006 	-2.4139e-06 	7.8034e-15
0.0650891 	47.4389 	-2.4139e-06 	7.80339e-15
0.0653433 	47.5772 	-2.4139e-06 	7.80338e-15
0.0655976 	47.7155 	-2.4139e-06 	7.80337e-15
0.0658519 	47.8538 	-2.4139e-06 	7.80336e-15
0.0661061 	47.9921 	-2.4139e-06 	7.80335e-15
0.0663604 	48.1304 	-2.4139e-06 	7.80334e-15
0.0666146 	48.2687 	-2.4139e-06 	7.80333e-15
0.0668689 	48.4122 	-2.53149e-06 	8.04485e-15
0.0671231 	48.5587 	-2.53149e-06 	8.04484e-15
0.0673774 	48.7052 	-2.53149e-06 	8.04483e-15
0.0676316 	48.8517 	-2.53149e-06 	8.04482e-15
0.0678859 	48.9982 	-2.53149e-06 	8.04481e-15
0.0681401 	49.1447 	-2.53149e-06 	8.0448e-15
0.0683944 	49.2912 	-2.53149e-06 	8.04479e-15
0.0686486 	49.4377 	-2.53149e-06 	8.04478e-15
0.0689029 	49.5842 	-2.53149e-06 	8.04478e-15
0.0691572 	49.7306 	-2.53149e-06 	8.04477e-15
0.0694114 	49.8817 	-2.64753e-06 	8.292e-15
0.0696657 	50.0366 	-2.64753e-06 	8.29199e-15
0.0699199 	50.1915 	-2.64753e-06 	8.29198e-15
0.0701742 	50.3464 	-2.64753e-06 	8.29197e-15
0.0704284 	50.5014 	-2.64753e-06 	8.29196e-15
0.0706827 	50.6563 	-2.64753e-06 	8.29195e-15
0.0709369 	50.8112 	-2.64753e-06 	8.29194e-15
0.0711912 	50.9661 	-2.64753e-06 	8.29193e-15
0.0714454 	51.121 	-2.64753e-06 	8.29192e-15
0.0716997 	51.2759 	-2.64753e-06 	8.29191e-15
0.071954 	51.4347 	-2.75386e-06 	8.55122e-15
0.0722082 	51.5982 	-2.75386e-06 	8.55121e-15
0.0724625 	51.7617 	-2.75386e-06 	8.5512e-15
0.0727167 	51.9253 	-2.75386e-06 	8.55119e-15
0.072971 	52.0888 	-2.75386e-06 	8.55118e-15
0.0732252 	52.2523 	-2.75386e-06 	8.55117e-15
0.0734795 	52.4158 	-2.75386e-06 	8.55116e-15
0.0737337 	52.5793 	-2.75386e-06 	8.55115e-15
0.073988 	52.7428 	-2.75386e-06 	8.55114e-15
0.0742422 	52.9063 	-2.75386e-06 	8.55113e-15
0.0744965 	53.073 	-2.83888e-06 	8.8193e-15
0.0747508 	53.2452 	-2.83888e-06 	8.81929e-15
0.075005 	53.4175 	-2.83888e-06 	8.81928e-15
0.0752593 	53.5897 	-2.83888e-06 	8.81927e-15
0.0755135 	53.7619 	-2.83888e-06 	8.81925e-15
0.0757678 	53.9342 	-2.83888e-06 	8.81924e-15
0.076022 	54.1064 	-2.83888e-06 	8.81923e-15
0.0762763 	54.2786 	-2.83888e-06 	8.81922e-15
0.0765305 	54.4509 	-2.83888e-06 	8.81921e-15
0.0767848 	54.6231 	-2.83888e-06 	8.8192e-15
0.077039 	54.7977 	-2.89023e-06 	9.04745e-15
0.0772933 	54.9787 	-2.89023e-06 	9.04744e-15
0.0775475 	55.1596 	-2.89023e-06 	9.04742e-15
0.0778018 	55.3406 	-2.89023e-06 	9.04741e-15
0.0780561 	55.5215 	-2.89023e-06 	9.0474e-15
0.0783103 	55.7025 	-2.89023e-06 	9.04739e-15
0.0785646 	55.8835 	-2.89023e-06 	9.04738e-15
0.0788188 	56.0644 	-2.89023e-06 	9.04737e-15
0.0790731 	56.2454 	-2.89023e-06 	9.04735e-15
0.0793273 	56.4263 	-2.89023e-06 	9.04734e-15
0.0795816 	56.6089 	-2.90432e-06 	9.32025e-15
0.0798358 	56.7984 	-2.90432e-06 	9.32024e-15
0.0800901 	56.988 	-2.90432e-06 	9.32023e-15
0.0803443 	57.1776 	-2.90432e-06 	9.32021e-15
0.0805986 	57.3672 	-2.90432e-06 	9.3202e-15
0.0808529 	57.5567 	-2.90432e-06 	9.32019e-15
0.0811071 	57.7463 	-2.90432e-06 	9.32018e-15
0.0813614 	57.9359 	-2.90432e-06 	9.32017e-15
0.0816156 	58.1255 	-2.90432e-06 	9.32015e-15
0.0818699 	58.315 	-2.90432e-06 	9.32014e-15
0.0821241 	58.5054 	-2.92251e-06 	9.60553e-15
0.0823784 	58.7033 	-2.92251e-06 	9.60552e-15
0.0826326 	58.9012 	-2.92251e-06 	9.60551e-15
0.0828869 	59.0991 	-2.92251e-06 	9.6055e-15
0.0831411 	59.2971 	-2.92251e-06 	9.60548e-15
0.0833954 	59.495 	-2.92251e-06 	9.60547e-15
0.0836496 	59.6929 	-2.92251e-06 	9.60546e-15
0.0839039 	59.8908 	-2.92251e-06 	9.60545e-15
0.0841582 	60.0888 	-2.92251e-06 	9.60543e-15
0.0844124 	60.2867 	-2.92251e-06 	9.60542e-15
0.0846667 	60.4846 	-3.85337e-06 	2.76443e-17
0.0849209 	60.6906 	-2.95029e-06 	9.89568e-15
0.0851752 	60.8965 	-2.95029e-06 	9.89567e-15
0.0854294 	61.1024 	-2.95029e-06 	9.89565e-15
0.0856837 	61.3084 	-2.95029e-06 	9.89564e-15
0.0859379 	61.5143 	-2.95029e-06 	9.89563e-15
0.0861922 	61.7203 	-2.95029e-06 	9.89561e-15
0.0864464 	61.9262 	-2.95029e-06 	9.8956e-15
0.0867007 	62.1322 	-2.95029e-06 	9.89559e-15
0.086955 	62.3381 	-2.95029e-06 	9.89557e-15
0.0872092 	62.544 	-2.95029e-06 	9.89556e-15
0.0874635 	62.757 	-2.96082e-06 	1.0189e-14
0.0877177 	62.9706 	-2.96082e-06 	1.0189e-14
0.087972 	63.1842 	-2.96082e-06 	1.0189e-14
0.0882262 	63.3978 	-2.96082e-06 	1.0189e-14
0.0884805 	63.6114 	-2.96082e-06 	1.0189e-14
0.0887347 	63.825 	-2.96082e-06 	1.0189e-14
0.088989 	64.0386 	-2.96082e-06 	1.01889e-14
0.0892432 	64.2522 	-2.96082e-06 	1.01889e-14
0.0894975 	64.4658 	-2.96082e-06 	1.01889e-14
0.0897518 	64.6794 	-2.96082e-06 	1.01889e-14
0.090006 	64.8988 	-2.94673e-06 	1.04837e-14
0.0902603 	65.1196 	-2.94673e-06 	1.04836e-14
0.0905145 	65.3403 	-2.94673e-06 	1.04836e-14
0.0907688 	65.561 	-2.94673e-06 	1.04836e-14
0.091023 	65.7818 	-2.94673e-06 	1.04836e-14
0.0912773 	66.0025 	-2.94673e-06 	1.04836e-14
0.0915315 	66.2232 	-2.94673e-06 	1.04836e-14
0.0917858 	66.444 	-2.94673e-06 	1.04836e-14
0.09204 	66.6647 	-2.94673e-06 	1.04835e-14
0.0922943 	66.8855 	-2.94673e-06 	1.04835e-14
0.0925485 	67.1108 	-2.93081e-06 	1.07774e-14
0.0928028 	67.3378 	-2.93081e-06 	1.07774e-14
0.0930571 	67.5649 	-2.93081e-06 	1.07774e-14
0.0933113 	67.7919 	-2.93081e-06 	1.07774e-14
0.0935656 	68.019 	-2.93081e-06 	1.07773e-14
0.0938198 	68.246 	-2.93081e-06 	1.07773e-14
0.0940741 	68.4731 	-2.93081e-06 	1.07773e-14
0.0943283 	68.7002 	-2.93081e-06 	1.07773e-14
0.0945826 	68.9272 	-2.93081e-06 	1.07773e-14
0.0948368 	69.1543 	-2.93081e-06 	1.07773e-14
0.0950911 	69.3846 	-2.90118e-06 	1.10157e-14
0.0953453 	69.6169 	-2.90118e-06 	1.10156e-14
0.0955996 	69.8492 	-2.90118e-06 	1.10156e-14
0.0958539 	70.0814 	-2.90118e-06 	1.10156e-14
0.0961081 	70.3137 	-2.90118e-06 	1.10156e-14
0.0963624 	70.546 	-2.90118e-06 	1.10156e-14
0.0966166 	70.7782 	-2.90118e-06 	1.10156e-14
0.0968709 	71.0105 	-2.90118e-06 	1.10156e-14
0.0971251 	71.2428 	-2.90118e-06 	1.10155e-14
0.0973794 	71.4751 	-2.90118e-06 	1.10155e-14
0.0976336 	71.7094 	-2.82842e-06 	1.13451e-14
0.0978879 	71.9455 	-2.82842e-06 	1.13451e-14
0.0981421 	72.1815 	-2.82842e-06 	1.13451e-14
0.0983964 	72.4176 	-2.82842e-06 	1.13451e-14
0.0986507 	72.6537 	-2.82842e-06 	1.1345e-14
0.0989049 	72.8897 	-2.82842e-06 	1.1345e-14
0.0991592 	73.1258 	-2.82842e-06 	1.1345e-14
0.0994134 	73.3619 	-2.82842e-06 	1.1345e-14
0.0996677 	73.5979 	-2.82842e-06 	1.1345e-14
0.0999219 	73.834 	-2.82842e-06 	1.1345e-14
0.100176 	74.071 	-2.7108e-06 	1.16777e-14
0.10043 	74.3091 	-2.7108e-06 	1.16777e-14
0.100685 	74.5472 	-2.7108e-06 	1.16777e-14
0.100939 	74.7853 	-2.7108e-06 	1.16776e-14
0.101193 	75.0233 	-2.7108e-06 	1.16776e-14
0.101447 	75.2614 	-2.7108e-06 	1.16776e-14
0.101702 	75.4995 	-2.7108e-06 	1.16776e-14
0.101956 	75.7376 	-2.7108e-06 	1.16776e-14
0.10221 	75.9757 	-2.7108e-06 	1.16776e-14
0.102464 	76.2138 	-2.7108e-06 	1.16776e-14
0.102719 	76.4518 	-2.53262e-06 	1.19382e-14
0.102973 	76.6897 	-2.53262e-06 	1.19382e-14
0.103227 	76.9276 	-2.53262e-06 	1.19382e-14
0.103481 	77.1656 	-2.53262e-06 	1.19382e-14
0.103736 	77.4035 	-2.53262e-06 	1.19382e-14
0.10399 	77.6414 	-2.53262e-06 	1.19381e-14
0.104244 	77.8793 	-2.53262e-06 	1.19381e-14
0.104498 	78.1173 	-2.53262e-06 	1.19381e-14
0.104753 	78.3552 	-2.53262e-06 	1.19381e-14
0.105007 	78.5931 	-2.53262e-06 	1.19381e-14
0.105261 	78.8304 	-2.35702e-06 	1.22312e-14
0.105516 	79.0657 	-2.35702e-06 	1.22311e-14
0.10577 	79.301 	-2.35702e-06 	1.22311e-14
0.106024 	79.5364 	-2.35702e-06 	1.22311e-14
0.106278 	79.7717 	-2.35702e-06 	1.22311e-14
0.106533 	80.007 	-2.35702e-06 	1.22311e-14
0.106787 	80.2424 	-2.35702e-06 	1.22311e-14
0.107041 	80.4777 	-2.35702e-06 	1.2231e-14
0.107295 	80.713 	-2.35702e-06 	1.2231e-14
0.10755 	80.9484 	-2.35702e-06 	1.2231e-14
0.107804 	81.1828 	-2.07104e-06 	1.25236e-14
0.108058 	81.413 	-2.07104e-06 	1.25236e-14
0.108312 	81.6431 	-2.07104e-06 	1.25236e-14
0.108567 	81.8733 	-2.07104e-06 	1.25236e-14
0.108821 	82.1035 	-2.07104e-06 	1.25236e-14
0.109075 	82.3337 	-2.07104e-06 	1.25236e-14
0.109329 	82.5639 	-2.07104e-06 	1.25236e-14
0.109584 	82.7941 	-2.07104e-06 	1.25235e-14
0.109838 	83.0243 	-2.07104e-06 	1.25235e-14
0.110092 	83.2545 	-2.07104e-06 	1.25235e-14
0.110346 	83.484 	-1.77186e-06 	1.2707e-14
0.110601 	83.7062 	-1.77186e-06 	1.2707e-14
0.110855 	83.9284 	-1.77186e-06 	1.2707e-14
0.111109 	84.1506 	-1.77186e-06 	1.2707e-14
0.111363 	84.3728 	-1.77186e-06 	1.27069e-14
0.111618 	84.595 	-1.77186e-06 	1.27069e-14
0.111872 	84.8172 	-1.77186e-06 	1.27069e-14
0.112126 	85.0394 	-1.77186e-06 	1.27069e-14
0.11238 	85.2616 	-1.77186e-06 	1.27069e-14
0.112635 	85.4839 	-1.77186e-06 	1.27069e-14
0.112889 	85.7061 	-2.8786e-06 	5.05968e-17
0.113143 	85.9172 	-1.43718e-06 	1.28625e-14
0.113397 	86.1283 	-1.43718e-06 	1.28625e-14
0.113652 	86.3394 	-1.43718e-06 	1.28625e-14
0.113906 	86.5505 	-1.43718e-06 	1.28625e-14
0.11416 	86.7617 	-1.43718e-06 	1.28624e-14
0.114414 	86.9728 	-1.43718e-06 	1.28624e-14
0.114669 	87.1839 	-1.43718e-06 	1.28624e-14
0.114923 	87.395 	-1.43718e-06 	1.28624e-14
0.115177 	87.6061 	-1.43718e-06 	1.28624e-14
0.115431 	87.8172 	-1.43718e-06 	1.28624e-14
0.115686 	88.0153 	-1.01781e-06 	1.29842e-14
0.11594 	88.212 	-1.01781e-06 	1.29842e-14
0.116194 	88.4088 	-1.01781e-06 	1.29842e-14
0.116448 	88.6055 	-1.01781e-06 	1.29842e-14
0.116703 	88.8022 	-1.01781e-06 	1.29842e-14
0.116957 	88.999 	-1.01781e-06 	1.29842e-14
0.117211 	89.1957 	-1.01781e-06 	1.29842e-14
0.117465 	89.3924 	-1.01781e-06 	1.29841e-14
0.11772 	89.5892 	-1.01781e-06 	1.29841e-14
0.117974 	89.7859 	-1.01781e-06 	1.29841e-14
0.118228 	89.968 	-6.04237e-07 	1.30677e-14
0.118482 	90.1469 	-6.04237e-07 	1.30676e-14
0.118737 	90.3258 	-6.04237e-07 	1.30676e-14
0.118991 	90.5047 	-6.04237e-07 	1.30676e-14
0.119245 	90.6836 	-6.04237e-07 	1.30676e-14
0.119499 	90.8624 	-6.04237e-07 	1.30676e-14
0.119754 	91.0413 	-6.04237e-07 	1.30676e-14
0.120008 	91.2202 	-6.04237e-07 	1.30676e-14
0.120262 	91.3991 	-6.04237e-07 	1.30676e-14
0.120517 	91.578 	-6.04237e-07 	1.30676e-14
0.120771 	91.7414 	-1.91846e-07 	1.31123e-14
0.121025 	91.899 	-1.91846e-07 	1.31123e-14
0.121279 	92.0567 	-1.91846e-07 	1.31123e-14
0.121534 	92.2143 	-1.91846e-07 	1.31123e-14
0.121788 	92.3719 	-1.91846e-07 	1.31123e-14
0.122042 	92.5296 	-1.91846e-07 	1.31123e-14
0.122296 	92.6872 	-1.91846e-07 	1.31123e-14
0.122551 	92.8449 	-1.91846e-07 	1.31123e-14
0.122805 	93.0025 	-1.91846e-07 	1.31123e-14
0.123059 	93.1601 	-1.91846e-07 	1.31122e-14
0.123313 	93.3024 	2.21878e-07 	1.31177e-14
0.123568 	93.4358 	2.21878e-07 	1.31177e-14
0.123822 	93.5692 	2.21878e-07 	1.31177e-14
0.124076 	93.7026 	2.21878e-07 	1.31177e-14
0.12433 	93.836 	2.21878e-07 	1.31176e-14
0.124585 	93.9694 	2.21878e-07 	1.31176e-14
0.124839 	94.1028 	2.21878e-07 	1.31176e-14
0.125093 	94.2362 	2.21878e-07 	1.31176e-14
0.125347 	94.3696 	2.21878e-07 	1.31176e-14
0.125602 	94.5031 	2.21878e-07 	1.31176e-14
0.125856 	94.622 	5.97165e-07 	1.30872e-14
0.12611 	94.7289 	5.97165e-07 	1.30872e-14
0.126364 	94.8358 	5.97165e-07 	1.30872e-14
0.126619 	94.9427 	5.97165e-07 	1.30871e-14
0.126873 	95.0496 	5.97165e-07 	1.30871e-14
0.127127 	95.1565 	5.97165e-07 	1.30871e-14
0.127381 	95.2634 	5.97165e-07 	1.30871e-14
0.127636 	95.3703 	5.97165e-07 	1.30871e-14
0.12789 	95.4772 	5.97165e-07 	1.30871e-14
0.128144 	95.5841 	5.97165e-07 	1.30871e-14
0.128398 	95.6783 	9.2612e-07 	1.30296e-14
0.128653 	95.7574 	9.2612e-07 	1.30296e-14
0.128907 	95.8365 	9.2612e-07 	1.30296e-14
0.129161 	95.9157 	9.2612e-07 	1.30296e-14
0.129415 	95.9948 	9.2612e-07 	1.30296e-14
0.12967 	96.0739 	9.2612e-07 	1.30296e-14
0.129924 	96.153 	9.2612e-07 	1.30296e-14
0.130178 	96.2321 	9.2612e-07 	1.30296e-14
0.130432 	96.3112 	9.2612e-07 	1.30296e-14
0.130687 	96.3903 	9.2612e-07 	1.30296e-14
0.130941 	96.4593 	1.20555e-06 	1.29529e-14
0.131195 	96.5106 	1.20555e-06 	1.29529e-14
0.131449 	96.5618 	1.20555e-06 	1.29529e-14
0.131704 	96.613 	1.20555e-06 	1.29529e-14
0.131958 	96.6643 	1.20555e-06 	1.29529e-14
0.132212 	96.7155 	1.20555e-06 	1.29529e-14
0.132466 	96.7668 	1.20555e-06 	1.29529e-14
0.132721 	96.818 	1.20555e-06 	1.29529e-14
0.132975 	96.8692 	1.20555e-06 	1.29529e-14
0.133229 	96.9205 	1.20555e-06 	1.29529e-14
0.133483 	96.9644 	1.42658e-06 	1.28611e-14
0.133738 	96.9887 	1.42658e-06 	1.28611e-14
0.133992 	97.013 	1.42658e-06 	1.28611e-14
0.134246 	97.0373 	1.42658e-06 	1.28611e-14
0.134501 	97.0616 	1.42658e-06 	1.28611e-14
0.134755 	97.086 	1.42658e-06 	1.28611e-14
0.135009 	97.1103 	1.42658e-06 	1.28611e-14
0.135263 	97.1346 	1.42658e-06 	1.28611e-14
0.135518 	97.1589 	1.42658e-06 	1.28611e-14
0.135772 	97.1832 	1.42658e-06 	1.28611e-14
0.136026 	97.2029 	1.62523e-06 	1.2799e-14
0.13628 	97.202 	1.62523e-06 	1.2799e-14
0.136535 	97.2011 	1.62523e-06 	1.2799e-14
0.136789 	97.2002 	1.62523e-06 	1.2799e-14
0.137043 	97.1992 	1.62523e-06 	1.2799e-14
0.137297 	97.1983 	1.62523e-06 	1.2799e-14
0.137552 	97.1974 	1.62523e-06 	1.2799e-14
0.137806 	97.1964 	1.62523e-06 	1.2799e-14
0.13806 	97.1955 	1.62523e-06 	1.2799e-14
0.138314 	97.1946 	1.62523e-06 	1.2799e-14
0.138569 	97.1916 	1.78169e-06 	1.26415e-14
0.138823 	97.1674 	1.78169e-06 	1.26415e-14
0.139077 	97.1433 	1.78169e-06 	1.26415e-14
0.139331 	97.1191 	1.78169e-06 	1.26415e-14
0.139586 	97.095 	1.78169e-06 	1.26415e-14
0.13984 	97.0708 	1.78169e-06 	1.26415e-14
0.140094 	97.0467 	1.78169e-06 	1.26415e-14
0.140348 	97.0226 	1.78169e-06 	1.26415e-14
0.140603 	96.9984 	1.78169e-06 	1.26415e-14
0.140857 	96.9743 	1.78169e-06 	1.26415e-14
0.141111 	96.9501 	9.6793e-07 	3.56334e-17
0.141365 	96.9049 	1.9071e-06 	1.25142e-14
0.14162 	96.8597 	1.9071e-06 	1.25142e-14
0.141874 	96.8145 	1.9071e-06 	1.25142e-14
0.142128 	96.7693 	1.9071e-06 	1.25142e-14
0.142382 	96.7241 	1.9071e-06 	1.25142e-14
0.142637 	96.6789 	1.9071e-06 	1.25142e-14
0.142891 	96.6337 	1.9071e-06 	1.25142e-14
0.143145 	96.5885 	1.9071e-06 	1.25142e-14
0.143399 	96.5433 	1.9071e-06 	1.25142e-14
0.143654 	96.4981 	1.9071e-06 	1.25142e-14
0.143908 	96.4357 	2.02438e-06 	1.23258e-14
0.144162 	96.3716 	2.02438e-06 	1.23258e-14
0.144416 	96.3075 	2.02438e-06 	1.23258e-14
0.144671 	96.2433 	2.02438e-06 	1.23258e-14
0.144925 	96.1792 	2.02438e-06 	1.23258e-14
0.145179 	96.1151 	2.02438e-06 	1.23258e-14
0.145433 	96.051 	2.02438e-06 	1.23258e-14
0.145688 	95.9869 	2.02438e-06 	1.23258e-14
0.145942 	95.9228 	2.02438e-06 	1.23258e-14
0.146196 	95.8587 	2.02438e-06 	1.23258e-14
0.14645 	95.7807 	2.13042e-06 	1.21208e-14
0.146705 	95.6997 	2.13042e-06 	1.21208e-14
0.146959 	95.6187 	2.13042e-06 	1.21208e-14
0.147213 	95.5378 	2.13042e-06 	1.21208e-14
0.147467 	95.4568 	2.13042e-06 	1.21208e-14
0.147722 	95.3758 	2.13042e-06 	1.21208e-14
0.147976 	95.2948 	2.13042e-06 	1.21209e-14
0.14823 	95.2138 	2.13042e-06 	1.21209e-14
0.148484 	95.1328 	2.13042e-06 	1.21209e-14
0.148739 	95.0518 	2.13042e-06 	1.21209e-14
0.148993 	94.9599 	2.23131e-06 	1.1966e-14
0.149247 	94.8639 	2.23131e-06 	1.1966e-14
0.149502 	94.768 	2.23131e-06 	1.1966e-14
0.149756 	94.672 	2.23131e-06 	1.1966e-14
0.15001 	94.576 	2.23131e-06 	1.1966e-14
0.150264 	94.48 	2.23131e-06 	1.1966e-14
0.150519 	94.3841 	2.23131e-06 	1.1966e-14
0.150773 	94.2881 	2.23131e-06 	1.19661e-14
0.151027 	94.1921 	2.23131e-06 	1.19661e-14
0.151281 	94.0961 	2.23131e-06 	1.19661e-14
0.151536 	93.9918 	2.32714e-06 	1.18022e-14
0.15179 	93.8826 	2.32714e-06 	1.18022e-14
0.152044 	93.7735 	2.32714e-06 	1.18022e-14
0.152298 	93.6644 	2.32714e-06 	1.18022e-14
0.152553 	93.5552 	2.32714e-06 	1.18022e-14
0.152807 	93.4461 	2.32714e-06 	1.18022e-14
0.153061 	93.3369 	2.32714e-06 	1.18023e-14
0.153315 	93.2278 	2.32714e-06 	1.18023e-14
0.15357 	93.1187 	2.32714e-06 	1.18023e-14
0.153824 	93.0095 	2.32714e-06 	1.18023e-14
0.154078 	92.8942 	2.41459e-06 	1.16321e-14
0.154332 	92.7737 	2.41459e-06 	1.16321e-14
0.154587 	92.6532 	2.41459e-06 	1.16321e-14
0.154841 	92.5327 	2.41459e-06 	1.16321e-14
0.155095 	92.4122 	2.41459e-06 	1.16322e-14
0.155349 	92.2917 	2.41459e-06 	1.16322e-14
0.155604 	92.1712 	2.41459e-06 	1.16322e-14
0.155858 	92.0507 	2.41459e-06 	1.16322e-14
0.156112 	91.9302 	2.41459e-06 	1.16322e-14
0.156366 	91.8097 	2.41459e-06 	1.16322e-14
0.156621 	91.6849 	2.49033e-06 	1.14555e-14
0.156875 	91.5549 	2.49033e-06 	1.14555e-14
0.157129 	91.4248 	2.49033e-06 	1.14555e-14
0.157383 	91.2948 	2.49033e-06 	1.14555e-14
0.157638 	91.1648 	2.49033e-06 	1.14555e-14
0.157892 	91.0348 	2.49033e-06 	1.14555e-14
0.158146 	90.9048 	2.49033e-06 	1.14555e-14
0.1584 	90.7748 	2.49033e-06 	1.14556e-14
0.158655 	90.6448 	2.49033e-06 	1.14556e-14
0.158909 	90.5148 	2.49033e-06 	1.14556e-14
0.159163 	90.382 	2.55217e-06 	1.13332e-14
0.159417 	90.2443 	2.55217e-06 	1.13332e-14
0.159672 	90.1067 	2.55217e-06 	1.13332e-14
0.159926 	89.969 	2.55217e-06 	1.13332e-14
0.16018 	89.8314 	2.55217e-06 	1.13332e-14
0.160434 	89.6938 	2.55217e-06 	1.13332e-14
0.160689 	89.5561 	2.55217e-06 	1.13332e-14
0.160943 	89.4185 	2.55217e-06 	1.13333e-14
0.161197 	89.2808 	2.55217e-06 	1.13333e-14
0.161451 	89.1432 	2.55217e-06 	1.13333e-14
0.161706 	89.004 	2.59943e-06 	1.1184e-14
0.16196 	88.8606 	2.59943e-06 	1.1184e-14
0.162214 	88.7172 	2.59943e-06 	1.1184e-14
0.162468 	88.5738 	2.59943e-06 	1.1184e-14
0.162723 	88.4304 	2.59943e-06 	1.1184e-14
0.162977 	88.287 	2.59943e-06 	1.1184e-14
0.163231 	88.1436 	2.59943e-06 	1.11841e-14
0.163485 	88.0002 	2.59943e-06 	1.11841e-14
0.16374 	87.8568 	2.59943e-06 	1.11841e-14
0.163994 	87.7134 	2.59943e-06 	1.11841e-14
0.164248 	87.5693 	2.63249e-06 	1.09898e-14
0.164503 	87.422 	2.63249e-06 	1.09898e-14
0.164757 	87.2746 	2.63249e-06 	1.09898e-14
0.165011 	87.1273 	2.63249e-06 	1.09898e-14
0.165265 	86.98 	2.63249e-06 	1.09898e-14
0.16552 	86.8326 	2.63249e-06 	1.09898e-14
0.165774 	86.6853 	2.63249e-06 	1.09898e-14
0.166028 	86.538 	2.63249e-06 	1.09898e-14
0.166282 	86.3906 	2.63249e-06 	1.09898e-14
0.166537 	86.2433 	2.63249e-06 	1.09898e-14
0.166791 	86.0957 	2.65222e-06 	1.07984e-14
0.167045 	85.9462 	2.65222e-06 	1.07984e-14
0.167299 	85.7966 	2.65222e-06 	1.07984e-14
0.167554 	85.647 	2.65222e-06 	1.07984e-14
0.167808 	85.4974 	2.65222e-06 	1.07984e-14
0.168062 	85.3478 	2.65222e-06 	1.07984e-14
0.168316 	85.1982 	2.65222e-06 	1.07984e-14
0.168571 	85.0486 	2.65222e-06 	1.07984e-14
0.168825 	84.899 	2.65222e-06 	1.07984e-14
0.169079 	84.7494 	2.65222e-06 	1.07985e-14
0.169333 	84.5998 	2.01285e-06 	2.08333e-17
0.169588 	84.4495 	2.6594e-06 	1.06598e-14