/*--------------------------------*- C++ -*----------------------------------*\
| =========                 |                                                 |
| \\      /  F ield         | OpenFOAM: The Open Source CFD Toolbox           |
|  \\    /   O peration     | Version:  v3.0+                                 |
|   \\  /    A nd           | Web:      www.OpenFOAM.com                      |
|    \\/     M anipulation  |                                                 |
\*---------------------------------------------------------------------------*/
FoamFile
{
    version     2.0;
    format      ascii;
    class       volScalarField;
    location    "11000";
    object      sigmaxy;
}
// * * * * * * * * * * * * * * * * * * * * * * * * * * * * * * * * * * * * * //

dimensions      [1 -1 -2 0 0 0 0];

internalField   nonuniform List<scalar> 
27023
(
-1.63492e+07
-1.6352e+07
-1.20758e+07
-1.2074e+07
-1.5577e+07
-1.55798e+07
-1.52626e+07
-1.52604e+07
-6.07752e+06
-6.07717e+06
-1.49362e+07
-1.49323e+07
-1.41582e+06
-1.42335e+06
-2.56433e+06
1.18797e+07
1.13563e+07
-2.58252e+06
-2.58326e+06
-2.03768e+06
-2.0371e+06
-1.37293e+07
-1.37272e+07
-1.35409e+06
-1.3519e+06
-277954
4.06324e+06
-1.40638e+06
3.7386e+06
-3.1523e+06
-667450
-2.50713e+06
-2.50727e+06
-2.16115e+06
-1.63669e+06
-1.85664e+06
-1.06881e+06
-1.06754e+06
-6.0637e+06
-6.06425e+06
-1.20926e+07
-1.20944e+07
-1.99378e+06
-1.57793e+07
-1.5782e+07
-2.50078e+06
-2.5001e+06
-1.62664e+06
-1.62609e+06
-2.7163e+06
-757592
-756996
-2.37861e+06
-88833.1
-88589.4
-2.19584e+06
-1.78396e+06
-1.6005e+06
-3.01938e+06
-1.24854e+07
-1.24837e+07
-1.66022e+06
-2.04348e+06
-850539
-3.25876e+06
-267990
-1.80492e+06
141096
4.24522e+06
-2.9196e+06
-1.45205e+06
-1.45064e+06
-4.43146e+06
-4.4292e+06
-1.55467e+06
-1.5546e+06
-363398
-361080
-6.22774e+06
-6.22816e+06
1.60566e+06
-1.41608e+07
-1.41569e+07
-4.89941e+06
-4.89723e+06
-793006
-792978
-1.80599e+06
-3.08773e+06
-2.95031e+06
-2.82696e+06
-1.59916e+07
-1.59886e+07
8.83629e+06
-2.23194e+06
-400482
-398861
2.20474e+06
-3.27383e+06
-3.55769e+06
-1.90462e+06
-151653
-46974
-9.5101e+06
-9.50681e+06
-2.10648e+06
-9.72582e+06
-9.72364e+06
-2.31826e+06
-1.9077e+06
-3.69483e+06
-1.01798e+07
-1.01776e+07
-377590
-375985
-903363
-903260
3.05972e+06
545421
-1.24484e+06
-2.08436e+06
-1.46621e+06
-3.09101e+07
-3.09134e+07
-1.46674e+07
-1.46663e+07
-1.54309e+07
-1.54278e+07
-1.02744e+07
-1.02708e+07
-1.75484e+06
-1.59391e+06
-1.5876e+06
-1.15107e+06
-2.58451e+06
73639.6
73629.9
3.90439e+06
-2.95222e+06
-2.95144e+06
-1.69128e+07
-1.69163e+07
3.78027e+06
-1.4909e+07
-1.49063e+07
-550541
-2.15297e+06
242821
-2.57591e+06
-2.4292e+07
-2.42891e+07
-2.06494e+07
-2.06468e+07
-3.17772e+06
-847713
-639367
-626049
-2.04078e+06
-3.04438e+06
-3.04359e+06
-1.84609e+06
-2.96854e+06
-1.43488e+06
-3.33479e+06
-2.17858e+07
-2.17861e+07
-1.5198e+07
-1.52023e+07
2.69438e+06
2.90862e+06
-4.06484e+06
-7.75609e+06
-7.75653e+06
-3.12342e+06
-2.84656e+06
-2.63123e+06
-2.07781e+06
3.52895e+06
-3.31066e+06
4.85729e+06
-2.58093e+06
-1.57706e+07
-1.57741e+07
-2.15693e+06
-2.15685e+06
-1.72083e+06
-382623
-380050
-1.59703e+06
-3.18831e+06
-1.66021e+07
-1.66066e+07
3.45963e+06
-2.77273e+06
-1.48861e+07
-1.48849e+07
-591564
-1.73386e+07
-1.73431e+07
933137
-2.66239e+06
3.84395e+06
-1.01348e+06
-1.01329e+06
-1.48418e+07
-1.48445e+07
101397
-1.91059e+06
-382862
-382671
-192714
-191799
9.91754e+06
-703313
-5.82348e+06
-5.81873e+06
3.02951e+06
3.67222e+06
-3.76048e+06
-3.26131e+06
-3.26159e+06
-1.51733e+06
-3.0035e+07
-3.00381e+07
-1.48157e+06
-4.49418e+06
-4.49351e+06
-5.03271e+06
-5.02982e+06
-2.91891e+06
-2.92054e+06
-2.87715e+06
-3.53634e+06
-3.53575e+06
-1.66364e+06
-2.54313e+06
-2.54287e+06
-209633
-2.08931e+06
-1.75167e+07
-1.75183e+07
3.28246e+06
-2.06428e+06
-2.13979e+06
-2.65092e+06
8.6947e+06
-3.97499e+06
5.4736e+06
-822677
-2.11533e+06
-7.71256e+06
-7.71367e+06
-3.01078e+06
8.16932e+06
-333017
-1.13208e+06
-1.54383e+06
-577354
-2.84229e+06
-2.84265e+06
4.06575e+06
6.50175e+06
561852
-1.8317e+06
-1.83142e+06
-1.46852e+07
-1.46827e+07
-1.73628e+06
8.82031e+06
-2.71101e+07
-2.71078e+07
-1.14898e+06
-1.82817e+06
-1.62936e+06
-1.87799e+06
-2.62364e+06
-2.10353e+07
-2.10354e+07
-2.0511e+06
-2.0519e+06
-2.69879e+06
-2.18473e+06
-3.26266e+06
-3.12988e+06
-74252.7
-73590.2
-2.37613e+06
-2.02941e+06
1.17063e+07
-4.56079e+06
-1.53436e+06
-3.04e+06
-5.38328e+06
-5.38424e+06
-1.13931e+06
-1.13935e+06
-2.19582e+06
-2.13477e+06
-1.00022e+06
-1.00027e+06
-1.71997e+06
1.11098e+07
-1.30322e+07
-1.30361e+07
-369242
-7.41232e+06
-7.40939e+06
2.60049e+06
-2.68353e+06
-3.91295e+06
-1.95772e+06
24119.3
23111.3
-2.54867e+06
-2.55058e+06
-2.61395e+06
-2.41889e+06
-2.42042e+06
281201
-2.95072e+06
-2.47223e+06
-2.48262e+06
2.47867e+06
6.01523e+06
1.5104e+06
-3.07693e+06
-412519
-2.47357e+06
1.78044e+06
-3.54482e+06
6.03299e+06
-3.45766e+06
-887044
-2.19011e+06
-1.75867e+06
-2.30274e+07
-2.30302e+07
-820757
1.05102e+07
-7.7713e+06
-7.76861e+06
-680733
-658979
-180900
-180041
5.16294e+06
-1.85031e+07
-1.85002e+07
-1.15618e+06
-1.54797e+06
-2.62901e+06
-2.64769e+06
-3.86339e+06
-3.86284e+06
-6491.57
-6417.75
1.28188e+07
-6.7464e+06
-6.7471e+06
-2.20227e+06
-97315.9
-581543
-581677
-2.27837e+07
-2.27875e+07
-3.41609e+06
-2.83817e+06
1.09357e+07
-1.86061e+07
-1.86088e+07
-6.15843e+06
-6.15889e+06
9.63136e+06
-2.33839e+06
1.76456e+06
-1.84772e+06
-1.91675e+06
1.53947e+06
-586395
-813052
-1.95651e+06
-814470
-1.38331e+07
-1.38311e+07
5.12115e+06
2.78855e+06
-2.05819e+06
-2.45308e+06
-739780
4.22176e+06
6.45902e+06
-2.61442e+06
-126343
-3.85167e+06
1.18204e+07
-3.39017e+06
-1.84152e+06
-1.72248e+06
-688263
-1.69214e+06
-5.57874e+06
-5.57589e+06
8.12701e+06
3.42211e+06
-1.55821e+06
-1.82788e+07
-1.82813e+07
1.56154e+06
-2.51775e+06
376509
-184479
574523
-415994
-414277
-3.53004e+06
-1.70415e+06
-4.81948e+06
-2.3014e+06
-1.72929e+06
-1.76551e+06
4.35525e+06
-1.20233e+06
4.75688e+06
3.55411e+06
-1.54266e+06
-920464
-1.35715e+06
-1.35727e+06
-225282
-3.52741e+06
-1.75091e+06
3.07161e+06
-1.35266e+06
-1.3525e+06
-3.5017e+06
-3.50336e+06
-1.52614e+06
4.26443e+06
-7.85928e+06
-7.85982e+06
-70075.2
-72646.4
-2.79765e+06
-2.79631e+06
-219317
-220359
4.01145e+06
-2.69272e+06
-2.46846e+06
1.06743e+07
9.044e+06
-2.05706e+07
-2.05747e+07
-2.11099e+07
-2.11139e+07
-1.8936e+06
-1.89211e+06
-2.47984e+07
-2.47952e+07
5.16931e+06
4.24649e+06
-1.07225e+06
-2.71734e+06
5.45749e+06
-178222
-2.57775e+06
-1.56593e+07
-1.56608e+07
-1.45616e+06
-1.64355e+06
-3.1211e+06
-1.88544e+06
-2.08677e+06
2.70637e+06
-358166
-5.47086e+06
-5.46962e+06
-356781
-693734
-1.0261e+07
-1.02588e+07
-4.29493e+06
-4.29434e+06
-1.17909e+06
6.26802e+06
-46505.9
4.65383e+06
173124
-3.22747e+06
-1.71227e+07
-1.71256e+07
-2.40026e+06
-4.71127e+06
-705816
-1.72384e+06
-1.72553e+06
-1.9921e+07
-1.99181e+07
6.47953e+06
-418679
-2.76573e+06
-1.0422e+07
-1.0425e+07
-2.38725e+06
1.11479e+07
-568165
-571191
2.05358e+06
-2.56303e+07
-2.5627e+07
-1.53435e+07
-1.53394e+07
-47420
-2.91178e+07
-2.91197e+07
-1.95787e+06
-1.51546e+06
-1.6501e+06
-1.64983e+06
-2.366e+06
-1.62105e+06
-1.6211e+06
-992153
-6.30721e+06
-6.30881e+06
-2.73934e+06
-2.74072e+06
-908770
-3.22864e+07
-3.22837e+07
-1.83079e+06
-2.22215e+06
-1.24829e+06
2.62636e+06
-3.68702e+06
-3.68277e+06
-7.22924e+06
-7.22997e+06
-2.6535e+06
-2.20176e+06
1.5724e+06
-1.46375e+06
1.27348e+06
2.72518e+06
-3.38175e+06
-7.66079e+06
-7.66025e+06
-1.06694e+06
-422290
-422372
-2.98475e+06
-599630
-7.15435e+06
-7.15702e+06
-1.06708e+06
-1.5622e+06
-1.58021e+06
1.41827e+06
5.08133e+06
-2.21711e+06
4.11415e+06
-2.84895e+06
-587683
-589923
-2.0291e+06
1.23949e+07
-3.28786e+06
-3.28702e+06
-2.76104e+06
-2.63968e+06
-2.63781e+06
-1.87913e+06
-2.3087e+07
-2.3084e+07
-1.67619e+07
-1.67665e+07
-2.68001e+07
-2.68031e+07
-1.38808e+06
2.32432e+06
2.28029e+06
-2.61122e+06
-2.52437e+07
-2.52467e+07
-1.84634e+06
8.82928e+06
1.89815e+06
-2.5604e+06
1.19925e+07
-1.86779e+06
1.06911e+07
-174862
-468937
-466736
-3.25728e+06
-278066
-274601
-3.21221e+06
-4.09289e+06
-4.09518e+06
-1.84868e+06
-3.259e+06
-1.84802e+06
-1.84709e+06
-1.62879e+06
-1.62856e+06
-988236
4.3791e+06
3.06389e+06
-4.56681e+06
-4.56558e+06
-2.82011e+06
-2.81974e+06
-3.45997e+06
-3.06933e+06
-823293
-896175
269964
269831
96588.2
-12127.2
-130330
-130944
-12184.3
-2.18181e+06
-1.29093e+06
-1.29661e+06
-2.20191e+07
-2.20219e+07
-1.56473e+07
-1.56502e+07
-2.36855e+07
-2.36826e+07
7.8361e+06
-3.12651e+06
-3.12376e+06
-1.95066e+06
-4.15002e+06
-2.80698e+06
-2.80972e+06
-2.29662e+06
-3.77337e+06
-3.77197e+06
-1.80784e+06
-1.98092e+06
-1.08178e+06
-2.58731e+07
-2.58761e+07
-2.40609e+06
-3.23395e+06
3.47563e+06
-3.91232e+06
-5.90383e+06
-5.90547e+06
1.19402e+07
750719
-5.8795e+06
-5.88011e+06
-246791
-247943
-2.80151e+06
-2.79984e+06
-2.02084e+06
-1.62594e+06
-956719
-956646
1.78515e+06
-597197
6.92137e+06
-87231.8
-1.17135e+06
-2.69957e+06
-2.16888e+06
-1.772e+06
3.39859e+06
-2.2551e+06
-1.98764e+06
-1.7047e+06
-1.3441e+06
5.76102e+06
-3.19439e+06
-109242
-110115
-4.16265e+06
-4.16046e+06
1.34655e+06
1.02013e+06
-2.53976e+06
-1.3544e+06
-253149
-1.50333e+06
210340
-1.81838e+06
-177798
248582
4.35293e+06
-1.31836e+07
-1.31803e+07
2.6287e+06
-1.57841e+06
-3.03399e+06
-3.19413e+06
-5.93405e+06
-5.93291e+06
-395165
-395256
-11541.5
-11610.7
-1.72003e+06
1.01816e+07
-1.5944e+06
5.53801e+06
344608
343385
-1.88703e+06
-6.0816e+06
-6.0828e+06
-2.26377e+06
-2.26407e+06
-1.2306e+06
-5.42813e+06
-5.42637e+06
9.65664e+06
-1.71596e+06
-2.2162e+06
-3.4445e+06
-2.51114e+06
-2.26098e+06
-2.43463e+06
-2.43438e+06
-1.99067e+06
1.42945e+06
-2.13657e+07
-2.13621e+07
-1.57013e+06
-730381
5.59917e+06
-724310
-2.1511e+06
-2.10888e+06
-2.15043e+06
2.80461e+06
-2.56986e+06
1.14189e+07
-2.53561e+06
2.83471e+06
-301827
-133764
-8.84662e+06
-8.84325e+06
-738709
-738761
-3.12797e+06
-2.06201e+06
-5.61772e+06
-5.61915e+06
-1.94555e+06
-1.57663e+06
-3.23155e+06
-1.34471e+06
-2.91077e+06
-1.84723e+07
-1.84693e+07
-2.4805e+06
-561109
-561068
-1.11848e+06
-1.11862e+06
-1.21477e+06
-2.88808e+06
-2.84536e+06
-315458
-1.53529e+07
-1.53511e+07
-2.48742e+06
6.14418e+06
-3.30077e+06
-1.79731e+06
-1.83976e+06
4.82511e+06
4.94504e+06
5.42752e+06
-2.78655e+06
-1.73199e+06
-1.73187e+06
-1.78625e+07
-1.7859e+07
-2.74532e+06
-2.66668e+06
-764756
8.80905e+06
-2.24067e+06
-2.24048e+06
-1.96684e+06
-2.25174e+06
-1.56542e+06
-1.5257e+06
-1.59193e+06
-3.45311e+06
-3.45346e+06
-1.8345e+06
-1.67751e+06
-1.59556e+07
-1.59529e+07
3.06028e+06
-3.62662e+06
5.59829e+06
-4.52904e+06
-4.5288e+06
-7.754e+06
-7.75424e+06
2.89958e+06
-1.31141e+07
-1.31172e+07
-1.78984e+06
-2.2203e+06
-3.63578e+06
-3.91973e+06
-2.26109e+06
-2.26086e+06
-3.66216e+06
-2.32361e+06
-2.32585e+06
-189221
-189153
3.45563e+06
3.30037e+06
-2.60011e+07
-2.5998e+07
-1.8749e+07
-1.87525e+07
-497383
-1.31542e+06
-1.79809e+07
-1.7978e+07
-1.44449e+06
3.13596e+06
-2.09473e+07
-2.09441e+07
-1.95139e+06
-1.95114e+06
-5.9418e+06
-6.31049e+06
-6.31189e+06
-64325.1
-64332.4
-5.94441e+06
-2.89301e+06
-1.82496e+06
-2.14934e+06
-2.52228e+06
-2.52161e+06
-552280
4.02174e+06
-2.8886e+06
-546755
1.4305e+06
1.69097e+06
-2.96853e+06
177771
177725
4.12245e+06
3.91825e+06
-1.7244e+06
-5836.73
-10438.6
-3.41198e+06
450983
-136014
-136298
4.83861e+06
3.75202e+06
-3.33437e+06
-1.60064e+07
-1.60037e+07
-5.12117e+06
-1.33577e+06
-5.62278e+06
-1.2478e+06
-2.71062e+07
-2.71031e+07
-1.71927e+06
5.53522e+06
-5.08167e+06
-2.88173e+06
-2.8174e+06
-5.62416e+06
-2.10787e+06
-2.03058e+07
-2.03028e+07
-1.30988e+06
-1.3101e+06
-1.58619e+06
2.39241e+06
-1.82602e+06
-1.62472e+07
-1.6243e+07
-3.85712e+06
-3.85806e+06
1.01115e+07
-1.49888e+06
-2.97439e+06
-2.97373e+06
-2.74928e+06
-6.22943e+06
-6.23013e+06
-2.5997e+06
-4.06283e+06
-687213
-2.66481e+06
-2.5706e+06
-1.98079e+06
-1.6958e+06
-1.79904e+06
-1.93973e+06
-2.8446e+06
-2.84431e+06
-3.58519e+06
8.56351e+06
-522028
-2.03897e+06
-3.67113e+06
1.21881e+07
2.39925e+06
-3.25852e+06
-3.53445e+06
1.07484e+07
5.12384e+06
5.52481e+06
1.90933e+06
231719
-3.38744e+06
-2.36576e+06
-8.0207e+06
-8.02024e+06
5.35465e+06
-5.95864e+06
-5.95456e+06
-2.49813e+06
-341609
-3.22538e+06
-3.22091e+06
2.75991e+06
-4.77184e+06
-4.77079e+06
6.5183e+06
-2.65334e+06
-4.07814e+06
-6.03545e+06
58460.2
6.10444e+06
401573
2.0789e+06
-3.33345e+06
-2.03273e+06
-1.76733e+07
-1.76705e+07
-2.15375e+06
4.99407e+06
-1.01774e+06
-1.01928e+06
-1.64072e+06
-2.57411e+06
-1.07454e+06
-2.3564e+06
-1.89955e+06
-1.89407e+06
-1.56927e+06
1.5259e+06
-2.9283e+06
-285727
-285169
-461376
-2.04228e+06
1.01945e+07
-2.02769e+06
7.64087e+06
-2.32765e+06
5.6351e+06
-2.95895e+06
-1.34483e+06
-1.3425e+06
-2.10711e+06
-1.44379e+06
8.21934e+06
8.1927e+06
-2.97899e+06
-1.61468e+07
-1.61478e+07
4.4833e+06
-1.44312e+06
-1.9264e+06
-8.3571e+06
-8.35671e+06
-3.28619e+06
1.06935e+07
-3.39594e+06
-4.86573e+06
-4.86668e+06
-633429
1.38639e+06
1.37449e+06
-1.62054e+07
-1.62073e+07
-2.81359e+06
-2.50813e+06
-363631
-363308
2.9675e+06
-1.54926e+06
-3.1436e+06
-1.74192e+06
-1.74164e+06
-3.25803e+06
-2.61974e+07
-2.61947e+07
-3.99658e+06
-3.19886e+06
-759023
-1.16719e+07
2.51142e+06
-3.26434e+06
-1.16747e+07
-588068
413803
-1.35998e+06
-1.75067e+06
-1.75282e+06
1.51905e+06
1.41883e+06
-1.36733e+06
3.68993e+06
-2.60333e+06
-2.10107e+06
-3.5049e+06
-2.51278e+06
2.63339e+06
-2.90896e+06
-3.06736e+06
1.02384e+07
1.485e+06
7.59309e+06
-79000
-1.40441e+06
-1.16358e+06
-1.44626e+06
8.7788e+06
-1.82893e+06
-1.95127e+06
-3.2097e+07
-3.20997e+07
1.08251e+07
-4.04462e+06
-1.24537e+06
-1.23935e+06
-3.71434e+06
-3.71347e+06
-666784
-2.59616e+06
-1.15451e+06
-4.02212e+06
-4.02377e+06
-2.07652e+06
-2.07638e+06
-3.07409e+06
9.74695e+06
-3.14816e+06
9.84609e+06
-1.92464e+06
1.27502e+07
4.26854e+06
5.36399e+06
-1.2448e+06
-2.29594e+06
-2.29308e+06
2.98726e+06
3.06757e+06
5.98056e+06
-1.69565e+06
-1.16386e+06
-1.16372e+06
1.048e+07
1.76403e+06
5.03623e+06
-2.30718e+06
-1.38626e+06
-3.13838e+06
-888306
-1.77843e+06
-1.81159e+06
-2.34264e+06
-3.45503e+06
-1.66107e+06
-3.61735e+06
-3.61443e+06
-2.09145e+06
4.64003e+06
-3.49566e+06
-1.61554e+06
-1.12235e+06
-38632.5
-39218.5
5.50388e+06
111935
-5.04209e+06
-5.04211e+06
-6.60214e+06
-6.60281e+06
9.31455e+06
-3.7177e+06
-3.41966e+06
-20817.3
-2.2199e+07
-2.22027e+07
-7.5218e+06
-7.52067e+06
9.33004e+06
-2.18022e+06
-2.17992e+06
-1.09377e+06
-804248
-375718
-158864
-158062
6.10085e+06
7.60771e+06
827395
-1.99189e+06
-1.38325e+07
-1.38366e+07
5.01364e+06
-2.14292e+06
-2.4523e+06
-2.93468e+06
-2.9899e+06
-769856
3.06879e+06
3.07673e+06
-2.40216e+06
-2.40244e+06
-210230
1.14561e+06
1.14164e+06
-4.79781e+06
-4.79869e+06
155043
-2.36625e+06
-1.50863e+06
-2.46379e+06
-9.69967e+06
-9.70002e+06
4.0149e+06
8.58847e+06
-550592
-2.97736e+06
-1.88468e+07
-1.88495e+07
-1.80682e+06
-957323
-416531
-4.37563e+06
-4.37483e+06
-2.27562e+06
1.85354e+06
-2.69091e+06
-4.12592e+06
-2.25592e+07
-2.2556e+07
-2.87082e+06
-3.60349e+06
-3.602e+06
-2.69856e+06
-855640
-712952
-489680
4.32344e+06
-2.32998e+06
-3.07156e+06
-1.86898e+06
-1.64634e+06
5.9265e+06
3.80446e+06
-129604
-129147
-851952
-6.9012e+06
-6.90153e+06
-1.7194e+07
-1.71897e+07
-2.77564e+06
-2.10347e+07
-2.10308e+07
-2.69368e+07
-2.69383e+07
-24308.2
-24311.3
-2.07165e+06
-1.10324e+06
-1.10308e+06
-1.85902e+06
-1.94419e+06
-1.73094e+06
-1.43961e+06
-3.08206e+06
-3.61812e+06
-1.47002e+06
-1.46099e+06
-8.86635e+06
-8.87089e+06
-1.40384e+06
-1.28499e+06
6.01672e+06
-1.02711e+06
-2.02436e+06
-1.74608e+06
-2.14741e+06
1.15497e+07
-1.99232e+06
-3.96197e+06
-3.96307e+06
-1.12073e+06
2.87813e+06
-1.19944e+06
-1.52565e+06
4.22908e+06
6.83569e+06
158226
157867
3.67394e+06
-1.61032e+06
1.23294e+06
1.15834e+06
-2.22748e+06
-2.13515e+06
196303
-764959
-767907
-2.45341e+06
5.24698e+06
70693.1
-9.34054e+06
326091
199763
-9.34524e+06
-2.29747e+06
-1.84549e+06
1.75947e+06
-2.00762e+06
4.26762e+06
-2.43991e+06
-2.51577e+06
-2.79143e+06
-3.35602e+06
-2.69085e+06
-1.42098e+06
69107.8
-2.0693e+06
-2.17282e+06
-2.17265e+06
-1.51736e+06
1.07671e+07
3.4311e+06
5.88408e+06
-1.39994e+06
-7.71636e+06
234205
829084
-2.00398e+06
-2.28785e+06
-7.72524e+06
-3.53966e+06
-2.74646e+06
-2.27922e+06
-3.43208e+06
-96941.5
-247259
-2.2619e+06
-274444
-272518
-1.34044e+06
-1.57882e+07
-1.57908e+07
4.28914e+06
-1.36439e+07
-1.36388e+07
1.13022e+07
-1.76215e+07
-1.76186e+07
-1.66328e+06
-551109
-1.45582e+06
273620
273745
-3.83411e+06
-1.75092e+06
-737656
-1.92271e+06
-1.61494e+07
-1.61448e+07
-5.93437e+06
3.63613e+06
4.98621e+06
-1.79262e+06
-1.76728e+06
-1.75699e+06
-35393.7
-35315.8
4.52456e+06
-2.11444e+06
-2.64983e+07
-2.64952e+07
-6.75199e+06
-6.74973e+06
-1.04024e+06
-1.72698e+06
-1.04583e+06
-6.93823e+06
-6.93481e+06
-3.2577e+06
-238822
-238301
-2.14645e+06
-2.14498e+06
-6.66905e+06
-6.67072e+06
-874949
-1.76734e+06
-1.76707e+06
-1.57776e+07
-1.57791e+07
-2.78987e+06
-2.90085e+06
-3924.97
-809381
5.05174e+06
3.97336e+06
-815053
2.53859e+06
1.43184e+06
-2.58456e+06
-2.74828e+06
-2.39058e+06
-2.08739e+06
-2.08723e+06
1.52515e+06
-2.74866e+07
-2.74882e+07
-9.11055e+06
-9.10876e+06
4.13939e+06
-3.35553e+06
-3.35744e+06
-1.09808e+06
-1.09198e+06
-1.82181e+06
-940542
-922031
-3.26631e+06
-406990
-407021
-2.49351e+06
-1.41238e+06
-1.87162e+06
1.11292e+07
2.68604e+06
2.77157e+06
-2.06864e+06
-1.78276e+06
5.27307e+06
-2.98628e+06
14783.6
14760.4
-9.25208e+06
-9.2532e+06
-2.11856e+06
-1.71668e+06
-2.36634e+07
-2.36599e+07
-2.1221e+06
383669
-3.26329e+06
785102
503812
3.76855e+06
3.80965e+06
-1.42747e+06
-3.47595e+06
-2.04483e+07
-2.04516e+07
-1.74381e+06
-1.745e+06
-2.86702e+06
-2.86767e+06
-1.37766e+06
-1.37231e+06
-2.73808e+06
-1.61221e+06
-2.05285e+06
-2.80348e+06
381718
1.01175e+07
-2.19418e+06
-2.19588e+06
-2.5229e+06
-1.94828e+06
-2.13821e+06
-1.05627e+07
-1.05654e+07
6.65891e+06
-2.94622e+06
-1.02299e+06
-3.71823e+06
-3.71691e+06
1.87233e+06
1.21991e+07
-2.61664e+06
-2.61726e+06
7.41242e+06
-3.60317e+06
-3.60579e+06
-1.71417e+06
-763296
2.8024e+06
-1.23768e+06
-1.45617e+06
-1.43031e+06
-570366
-261546
-1.90137e+07
-1.90111e+07
-2.63173e+06
-1.99335e+07
-1.99311e+07
4.05957e+06
-4.83096e+06
-4.82932e+06
-1.8459e+07
-1.84619e+07
-2.21544e+06
-6.50927e+06
-6.51565e+06
-2.52313e+06
-2.52351e+06
-939999
3.56992e+06
-1.46104e+06
-2.2857e+07
-2.28543e+07
-1.56913e+06
-1.85766e+06
1.18369e+06
1.19086e+06
-3.31321e+06
-2.99568e+07
-2.9953e+07
4.40177e+06
-2.59946e+06
-1.56086e+06
-1.56079e+06
-275521
-273672
-5.39735e+06
-6.97599e+06
-6.97377e+06
-1.23119e+06
-779066
-775155
-4.1544e+06
-4.15544e+06
8.52875e+06
-74429.1
-2.89466e+07
-2.89431e+07
-1.17654e+07
-1.17666e+07
3.10831e+06
7.77072e+06
-7.19412e+06
-7.1934e+06
-1.62398e+06
-110090
-109495
-1.14398e+06
-1.144e+06
6.20868e+06
-1.03497e+07
-1.03491e+07
-1.53089e+06
-5.96856e+06
-5.97035e+06
1.57951e+06
1.07493e+07
-3.06358e+06
-3.06407e+06
-2.16417e+07
-2.16456e+07
-1.04934e+06
1.04115e+07
-1.12761e+06
7.54313e+06
-2.04349e+06
2.25612e+06
6.06654e+06
4.43435e+06
-3.15355e+06
-3.20229e+06
-3.17219e+06
-3.17295e+06
-1.52356e+06
-1.52334e+06
-1.8364e+06
-2.63675e+06
-3.61411e+06
1.23018e+07
-578927
-2.57464e+06
-1.59986e+06
-1.23406e+06
-2.39128e+06
-2.64041e+06
-2.6388e+06
-2.15967e+07
-2.15994e+07
4.12546e+06
-3.19791e+06
-75239.6
8.41267e+06
9.88673e+06
-1.65408e+06
2.13517e+06
-1.21835e+06
-1.68583e+06
-1.68175e+06
6.5208e+06
-975684
-975145
152090
-2.88304e+07
-2.8834e+07
-1.49331e+07
-1.4937e+07
8.9346e+06
-4.43806e+06
-4.44028e+06
-9.67647e+06
-9.67589e+06
-6.78822e+06
-6.78486e+06
-2.62774e+07
-2.62744e+07
-1.32661e+06
865256
-1.5542e+06
-2.30245e+06
-1.82768e+07
-1.82791e+07
-4.71783e+06
-4.72021e+06
-1.30116e+06
-1.25059e+06
1.58556e+06
-1.0204e+06
-1.02028e+06
-2.66285e+06
-2.37323e+06
-2.19093e+06
4.10648e+06
-2.49006e+06
-2.74013e+06
-1.64157e+06
860555
851865
-2.93839e+06
-3.0872e+06
-3.02503e+06
-1.77587e+06
-1.77865e+06
-616417
-1.92792e+06
4.8089e+06
-2.03053e+06
-1.77116e+06
-1.44758e+06
-2.1699e+06
-1.26574e+07
-1.26555e+07
-3.82686e+06
-3.82604e+06
-1.9654e+07
-1.96514e+07
-2.02275e+06
-3.42493e+06
-923593
6.82461e+06
3.29903e+06
-1.30996e+06
-1.52129e+06
-3.43237e+06
369723
-55411.6
-56110.9
-2.85282e+06
-2.85475e+06
-1.56223e+06
6.07084e+06
-2.76323e+06
-2.76525e+06
-2.83663e+07
-2.8363e+07
-822215
-822143
295497
-1.04843e+06
-1.00668e+06
1.46528e+06
1.47501e+06
1.24872e+06
-1.84716e+06
-1.84744e+06
-2.64812e+06
-2.04698e+06
-1.36908e+07
-1.36893e+07
-817311
-911687
-2.01261e+06
-3.48983e+06
-2.7911e+06
-1.80655e+06
3.56975e+06
3.60353e+06
-2.37045e+07
-2.37022e+07
-2.18552e+06
-3.61765e+06
-3.61699e+06
-1.64778e+07
-1.64745e+07
-209572
2.20266e+06
2.25125e+06
-1.34477e+07
-1.34512e+07
2.70597e+06
-1.6639e+06
816116
-697761
-699374
-7.12099e+06
-7.12019e+06
1.26115e+07
598158
-2.58664e+06
-2.5885e+06
-1.38521e+06
-2.31411e+06
-1.07346e+07
-1.0736e+07
-2.82207e+06
-1.20266e+06
-1.35481e+06
-3.19425e+06
-6.90077e+06
-5.07372e+06
-5.07576e+06
5.27674e+06
-5.5348e+06
-5.53291e+06
1.09797e+07
286696
-6.90375e+06
-2.29424e+06
-2.29571e+06
-1.49304e+06
-46792.8
3.00116e+06
-3.72686e+06
-3.72639e+06
4.61294e+06
-2.86816e+06
-2.23482e+06
-2.23416e+06
-533593
-1.90743e+06
-1.86872e+06
-5.39911e+06
-2.38778e+06
-2.35907e+06
-2.23778e+06
-2.23644e+06
1.03018e+07
-698026
-1.85283e+06
-1.52287e+06
-2.24961e+06
2.08636e+06
-465559
-3.4128e+06
5.56522e+06
-1.58519e+06
-995003
-2.5595e+07
-2.55929e+07
-6.63716e+06
-2.0392e+06
-2.04093e+06
-1.21719e+07
-1.21667e+07
-495630
-1.56613e+07
-1.56661e+07
-1.59112e+06
112163
-3.34174e+06
-468754
-467928
5.51253e+06
-3.57072e+06
-3.57177e+06
763794
-2.28942e+06
1.38234e+06
1.16893e+07
-1.83562e+06
-3.12203e+06
-5.9953e+06
-6.00303e+06
-2.31909e+07
-2.3188e+07
-2.43012e+06
-3.6431e+06
-3.91269e+06
-7.67599e+06
-7.67985e+06
-3.52451e+06
-4.76396e+06
-4.76412e+06
-1.36858e+06
-2.00023e+06
-2.00037e+06
-2.88229e+06
2.1841e+06
-2.74687e+06
-2.49682e+06
-2.50877e+06
-1.33862e+06
-1.33553e+06
-34816.6
-3.11731e+06
-2.26534e+06
-2.12896e+06
-2.45177e+06
-2.61258e+06
-2.43189e+06
-2.78675e+06
-1.57237e+06
1.02218e+07
-1.37903e+06
-1.37185e+06
4.99877e+06
-1.24131e+07
-1.24111e+07
-1.3506e+06
-1.33739e+06
-1.41228e+06
52305.4
-1.50155e+06
795736
3.74526e+06
4.0119e+06
-520657
-2.08973e+06
-2.16307e+06
3.82114e+06
-2.52418e+06
-3.64071e+06
-2.63061e+06
-2.72125e+06
-2.72019e+06
41040.9
42497.6
-90056.1
-55915.6
7.67207e+06
-2.03989e+06
-2.04179e+06
-3.16282e+06
-2.32133e+06
-1.23739e+06
-5.7135e+06
-5.71558e+06
1.09853e+06
-2.59214e+06
-1.91894e+06
-2.97478e+06
-963696
7027.74
6980.43
-1.35108e+06
-4.19701e+06
-1.91075e+06
1.59825e+06
-2.26783e+06
-9.44274e+06
-9.44204e+06
-4.29152e+06
-4.29492e+06
5.55413e+06
-1.33712e+06
-1.50191e+06
-1.50171e+06
-2.4459e+06
-2.44877e+06
-1.98914e+06
8.42801e+06
-2.97691e+06
-2.07746e+06
-3.45579e+06
-3.05127e+06
-1.65578e+06
-1.4846e+06
-1.60475e+06
-2.66439e+07
-2.66469e+07
-2.39066e+06
-1.78281e+07
-1.78252e+07
-674289
-666361
262930
-811999
-855026
2.51251e+06
9.85635e+06
-3.00195e+06
8.89839e+06
325872
-5.26523e+06
-5.265e+06
3.26619e+06
324460
-2.91826e+06
-2.91952e+06
-640707
-3.59265e+06
-1.57242e+06
-2.4707e+06
-2.05813e+07
-2.05789e+07
-1.38567e+06
-1.78707e+07
-1.78745e+07
599732
-2.71539e+06
1.91545e+06
-1.73246e+06
-1.99727e+06
-1.99563e+06
-900838
-1.21572e+06
-2.74606e+06
-1.46235e+06
-1.46258e+06
-3.03344e+06
-3.02893e+06
3.39674e+06
3.47245e+06
-2.31322e+06
9.49663e+06
-2.30806e+06
-2.84359e+06
-2.64359e+06
-2.56213e+06
-1.954e+06
-3.30558e+06
-3.99404e+06
-3.99656e+06
-3.18893e+06
20345.5
-4.2435e+06
-4.2455e+06
-2.17978e+06
1.09722e+06
-1.78632e+06
4.99098e+06
1.12946e+06
-1.36313e+06
-1.36334e+06
-1.96193e+06
-408359
-5.74072e+06
-5.74574e+06
4.25359e+06
-1.79267e+06
-2.44715e+06
-48877.7
-48232.7
2.25569e+06
-1.49449e+07
-1.494e+07
-3.44293e+06
6.53776e+06
-1.91502e+06
-1.22179e+06
-1.27613e+06
1.28291e+06
20078.9
-333501
-334445
-3.70051e+06
-2.74665e+06
-1.60525e+06
-283972
-283124
1.85373e+06
-2.73561e+06
-2.73691e+06
-1.78422e+07
-1.78391e+07
-2.60104e+07
-2.60134e+07
-2.88755e+06
-1.84827e+06
-1.84474e+06
-2.96776e+06
-3.78896e+06
7.96643e+06
-2.20839e+06
3.77367e+06
5.67482e+06
-1.09017e+06
-1.06436e+06
-3.94474e+06
-3.9458e+06
-3.07072e+06
4.80058e+06
293345
-527013
-1.95481e+06
478340
-1.2045e+06
-2.62233e+06
-2.73106e+07
-2.73071e+07
-1.47488e+06
-3.17795e+06
-2.81227e+06
-2.81213e+06
-2.45631e+06
-427654
1.52337e+06
-2.94499e+06
21441.9
21140.8
-3.08886e+06
-5.2395e+06
-5.24054e+06
5.33444e+06
-1.25191e+07
-1.25231e+07
-957946
454181
-2.6223e+06
455587
380216
395610
-1.3217e+06
8.44071e+06
-1.29995e+06
-2.96857e+06
-1.31371e+07
-1.31414e+07
-881917
-641843
743497
-1.16698e+06
-1.75811e+07
-1.75831e+07
-1.93815e+07
-1.93784e+07
-380810
-1.50225e+06
-3.23078e+06
-1.42162e+06
-1.42416e+06
-747688
-747662
-2.02502e+06
-3.90005e+06
-3.66077e+06
-166627
-383849
-879296
-3.5964e+06
-3.59814e+06
-457425
-1.86838e+06
2.61156e+06
-1.03984e+06
-961299
2.93003e+06
-3.09202e+06
-3.09076e+06
-1.69388e+06
-2.18295e+06
-2.18315e+06
-447279
-445363
-1.67749e+06
4.25043e+06
-881238
-2.96411e+06
-1.96178e+06
-1.96357e+06
-2.09187e+06
-6.66663e+06
-878540
4.90737e+06
-2.90084e+06
-2.98964e+06
-2.99003e+06
-1.38737e+06
-3.15767e+07
-3.15798e+07
-1.5939e+07
-1.5941e+07
-881897
-93456
-92933.5
-1.47864e+06
-1.96903e+06
-1.96916e+06
-2.29102e+06
-2.29206e+06
-6.64037e+06
-6.63926e+06
-2.66004e+06
4.50578e+06
-2.95621e+06
-2.95558e+06
-2.74486e+06
-3.58819e+06
-3.61211e+06
-3.61064e+06
-2.21914e+06
-1.14456e+06
-7.75949e+06
-7.75658e+06
-3.85741e+06
-7.83562e+06
-7.83544e+06
-1.2361e+06
7.0459e+06
-2.15444e+06
-2.5704e+07
-2.57008e+07
-276785
-2.51146e+06
-2.51031e+06
-1.06509e+07
-1.06523e+07
-4.34505e+06
-4.34591e+06
5.52782e+06
-2.13533e+06
-5.04256e+06
-5.04229e+06
-3.16734e+06
-3.16855e+06
867632
-4.58189e+06
6.47746e+06
-2.09535e+06
-594522
1.51839e+06
-2.62837e+07
-2.62818e+07
-5.01572e+06
-5.01425e+06
-1.59144e+07
-1.59157e+07
-3.07789e+06
-1.46629e+06
-1.30255e+06
-4.41879e+06
-4.4177e+06
3.24666e+06
-605848
-608496
-3.20606e+06
-1.81442e+06
-1.83479e+06
-1.83126e+06
948004
-1.89035e+06
-2.18053e+06
-1.23761e+06
-1.23763e+06
-2.31337e+06
2.35907e+06
2.38125e+06
-2.71694e+06
-1.79504e+06
-2.30241e+06
-1.8065e+06
-1.5744e+07
-1.57448e+07
-1.88587e+06
3.83042e+06
-6980.81
-2.28221e+07
-2.28251e+07
-2.11093e+06
-4.5122e+06
-4.51069e+06
-4.02623e+06
5.95531e+06
-2.25973e+06
-1.64328e+06
6.4224e+06
-2.97127e+06
-2.42095e+06
-2.42135e+06
-2.26553e+06
-2.26607e+06
-956555
-6.03277e+06
-6.03376e+06
-3.97022e+06
-2.86738e+06
-3.97525e+06
-7.45125e+06
-7.45716e+06
-969709
6.58545e+06
-3.01001e+06
-618628
-5.26818e+06
8.76809e+06
-1.34346e+06
-1.34345e+06
8.85232e+06
1.47425e+06
-2.24282e+06
-988861
-1.17575e+06
-1.61682e+06
-1.235e+06
1.05063e+07
-2.05009e+06
-2.99449e+06
-6.07974e+06
-6.0806e+06
-2.68041e+06
-2.68072e+06
-2.00392e+06
-1.94248e+06
-1.94547e+06
-2.14016e+06
9.50999e+06
-5.27591e+06
1.15645e+06
5.19432e+06
-1.68373e+06
2.56914e+06
-1.34347e+06
-3.67747e+06
-3.67785e+06
9.31556e+06
1.17411e+07
228831
-2.10781e+07
-2.1075e+07
-1.63372e+06
-36779.3
-1.52063e+06
-2.57587e+06
-2.54169e+06
-395661
4.64154e+06
-2.01728e+06
7.03355e+06
1.21678e+07
-1.58163e+06
-1.58175e+06
-2.11895e+06
-2.13111e+06
-2.09547e+06
-1.05882e+06
-7.34062e+06
-7.33965e+06
-221638
1.02115e+07
8.81521e+06
-3.20976e+06
-3.21069e+06
-1.70113e+06
-2.35071e+06
-65252.4
-1.00741e+06
4.89181e+06
-1.42772e+06
6.8007e+06
-2.12862e+06
-1.85333e+06
-1.55361e+06
-1.95375e+06
-2.21113e+06
228941
-2.35098e+06
170083
170085
-1.78251e+06
-1.78088e+06
-556751
-322836
-4.46921e+06
-1.78949e+06
-3.08517e+06
-1.5709e+07
-1.5711e+07
-991286
-2.09097e+06
-1.84706e+06
554869
3.24383e+06
3.28458e+06
-3.54452e+06
-1.88222e+06
-1.87122e+06
-670759
-672393
-5.04252e+06
-5.04249e+06
-1.40391e+06
-3.68775e+06
7.56166e+06
1.06972e+07
-1.60435e+06
5.47777e+06
-82964.9
116821
-1.06204e+06
-2.52947e+06
-3.54868e+06
7.03537e+06
-310224
331142
-1.99555e+06
-2.00014e+06
-2.88034e+06
8.45184e+06
1.77657e+06
-2.8535e+06
-2.85293e+06
-4.45789e+06
-4.45653e+06
-243240
-2.47229e+06
-2.56317e+06
-1.19829e+06
-1.2202e+06
-521817
-2.91919e+06
-2.51736e+06
-2.9595e+06
-2.77708e+06
-2.60355e+06
-1.76494e+06
1.13882e+07
-1.25113e+06
-1.23985e+06
-2.16445e+06
295442
-1.32246e+06
-2.42559e+06
734449
759692
-100035
-1.70733e+06
-1.7069e+06
-829184
-825114
-3.63773e+06
-4.47589e+06
-4.47428e+06
-3.53399e+06
-2.3292e+06
1.24437e+07
5.88141e+06
-134807
-87058.7
-3.1885e+06
-3.1899e+06
-3.30683e+06
4.29917e+06
191539
-1.78614e+07
-1.78572e+07
-5.58564e+06
-5.58256e+06
5.13618e+06
73830.7
62478.2
-243786
-1.38774e+06
-3.62958e+06
-3.6302e+06
-436234
-2.38327e+06
-3.0548e+06
2.5698e+06
-2287.07
-2252.26
-2.31907e+06
-2.31992e+06
-1.92336e+06
-1.92536e+06
-4.38641e+06
-4.38728e+06
-1.92201e+06
-1.88827e+06
-1.89136e+06
-1.14769e+06
-278880
-3.37746e+06
-2.23852e+06
-2.2379e+06
-812244
-2.53597e+06
2.82942e+06
1.08918e+07
-2.23465e+06
-2.42798e+07
-2.42827e+07
-1.89718e+06
-3.6916e+06
-1.69772e+06
-2.08223e+07
-2.08261e+07
-2.16988e+06
-1.404e+06
-1.4059e+06
-566936
-565740
169.29
158.03
500604
4.23356e+06
3.72683e+06
935401
3.94903e+06
-2.45969e+06
510486
-625865
-4.06037e+06
-4.05984e+06
1.21409e+07
-1.57876e+06
-1.57854e+06
-1.51276e+06
-1.87531e+06
-1.87221e+06
-464190
-1.32034e+06
-6.13219e+06
-6.1343e+06
-468742
-2.77681e+06
-443442
7.74539e+06
-1.44221e+06
-3.47114e+06
-3.47249e+06
-3.93758e+06
-3.93802e+06
1.02206e+07
-2.34633e+06
-1.44156e+06
-3.36527e+06
-1.80173e+06
-3.05507e+06
-3.11067e+06
6.09051e+06
-1.35703e+06
-1.35721e+06
-5.44102e+06
-5.44322e+06
-2.74411e+06
-106384
-97778
75755.9
-1.98934e+06
-1.81781e+06
-2.1602e+06
-1.2764e+06
-1.01536e+06
-80972.9
-3.464e+06
-2.10395e+06
1.04735e+07
3.89661e+06
-1.28007e+06
-2.47478e+06
-2.47428e+06
798527
-1.76754e+07
-1.76773e+07
-1.94967e+06
-1.94725e+06
3.99577e+06
-2.47109e+06
-99128.1
-4.80931e+06
-1.87359e+06
-2.71179e+06
-2.71128e+06
-2.14334e+06
-1.77997e+06
7.72816e+06
-1.80241e+06
-325893
-323905
-1.00881e+06
-2.41338e+06
-3.07803e+06
-3.07465e+06
-1.60174e+07
-1.60201e+07
-7.6725e+06
-7.67806e+06
-6.0108e+06
-2.70179e+06
-2.64739e+06
-6.02226e+06
-2.55305e+06
962914
945621
-2.67838e+06
-1.18744e+07
-1.1877e+07
1.95906e+06
-2.21952e+06
-2.22957e+06
-2.61322e+06
7.59918e+06
-268361