/*--------------------------------*- C++ -*----------------------------------*\
| =========                 |                                                 |
| \\      /  F ield         | OpenFOAM: The Open Source CFD Toolbox           |
|  \\    /   O peration     | Version:  v3.0+                                 |
|   \\  /    A nd           | Web:      www.OpenFOAM.com                      |
|    \\/     M anipulation  |                                                 |
\*---------------------------------------------------------------------------*/
FoamFile
{
    version     2.0;
    format      ascii;
    class       volScalarField;
    location    "11000";
    object      sigmazz;
}
// * * * * * * * * * * * * * * * * * * * * * * * * * * * * * * * * * * * * * //

dimensions      [1 -1 -2 0 0 0 0];

internalField   nonuniform List<scalar> 
27023
(
-8.86139e+06
8.86272e+06
6.29975e+06
-6.2992e+06
-8.67375e+06
8.675e+06
2.82305e+07
-2.82291e+07
3.38311e+06
-3.38324e+06
2.15952e+07
-2.15931e+07
792553
-797470
-7.97008e+06
665651
547341
-1.69972e+07
1.69978e+07
1.27575e+07
-1.27562e+07
2.78692e+07
-2.78677e+07
1.54519e+07
-1.54508e+07
2.34976e+06
-1.08319e+07
1.00301e+06
-1.0828e+07
9.22393e+06
4.71201e+06
1.27657e+07
-1.27651e+07
-1.24349e+07
-7.90986e+06
9.67819e+06
1.20701e+07
-1.20694e+07
3.18862e+06
-3.1892e+06
-6.48046e+06
6.48114e+06
-6.32581e+06
-8.37161e+06
8.37292e+06
1.67537e+07
-1.67531e+07
1.431e+07
-1.43089e+07
8.50143e+06
1.37739e+07
-1.37729e+07
-1.21234e+07
143833
-143117
1.36872e+07
5.77492e+06
1.01342e+07
-4.61537e+06
6.46205e+06
-6.46147e+06
8.42705e+06
1.36374e+06
1.46071e+06
-6.11728e+06
4.23559e+06
1.12185e+07
2.87901e+06
-1.07555e+07
-5.90783e+06
1.16464e+07
-1.16457e+07
2.02985e+07
-2.02974e+07
2.47704e+07
-2.47701e+07
293844
-293194
-2.9566e+07
2.95667e+07
-8.20419e+06
2.08265e+07
-2.08243e+07
1.9917e+07
-1.9916e+07
-2.62597e+07
2.62599e+07
-1.11742e+07
1.09082e+06
-4.87266e+06
4.73351e+06
9.42684e+06
-9.4255e+06
6.00481e+06
-2.32193e+06
-1.53764e+07
1.53757e+07
-8.22151e+06
-4.926e+06
223142
-7.97084e+06
-5.01623e+06
5.1762e+06
2.35498e+07
-2.35484e+07
838360
2.56888e+07
-2.56876e+07
1.35727e+07
9.58892e+06
5.75339e+06
2.60169e+07
-2.60157e+07
1.51703e+07
-1.51698e+07
2.49916e+07
-2.49913e+07
5.6554e+06
-1.04889e+07
-7.95928e+06
6.0536e+06
632916
-2.34872e+07
2.349e+07
2.94926e+07
-2.94913e+07
9.11892e+06
-9.11752e+06
2.40546e+07
-2.40531e+07
-4.52245e+06
-842129
824731
-4.4921e+06
5.20563e+06
-2.63771e+07
2.63773e+07
2.88663e+06
1.75946e+07
-1.7594e+07
-2.69005e+07
2.69025e+07
-1.9769e+06
2.74398e+07
-2.74382e+07
-4.43057e+06
-4.60548e+06
1.39474e+07
1.14221e+07
1.47196e+07
-1.4718e+07
1.62222e+07
-1.62208e+07
-7.51144e+06
-8.49068e+06
-8.31042e+06
8.3736e+06
8.03665e+06
1.73961e+07
-1.73955e+07
-1.52479e+07
-6.3508e+06
-1.32441e+07
1.01851e+06
-1.85281e+07
1.853e+07
-2.45689e+07
2.45711e+07
-5.89472e+06
598852
1.52349e+06
-2.98106e+07
2.98112e+07
-5.34805e+06
5.4524e+06
-8.52391e+06
720349
-1.96771e+06
-5.47091e+06
3.13425e+06
-1.14668e+07
-2.55383e+07
2.55402e+07
-8.27744e+06
-1.52574e+07
-1.62698e+07
-1.46963e+07
1.46965e+07
-1.39065e+07
-4.95414e+06
-2.48148e+07
2.48169e+07
-7.89248e+06
1.17607e+06
3.00234e+07
-3.00222e+07
-1.71723e+07
-2.40056e+07
2.40081e+07
-9.92135e+06
8.4759e+06
-1.09639e+07
2.4256e+07
-2.42558e+07
-7.93522e+06
7.93643e+06
-6.75745e+06
-1.69562e+07
2.42364e+07
-2.42362e+07
34547.5
-34382.5
5.69569e+06
-7.22461e+06
-3.26364e+06
3.26386e+06
-9.21165e+06
760484
1.7451e+06
-2.60441e+07
2.60445e+07
-4.52898e+06
-2.32429e+07
2.32456e+07
-7.81433e+06
2.33993e+07
-2.33988e+07
2.0561e+07
-2.05598e+07
1.6714e+06
-1.67245e+06
1.11248e+06
2.39722e+07
-2.39717e+07
-1.56341e+07
2.29279e+07
-2.29275e+07
2.51374e+07
9.48359e+06
-2.9339e+07
2.93404e+07
1.13571e+07
1.61609e+07
1.60143e+07
-1.28684e+07
6.24373e+06
207031
-9.85445e+06
1.32936e+07
-1.25652e+07
-2.79504e+07
2.79513e+07
-5.75641e+06
-4.93656e+06
-1.70252e+07
-1.72594e+07
2.07104e+07
-1.5815e+07
1.4237e+07
-1.4236e+07
4.94481e+06
1.13437e+06
1.46838e+07
2.35576e+07
-2.35572e+07
2.70476e+07
-2.7046e+07
2.00425e+06
-4.11462e+06
2.30715e+07
-2.30689e+07
1.02922e+07
-6.1111e+06
-1.09414e+07
2.62314e+06
1.47994e+06
-1.85365e+07
1.85383e+07
-1.40475e+07
1.40479e+07
1.14809e+07
-1.42086e+07
2.80752e+06
-2.77775e+06
-218170
218943
-5.90508e+06
-7.3804e+06
3.4884e+06
1.28762e+07
560453
-5.70564e+06
-2.33356e+07
2.33362e+07
-2.58776e+07
2.58779e+07
-1.25537e+07
1.67666e+07
-2.42136e+07
2.42139e+07
966707
2.31894e+06
-2.41297e+07
2.41314e+07
-2.71953e+06
4.51111e+06
-4.51143e+06
9.43812e+06
8.50486e+06
-1.52491e+06
94777.6
123866
-123451
1.91302e+06
-1.91456e+06
1.13984e+07
-1.36315e+07
1.36321e+07
393532
8.26705e+06
1.21371e+06
-1.21603e+06
-1.1833e+07
-6.87795e+06
-4.86559e+06
8.53781e+06
-1.97463e+07
2.63209e+06
1.28599e+07
-1.53602e+07
-5.52888e+06
1.53333e+07
-2.23372e+07
2.44709e+06
9.65821e+06
-1.28709e+07
1.28724e+07
-4.82876e+06
3.10777e+06
2.29156e+07
-2.29145e+07
-1.63891e+07
1.64599e+07
49882.8
-49652.6
-9.96671e+06
9.30526e+06
-9.30377e+06
-6.95049e+06
3.38795e+06
-1.28556e+07
1.28491e+07
2.46217e+07
-2.46212e+07
21796
-21532.1
1.55289e+06
-2.89348e+07
2.89355e+07
-1.49033e+06
-1.19356e+07
-2.35279e+07
2.35282e+07
-2.679e+07
2.67926e+07
4.70127e+06
-1.01802e+07
-1.84187e+06
-1.06291e+07
1.06306e+07
-2.83298e+07
2.83303e+07
-4.91668e+06
-1.58225e+07
-5.4057e+06
-1.5906e+07
-1.59689e+07
-1.08293e+07
-1.04364e+07
1.15314e+07
7.97848e+06
-1.15307e+07
2.86683e+07
-2.86669e+07
-9.57226e+06
3.79769e+06
4.5701e+06
-1.62666e+07
-1.4714e+07
-614665
-9.19729e+06
3.08997e+06
1.20069e+07
1.18871e+06
527226
-2.40033e+06
1.02505e+07
5.62148e+06
-2.31536e+07
-1.09877e+07
2.05125e+07
-2.05114e+07
7.46355e+06
-7.85268e+06
3.14378e+06
-1.06854e+07
1.06869e+07
232864
5.63212e+06
-1.41258e+07
763354
1.41071e+07
247217
-246258
-4.85764e+06
1.34804e+07
1.10755e+07
1.66467e+07
8.8482e+06
-1.18357e+07
5.80138e+06
-1.46374e+07
3.40302e+06
1.99181e+06
1.25041e+06
-2.20115e+07
-2.36247e+07
2.3625e+07
-2.05989e+07
1.93184e+06
1.55656e+07
-9.2069e+06
2.28398e+07
-2.28394e+07
-1.78533e+07
1.78543e+07
1.6405e+07
1.00947e+06
4.34587e+06
-4.34648e+06
-2.07138e+07
2.07081e+07
1.53782e+07
-1.53775e+07
-72708.2
73017.3
-5.77973e+06
-3.62621e+06
-1.31983e+07
-1.27592e+06
-3.25184e+06
-2.48173e+07
2.48199e+07
-2.40486e+07
2.40513e+07
1.46384e+07
-1.46375e+07
1.59893e+07
-1.59878e+07
-3.6442e+06
209823
-3.32086e+06
-1.26742e+07
6.66843e+06
1.54839e+07
-5.31333e+06
-2.89656e+07
2.89672e+07
-1.39025e+07
7.08406e+06
3.59856e+06
1.85576e+07
1.60121e+07
-1.22864e+07
-4.25917e+06
2.37518e+07
-2.3751e+07
-6.30016e+06
6.37342e+06
5.80635e+06
-5.80599e+06
2.37164e+07
-2.37158e+07
621982
3.89176e+06
-4.32692e+06
4.48882e+06
2.24531e+07
2.25176e+06
-2.17037e+07
2.17059e+07
-9.09272e+06
1.23001e+07
751512
-1.36925e+07
1.36931e+07
1.07304e+07
-1.07289e+07
9.21266e+06
-1.94065e+07
-1.12791e+07
-9.17526e+06
9.17674e+06
-1.24284e+07
-2.25109e+06
1.24705e+07
-1.24696e+07
-1.08057e+07
2.77321e+07
-2.77289e+07
2.1627e+07
-2.16247e+07
-1.4493e+07
-2.12083e+07
2.12103e+07
-6.56073e+06
-9.29854e+06
2.16068e+07
-2.16064e+07
-1.66393e+07
-2.37316e+07
2.37319e+07
1.3674e+07
-2.29699e+07
2.29707e+07
-1.40689e+07
1.40702e+07
-3.51486e+06
1.8439e+07
-1.84375e+07
-1.12093e+07
-2.23322e+06
-2.80525e+06
-4.05817e+06
1.77978e+07
-1.77964e+07
-2.76174e+07
2.76181e+07
-1.00985e+07
-1.69268e+07
1.08282e+07
1.0247e+06
-1.29846e+07
-1.19621e+07
5.74262e+06
-4.38445e+06
4.38392e+06
-1.96543e+07
-2.60904e+07
2.60907e+07
1.00315e+07
1.01887e+06
-2.33406e+07
2.33418e+07
-1.18992e+07
-1.33947e+07
1.33945e+07
196127
1.33977e+06
-3.87146e+06
-1.02931e+07
-8.62228e+06
1.24054e+07
-1.24043e+07
-1.19623e+07
-252634
1.95985e+07
-1.95979e+07
4.41863e+06
-1.24916e+07
1.24927e+07
-3.58914e+06
1.21411e+07
-1.21395e+07
-2.33825e+07
2.33846e+07
-1.37295e+07
1.37311e+07
1.32287e+07
-1.01659e+07
1.01387e+07
1.31655e+07
-1.49381e+07
1.49397e+07
-9.25576e+06
4.91285e+06
-5.66288e+06
-1.38895e+07
1.00208e+06
-2.52862e+06
-5.05062e+06
-2.20395e+07
1.45697e+07
-1.4568e+07
1.01721e+07
1.47895e+07
-1.47883e+07
-9.58442e+06
-1.95694e+07
1.95704e+07
-3.602e+06
-917309
-1.27116e+07
1.27121e+07
2.24512e+07
-2.24508e+07
1.70799e+07
7.16908e+06
1.15837e+07
1.98943e+07
-1.98935e+07
2.55803e+07
-2.55799e+07
7.9993e+06
-6.37599e+06
3.29404e+06
-3.3541e+06
1.00476e+07
-1.0046e+07
-1.04312e+07
-58670.3
-131207
131831
58953.8
-6.42249e+06
714319
-715060
-1.41952e+07
1.41967e+07
-8.65097e+06
8.65237e+06
1.20717e+07
-1.20702e+07
1.95758e+06
1.79119e+07
-1.79109e+07
-1.31908e+07
-6.25781e+06
-1.70926e+07
1.70936e+07
-7.91835e+06
1.90587e+07
-1.90578e+07
-1.02686e+07
-8.14668e+06
1.60845e+07
-1.31409e+07
1.31424e+07
1.58047e+07
1.16367e+06
-49243.7
-7.49624e+06
-2.35275e+07
2.35284e+07
-1.98531e+06
1.40375e+07
-2.89043e+07
2.8905e+07
-67561.2
67837.1
1.43879e+07
-1.43878e+07
1.24582e+07
-1.91978e+06
2.81965e+07
-2.81962e+07
-9.42357e+06
-1.4109e+07
2.01888e+06
5.37263e+06
1.18187e+07
9.49082e+06
5.09466e+06
-979100
-4.12336e+06
-1.536e+07
1.05925e+07
1.45679e+07
-1.3953e+07
-7.22114e+06
-5.7117e+06
173276
-172982
1.95144e+07
-1.95135e+07
1.13778e+07
-983781
-6.22263e+06
-2.22116e+06
1.27575e+07
1.35818e+07
-1.42267e+07
-1.43234e+06
8.98858e+06
-9.7175e+06
-3.71496e+06
8.03011e+06
-8.02895e+06
1.2779e+07
1.79104e+07
-1.70387e+06
-8.93297e+06
2.37229e+07
-2.37221e+07
-2.45035e+07
2.45038e+07
133285
-132763
-1.1659e+06
-1.85354e+06
-7.27471e+06
-1.04535e+06
-1.32302e+07
1.32322e+07
7.81559e+06
3.4301e+06
-3.43116e+06
-2.61534e+07
2.61538e+07
-2.04781e+07
2.14879e+07
-2.14871e+07
-3.23089e+06
1.61567e+07
-1.01589e+07
-5.83877e+06
1.60397e+07
1.80867e+06
2.14696e+07
-2.14692e+07
8.57881e+06
-2.83814e+06
2.63945e+07
-2.63918e+07
-8.60394e+06
-2.299e+07
-7.74811e+06
2.29911e+07
5.8087e+06
-5.78246e+06
1.16405e+07
8.72759e+06
-1.21581e+07
-481400
-1.2186e+07
-6.42121e+06
2.13428e+07
-4.24118e+06
8.46474e+06
-8.46255e+06
-2.44054e+07
2.44057e+07
6.16405e+06
1.81696e+06
-2.28752e+07
2.2876e+07
-1.34128e+07
1.09481e+07
8.89568e+06
4.51189e+06
9.9641e+06
9.64627e+06
-9.64476e+06
-3.56491e+06
1.36704e+07
-1.3669e+07
-2.41865e+07
2.41869e+07
323765
-9.23386e+06
-1.94465e+06
-2.13307e+07
2.01615e+07
-2.01595e+07
9.036e+06
1.1284e+06
-6.41985e+06
-1.44546e+07
-5.88743e+06
-9.8207e+06
-3.80567e+06
-9.10918e+06
1.03224e+07
2.45774e+07
-2.45771e+07
2.20837e+07
-2.20814e+07
1.6136e+07
-1.58896e+07
-3.70432e+06
1.43947e+06
2.39887e+07
-2.39884e+07
-1.67548e+07
-1.51778e+07
440473
-6.19187e+06
1.98462e+06
1.56212e+06
-1.56178e+06
-6.74534e+06
-2.65038e+06
2.7376e+07
-2.73741e+07
-821899
6.96691e+06
-1.11311e+06
2.93098e+07
-2.93094e+07
-9.62805e+06
9.63096e+06
-1.15413e+07
-7.45769e+06
7.45888e+06
-3.55395e+06
-1.65778e+06
812178
1.49927e+06
2.24482e+07
-2.24478e+07
-3.11171e+06
-1.34204e+07
1.34209e+07
2.49925e+07
-2.49923e+07
-9.55884e+06
9.5403e+06
1.61768e+07
-1.61752e+07
-2.65225e+07
2.65249e+07
3.09684e+06
-1.58091e+07
2.6888e+07
-2.6886e+07
-1.65291e+07
-1.39846e+06
1.5329e+07
-1.53277e+07
2.00786e+07
-2.00782e+07
-1.57056e+07
-2.35981e+07
2.3599e+07
-2.74515e+07
2.74518e+07
1.5704e+07
6.82979e+06
9.77558e+06
4.29138e+06
1.78381e+07
-1.78375e+07
-2.19715e+07
1.46474e+06
1.95057e+06
2.19718e+07
7.98905e+06
1.27885e+07
-9.80329e+06
1.35483e+07
-1.35476e+07
263390
3.76965e+06
-1.18352e+07
1.77519e+07
-1.77583e+07
6.83632e+06
-850729
213706
-213223
-9.96202e+06
-1.14898e+07
-8.22946e+06
2.6989e+07
-2.69873e+07
-1.6479e+07
-1.22642e+07
-1.60715e+07
7.50618e+06
1.58408e+07
-1.58392e+07
-1.56307e+07
6.76222e+06
1.64862e+07
-8.7136e+06
8.77742e+06
1.60728e+07
-1.44477e+07
1.5377e+07
-1.53755e+07
-2.19004e+07
2.19007e+07
1.42092e+07
-5.65224e+06
9.21819e+06
2.22626e+07
-2.22602e+07
-2.07888e+07
2.07895e+07
-11379
-7.43159e+06
1.79466e+07
-1.7946e+07
-1.01943e+07
2.99698e+06
-2.99757e+06
-8.1426e+06
-8.5945e+06
2.21006e+07
-1.32865e+07
-1.38381e+07
-1.66967e+07
9.23128e+06
-9.90673e+06
-3.20056e+06
2.52704e+07
-2.527e+07
-1.48906e+06
468800
4.654e+06
-9.84293e+06
-4.1473e+06
-2.45766e+06
-1.58767e+06
9.19344e+06
-7.22781e+06
783655
4.37039e+06
-9.827e+06
8.03399e+06
-2.02341e+07
4.94912e+06
-5.22723e+06
-4.53206e+06
4.53161e+06
9.64429e+06
-3.2421e+06
3.24067e+06
-7.17521e+06
-4.30347e+06
1.81026e+07
-1.81012e+07
9.14756e+06
2.46388e+06
-2.46454e+06
-8.2652e+06
-4.36037e+06
8.59175e+06
-1.17978e+07
1.38112e+07
8.72339e+06
-2.3477e+07
1.07976e+07
7.97197e+06
1.32613e+07
9.40556e+06
-9.40411e+06
3.3149e+06
-3.67997e+06
833946
-834790
1.45951e+07
-344875
9.8016e+06
7.27418e+06
-1.02139e+07
1.02146e+07
-1.62706e+07
-3.26732e+06
8.17019e+06
-440717
440656
-9.28398e+06
-6.33349e+06
-86742
1.09955e+06
-5.18716e+06
1.59028e+07
9.25292e+06
-1.1902e+07
-1.05266e+07
1.05259e+07
-1.86522e+07
-1.4606e+07
456017
1.92657e+06
-1.08488e+07
-1.91208e+07
1.9123e+07
835441
-7.78709e+06
-1.79142e+07
-4.70866e+06
4.7083e+06
-9.53097e+06
4.6498e+06
9.62125e+06
-2.32857e+07
2.32863e+07
-4.46292e+06
-1.33982e+07
1.34134e+07
1.79401e+07
-1.79378e+07
7.29221e+06
-9.99632e+06
321991
-321386
-8.99973e+06
896138
2.7853e+06
2.4597e+07
-2.45966e+07
-3.01269e+06
2.81125e+07
-2.81097e+07
1.40398e+06
1.16325e+07
-4.29272e+06
-1.9267e+07
-8.3684e+06
-2.4981e+06
1.92688e+07
1.77093e+07
2.20304e+06
-7.79213e+06
-1.11313e+07
1.11316e+07
1.1065e+07
-1.14318e+07
1.58178e+07
8.92464e+06
1.07115e+07
-2.35797e+06
1.78313e+06
-3.73466e+06
-6.75591e+06
630582
2.29827e+06
-3.35168e+06
-2.74158e+06
81964.4
1.02032e+07
6.17737e+06
-1.33319e+07
-9.7145e+06
-4.8616e+06
-1.62422e+07
1.53157e+07
-1.88392e+07
1.88408e+07
3.18155e+06
-1.37667e+06
-9.96473e+06
9.96384e+06
1.98495e+07
-1.98489e+07
-6.5545e+06
-2.62337e+06
1.31757e+07
-1.94475e+06
1.94473e+06
2.38621e+07
-2.38617e+07
1.66735e+06
472186
-8.46425e+06
-2.67782e+06
-2.07812e+06
-550293
-2.37959e+06
-434419
1.62364e+07
1.75398e+07
-1.75387e+07
1.03733e+07
-1.03297e+07
4.66155e+06
4.05082e+06
2.39561e+07
-2.39557e+07
2.38451e+06
4.62926e+06
1.03902e+07
-3.45046e+06
-1.49229e+07
-6.28005e+06
5.81965e+06
-4.91835e+06
1.77236e+07
-2.80044e+06
-5.57533e+06
2.10621e+07
1.82034e+07
-1.82022e+07
-1.88647e+07
3.57971e+06
1.12512e+07
-7.8314e+06
8.07419e+06
2.1084e+07
-2.10678e+07
-9.18244e+06
-2.15978e+07
-2.66027e+06
2.65956e+06
3.58585e+06
-3.58669e+06
6.22403e+06
8.53248e+06
-7.88698e+06
2.47495e+07
-2.45091e+07
2.4512e+07
4.28505e+06
-4.28544e+06
-3.54127e+06
2.53028e+07
-2.53024e+07
-1.02618e+07
1.00412e+07
-2.98193e+06
58264.2
-57991.1
-9.32973e+06
-4.56369e+06
2.01079e+07
-5.47225e+06
-2.48918e+07
2.48938e+07
1.00211e+07
1.91072e+07
-1.89712e+07
7.17698e+06
4.81668e+06
-684014
1.07409e+07
-1.07365e+07
-2.37829e+07
2.37833e+07
-4.70989e+06
-1.24912e+07
1.24944e+07
-2.30175e+07
2.30181e+07
5.43996e+06
-1.1986e+07
1.02037e+07
-3.91231e+06
1.00425e+07
-1.00407e+07
-7.93041e+06
3.06466e+06
1.72734e+07
-168599
-1.09064e+07
1.09078e+07
-1.0247e+07
5.2027e+06
2.05294e+07
2.14025e+07
-2.14019e+07
1.53046e+07
-2.37113e+06
-7.85377e+06
7.69695e+06
2.69098e+07
-2.69072e+07
-1.09093e+07
1.87899e+07
-1.8789e+07
1.06847e+07
-1.71197e+07
-1.36234e+07
1.362e+07
1.04228e+07
6.44308e+06
504505
-881641
-1.27348e+07
4.5471e+06
-3.74965e+06
123461
-122801
1.71412e+07
3.59786e+06
-3.5984e+06
2.26786e+07
-2.26763e+07
-2830.35
2.70015e+07
-2.69991e+07
-2.00031e+07
2.00049e+07
-2.69588e+07
2.69591e+07
6.97108e+06
2.49178e+07
-2.49174e+07
1.88818e+06
-8.20674e+06
-925919
-8.07899e+06
5.34159e+06
-7.33421e+06
1.93068e+07
-1.93061e+07
-6.1225e+06
6.12346e+06
5.35503e+06
-736596
430948
1.57907e+07
2.65031e+06
1.15013e+07
-1.70631e+07
2.4633e+06
-3.39014e+06
2.24261e+06
-2.24376e+06
1.58833e+07
-1.22615e+07
1.56262e+07
-1.01913e+07
-5.67483e+06
1.35836e+06
1.19288e+07
-1.19265e+07
1.16051e+07
5.68601e+06
-9.42871e+06
9.45475e+06
-3.97712e+06
-1.2101e+07
-2.41108e+07
-1.45472e+07
1.45483e+07
1.69968e+07
-8.5566e+06
1.10133e+07
-1.19451e+07
1.439e+07
2.41123e+07
1.19429e+07
1.33618e+07
1.10825e+07
7.24178e+06
1.0845e+07
-3.78387e+06
9.11347e+06
6.67098e+06
5.05032e+06
-1.58925e+06
-5.42136e+06
9.37761e+06
-1.1012e+07
-6.09417e+06
1.96401e+07
-1.96397e+07
-1.40429e+07
4.23889e+06
-4.0918e+06
-4.79865e+06
1.68196e+07
-1.81807e+07
2.19248e+06
-2.01537e+07
-6.93237e+06
3.1027e+06
1.81823e+07
9.01003e+06
-1.32951e+07
5.7916e+06
-2.47512e+06
1.53169e+07
-1.50868e+07
1.03087e+07
221773
-221760
-1.70098e+07
-2.05364e+07
2.05386e+07
943755
2.32938e+07
-2.32919e+07
2.74205e+06
9.1216e+06
-9.12013e+06
-1.10182e+07
125260
2.42624e+06
2.60138e+07
-2.60135e+07
-1.13902e+06
-1.99476e+07
2.15989e+07
-8.05255e+06
2.27429e+07
-2.27408e+07
-1.25953e+07
3.61474e+06
2.33649e+06
-1.85479e+07
1.05053e+07
-1.0508e+07
152327
-151691
1.51028e+06
6.07413e+06
1.59285e+07
-1.59269e+07
2.35421e+07
-2.3541e+07
-1.82491e+07
4.12914e+06
8.60236e+06
2.20971e+07
-2.20957e+07
943558
-280523
281114
-1.91025e+07
1.90989e+07
-2.34271e+07
2.3428e+07
-2.02546e+07
2.39164e+07
-2.3916e+07
1.73271e+07
-1.73252e+07
1.11415e+07
-5.27899e+06
-2.24034e+07
2.16528e+07
1.02138e+07
788118
-2.16524e+07
4.4923e+06
1.27218e+07
1.1978e+07
1.32987e+07
7.68906e+06
2.27563e+07
-2.27559e+07
-6.55181e+06
-2.05596e+07
2.05615e+07
2.58553e+07
-2.58543e+07
-8.8897e+06
-1.8023e+07
1.80241e+07
1.03969e+07
-1.03971e+07
-9.93244e+06
1.00448e+07
-1.00408e+07
9.71102e+06
-2.4553e+07
2.45532e+07
6.20208e+06
-4.31398e+06
-9.95161e+06
-1.78543e+06
9.68119e+06
-9.68119e+06
3.79082e+06
-9.33724e+06
3.83791e+06
-7.52229e+06
-75612.2
76057.4
-2.77675e+07
2.77683e+07
-3.77883e+06
6.93642e+06
2.7831e+07
-2.78284e+07
-1.03595e+07
1.00678e+07
4.96204e+06
-1.63828e+07
1.64208e+07
1.10874e+07
-715988
-1.67946e+07
2.20493e+06
-2.73447e+07
2.73468e+07
-1.11986e+07
1.11992e+07
-1.59736e+07
1.59743e+07
809142
-809644
4.35465e+06
-1.52269e+07
-3.07322e+06
-8.51712e+06
-1.00661e+07
-2.06713e+06
1.36411e+06
-1.36526e+06
-4.41866e+06
-558429
8.91516e+06
-1.11184e+07
1.11194e+07
8.43843e+06
-451321
-1.17433e+07
1.84178e+07
-1.84169e+07
-1.18641e+07
1.58635e+06
-1.75509e+07
1.75515e+07
-8.01329e+06
-1.89128e+07
1.89139e+07
-1.42183e+07
-8.42836e+06
-1.11746e+07
-5.16914e+06
5.50912e+06
-5.55746e+06
2.19337e+07
5.32477e+06
1.52845e+07
-1.5283e+07
567188
1.34168e+07
-1.34154e+07
2.03203e+06
2.03098e+07
-2.03089e+07
-1.01001e+07
1.01016e+07
-1.07846e+06
-6.08495e+06
6.08627e+06
-1.91037e+07
1.91041e+07
1.16868e+07
-7.88822e+06
-1.15711e+07
1.36646e+07
-1.36631e+07
1.15319e+07
-3.95568e+06
-1.15735e+07
1.15707e+07
2.59143e+06
2.49045e+07
-2.49012e+07
3.5962e+06
1.4832e+07
2.39091e+07
-2.39088e+07
-323667
324814
-3.16091e+06
2.28815e+07
-2.28804e+07
2.68264e+06
1.0593e+07
-1.05938e+07
1.97841e+06
-1.97929e+06
-221939
1.06796e+07
2.44267e+07
-2.44235e+07
-2.87565e+07
2.87574e+07
9.41691e+06
1.089e+06
-4.22132e+06
4.22066e+06
6.6118e+06
44577.9
-44355.6
-2.55264e+07
2.55266e+07
-7.77104e+06
5.41315e+06
-5.41312e+06
3.22131e+06
-2.34092e+07
2.34101e+07
-6.49973e+06
-3.2292e+06
-2.44926e+07
2.44931e+07
-2.41628e+07
2.41655e+07
-7.19739e+06
695489
-1.60506e+07
8.27987e+06
-4.99814e+06
-2.87893e+06
9.11365e+06
1.03218e+07
-1.04459e+07
1.03989e+07
-2.0196e+07
2.01965e+07
2.41803e+07
-2.41799e+07
1.92757e+07
-1.0123e+07
-2.26047e+06
892394
-2.26002e+07
-9.90593e+06
1.56129e+07
1.45566e+07
-1.57571e+07
1.38754e+07
-1.38747e+07
-1.19022e+07
1.19037e+07
2.2303e+06
-2.75601e+06
-1.06788e+07
415379
-1.04571e+06
8.40678e+06
-9.39309e+06
-3.99153e+06
1.13782e+07
-1.13779e+07
312020
-1.29521e+07
1.29529e+07
-5.42853e+06
-2.68401e+07
2.68435e+07
-2.49603e+07
2.49621e+07
-4.10072e+06
-1.91811e+07
1.91822e+07
2.99218e+07
-2.9921e+07
2.12718e+07
-2.12706e+07
1.42046e+07
-1.42029e+07
2.13255e+07
5.70124e+06
7.03692e+06
-3.2565e+06
-1.16601e+07
1.16617e+07
-1.94819e+07
1.94829e+07
-6.12457e+06
5.88812e+06
-5.72988e+06
2.7714e+07
-2.77136e+07
1.06537e+07
-1.40546e+07
1.4013e+07
-8.54317e+06
-1.01949e+07
1.47943e+07
-4.59291e+06
1.0485e+07
-1.04758e+07
1.25643e+06
-1.06806e+07
9.96628e+06
987381
-988099
1.81101e+07
3.89412e+06
4.18029e+06
-5.57977e+06
-1.28596e+07
-2.08405e+07
4.99446e+06
6.74492e+06
-6.74416e+06
2.15352e+07
-2.15346e+07
1.37957e+07
-1.37943e+07
-5.85552e+06
5.05307e+06
4.79114e+06
3.3851e+06
-5.94833e+06
-1.76443e+07
6.48168e+06
7.16538e+06
3.38187e+06
-2.05162e+07
2.0509e+07
2.06364e+06
-2.06527e+06
5.68839e+06
5.07657e+06
-1.40086e+07
1.40095e+07
1.47443e+07
-1.47426e+07
2.56439e+07
-2.56437e+07
-7.17264e+06
-3.37377e+06
3.35912e+06
1.8292e+06
-1.87341e+07
1.89608e+07
-2.30783e+07
2.30787e+07
1.04164e+07
-398518
1.92078e+07
-1.9206e+07
-1.11648e+07
1.10662e+07
8.35193e+06
-3.33952e+06
-1.06886e+07
-5.19394e+06
9.99462e+06
-9.9969e+06
1.66648e+07
-1.66634e+07
-1.55114e+07
2.33444e+07
-2.33439e+07
2.17634e+07
-2.17612e+07
2.09621e+07
1.04442e+07
-1.04453e+07
-8.34749e+06
8.34862e+06
2.76627e+06
-6.14261e+06
-1.40298e+07
-1.05272e+07
1.05279e+07
-3.97248e+06
3.97174e+06
583957
1.39095e+07
-1.74282e+07
1.74292e+07
1.24741e+07
5.38806e+06
-2.85268e+07
2.8528e+07
5.2478e+06
1.46774e+07
-1.86e+07
5.96117e+06
-1.82066e+07
-2.06947e+07
2.06957e+07
7.48814e+06
2.18805e+07
-2.18796e+07
4.13596e+06
7.17447e+06
1.82059e+07
-1.62881e+07
1.6289e+07
-8.00608e+06
8.87647e+06
-83170
2.40189e+07
-2.40184e+07
2.32792e+06
-3.14067e+06
1.47954e+07
-1.47946e+07
8.56907e+06
-9.39255e+06
9.33158e+06
3.15903e+06
1.20875e+06
-1.15457e+06
1.36756e+07
-1.36749e+07
3.10715e+06
-4.31512e+06
-8.91816e+06
1.64944e+07
-1.20568e+06
-5.08207e+06
-1.65945e+06
585855
9.42991e+06
2.00656e+07
-7.3433e+06
2.19742e+07
-2.19716e+07
-1.00316e+07
1.35877e+06
-1.35993e+06
2.24007e+07
-2.23987e+07
7.22105e+06
-2.38628e+07
2.38651e+07
9.09444e+06
1.99202e+07
-2.75867e+06
-606621
606061
1.60302e+06
-1.86564e+07
1.86571e+07
-1.24727e+07
1.23136e+06
1.3122e+07
-226371
-1.9246e+07
8.95998e+06
-6.31278e+06
6.3137e+06
1.45227e+07
-1.45211e+07
-1.00698e+07
4.62384e+06
9.38429e+06
-2.16611e+07
2.16625e+07
-2.28583e+06
2.16459e+06
-2.16512e+06
-160069
-2.4145e+07
2.41454e+07
-3.50972e+06
6.69748e+06
-8.20363e+06
6.61703e+06
-6.66019e+06
1.19177e+07
-1.19172e+07
-8.87753e+06
8.82122e+06
-1.15225e+07
1.16366e+07
1.4149e+07
-9.95025e+06
-1.46417e+07
887738
-1.79991e+07
-4.17488e+06
1.01227e+07
-1.01213e+07
-206099
6.79377e+06
-6.79312e+06
1.96838e+07
-1.96837e+07
1.6294e+07
2.20387e+07
1.55331e+06
2.66668e+06
1.08408e+07
790475
-1.83434e+07
-1.76954e+07
1.21738e+07
7.80608e+06
-1.01076e+07
-3.46475e+06
1.00297e+07
-1.32741e+07
1.32748e+07
1.45361e+07
-1.45365e+07
1.65249e+07
-1.65367e+07
7.78816e+06
-1.29921e+07
1.29926e+07
1.20032e+06
-1.34074e+07
1.34869e+07
-2.16474e+07
2.16484e+07
5.63883e+06
1.37716e+07
-3.02551e+06
-1.00243e+07
-1.80737e+07
-69108.9
69544.2
8.85221e+06
-4.75888e+06
5.65973e+06
-5.64258e+06
2.81388e+06
1.07568e+07
-1.07552e+07
-1.85052e+07
1.85063e+07
9.83297e+06
-1.91303e+07
2.48535e+07
-2.48531e+07
-1.66832e+07
1.66842e+07
7.88741e+06
6.30071e+06
6.36678e+06
8.52615e+06
1.42139e+07
-1.41565e+07
5.85351e+06
-1.25755e+07
1.25504e+07
-1.39807e+07
1.39823e+07
1.33836e+07
9.53221e+06
-9.53077e+06
1.00825e+07
-1.00825e+07
1.34314e+07
-7.39409e+06
7.33023e+06
-4.99165e+06
4.32095e+06
438909
-5.62443e+06
-9.97046e+06
2.86918e+06
-2.87011e+06
-8.53599e+06
9.97207e+06
-1.63133e+07
1.63139e+07
6.49534e+06
7.97681e+06
8.51808e+06
9.99837e+06
1.2131e+07
-1.21295e+07
1.06361e+07
-2.54337e+07
2.5436e+07
1.13337e+07
1.01118e+07
-5.71096e+06
-1.57519e+07
1.57971e+07
-1.57961e+07
5.32259e+06
1.18487e+07
9.65585e+06
-2.20868e+07
2.20871e+07
1.43296e+07
-1.43259e+07
8.61496e+06
-9.14111e+06
-6.57171e+06
-2.01374e+06
6.99947e+06
5.92674e+06
7.83301e+06
-7.31423e+06
914741
-1.01441e+06
-1.85935e+07
1.85946e+07
2.00398e+06
2.53151e+07
-1.97588e+07
1.97597e+07
1.62496e+07
-1.32273e+07
9.65628e+06
-8.526e+06
1.3235e+07
-2.33422e+07
2.33425e+07
3.37232e+06
1.3372e+07
-1.94504e+07
1.94519e+07
1.12176e+07
-8.67692e+06
1.38909e+07
1205.11
-997.353
9.04212e+06
2.29271e+07
-2.29251e+07
8.29365e+06
-559370
7.12463e+06
1.66963e+07
-1.34897e+07
-695228
-2.53129e+07
383470
-383199
-5.38348e+06
1.17649e+07
4.11853e+06
292949
-292622
1.23707e+07
-1.72573e+07
1.72582e+07
2.76819e+07
-2.768e+07
-1.35033e+07
1.35048e+07
9.77599e+06
1.00178e+06
-1.0155e+06
-9.87114e+06
-4.81333e+06
7.66336e+06
580615
-9.56313e+06
-9.37206e+06
1.8631e+07
-1.86293e+07
-1.87792e+07
1.87799e+07
-2.41114e+06
-1.02687e+07
-2.24579e+07
6.45556e+06
-1.13286e+07
-361394
1.05759e+07
1.10783e+07
2.81223e+07
-2.81192e+07
-1.77936e+07
-6.42922e+06
-1.40401e+07
1.40412e+07
-3.03091e+06
-888544
251691
7.88772e+06
-24186
23916.7
-4.21702e+06
2.75773e+06
-2.75803e+06
-237847
-2.48823e+07
2.48841e+07
-4.00396e+06
-1.13109e+07
1.32177e+07
1.13095e+07
-1.83955e+07
1.83908e+07
4.45625e+06
-5.71462e+06
-9.47278e+06
1.24132e+06
-2.46323e+07
2.46342e+07
1.20967e+07
-1.20957e+07
-2.3034e+07
3.82041e+06
-2.87367e+07
2.87382e+07
9.9999e+06
-9.99834e+06
-9.80611e+06
1.81554e+07
-2.64933e+06
-1.65015e+07
1.65023e+07
2.50384e+07
-2.50381e+07
-285943
-1.50193e+06
1.17043e+07
2.17056e+07
9.80554e+06
5.91769e+06
-1.84968e+07
1.84978e+07
-4.36709e+06
6.95889e+06
-1.16589e+07
-1.61676e+07
-4.20552e+06
-1.09982e+07
1.61212e+07
-1.61205e+07
2.01999e+07
-2.47312e+07
2.47315e+07
133828
-133338
1.19261e+07
1.08224e+07
2.52728e+07
-1.29773e+07
-1.37359e+07
1.37363e+07
-1.38918e+07
1.00431e+07
-1.89114e+07
9.77701e+06
-4.4383e+06
-2.66813e+07
2.66817e+07
-1.71754e+07
-1.76486e+07
1.76503e+07
-2.89908e+07
2.89925e+07
-2.52698e+07
71546.8
-71194.9
8.18127e+06
-2.72109e+07
2.72113e+07
-1.53624e+07
1.53631e+07
-3.77163e+06
3.77075e+06
1.3306e+07
4.83372e+06
2.02365e+07
-2.0236e+07
-3.76138e+06
-5.56273e+06
1.81516e+07
-1.81506e+07
-1.05884e+07
-7.51842e+06
2.26814e+07
-2.26803e+07
-9.35605e+06
4.11132e+06
-4.11164e+06
1.42423e+07
52591.8
-7.85614e+06
2.85438e+07
-2.85407e+07
1.92121e+07
1.38415e+07
-1.38405e+07
-1.15811e+07
1.15829e+07
2.01065e+06
-2.01158e+06
5.10027e+06
1.68855e+07
-2.49219e+06
2.49147e+06
-1.61631e+07
1.61638e+07
-5.71201e+06
1.57237e+06
7.14213e+06
1.38915e+07
3.97261e+06
3.31226e+06
2.18088e+07
-2.18065e+07
2.06365e+07
-2.06356e+07
-3.00956e+07
3.00969e+07
-7.99942e+06
-9.48435e+06
9.34274e+06
1.96822e+07
-1.96815e+07
-8.50062e+06
-239503
240425
-3.88537e+06
-1.45404e+07
1.02629e+07
-1.02614e+07
-2.23784e+07
5.61574e+06
-1.16039e+07
-2.45757e+07
2.4576e+07
-7.72099e+06
-1.08788e+07
1.08814e+07
549864
7.34635e+06
-713248
-1.3867e+07
-1.96052e+07
1.96071e+07
-2.051e+06
-9.17433e+06
2.44474e+07
-1.46637e+07
1.46652e+07
4.77863e+06
2.05919e+07
-2.05911e+07
207487
-6.70733e+06
-6.09463e+06
1.59943e+06
-4.82428e+06
1.7757e+06
-1.94076e+07
1.94081e+07
1.85763e+07
-1.85756e+07
-3.09674e+06
-2.46864e+07
2.46871e+07
-2.20422e+06
3.0684e+06
2.20163e+06
-8.34627e+06
8.3469e+06
9.21061e+06
-7.68064e+06
4.27878e+06
1.64707e+06
-8.86283e+06
6.86952e+06
1.84802e+07
-1.84806e+07
-4.51559e+06
-9.64057e+06
1.52134e+07
-6.69139e+06
-2.11828e+07
-1.69937e+07
-6.15094e+06
4.22856e+06
1.8707e+06
3.34894e+06
-2.66069e+07
2.66076e+07
-2.5288e+07
2.52884e+07
620120
1.12855e+06
-1.12831e+06
-1.07602e+07
-5.1652e+06
8.8711e+06
-1.11477e+06
2.42151e+06
-1.893e+07
-1.98727e+06
1.02868e+06
-2.59423e+07
2.59427e+07
-6.00047e+06
1.6921e+06
2.03299e+07
1.0495e+07
-1.04934e+07
-1.73438e+07
2.11191e+07
5.14595e+06
1.48299e+07
6.22641e+06
-1.3569e+07
1.61304e+06
-1.54611e+06
-5.67443e+06
141105
-2.65822e+07
2.65826e+07
1.26613e+06
-1.27372e+06
7.03246e+06
1.35625e+06
1.50689e+07
-1.50639e+07
6.67732e+06
-4.71219e+06
6.56081e+06
-1.67193e+07
1.67203e+07
2.03094e+07
-1.47366e+06
1.38123e+07
-9.20585e+06
400141
-1.62985e+07
642636
-9.74912e+06
-142510
858972
6.68329e+06
703167
6.7677e+06
-1.19837e+07
2.55247e+07
-2.55244e+07
-1.1995e+07
1.19954e+07
7.17803e+06
-7.18692e+06
2.76076e+06
-1.41422e+07
1.13535e+07
-1.05785e+07
1.05802e+07
-2.0003e+07
7.95741e+06
-661841
1.13834e+07
-1.12366e+07
-7.4569e+06
-3.50324e+06
-895393
899731
-1.0989e+07
1.09896e+07
-2.8602e+06
2.85871e+06
1.50928e+07
-1.54854e+07
6.53643e+06
-3.97051e+06
-8.0227e+06
7.39292e+06
172423
-830468
-1.27273e+06
-7.08097e+06
1.54141e+07
-656582
3.29968e+06
1.42167e+07
1.83318e+07
-1.83331e+07
1.14483e+07
-785060
-3.23985e+06
1.99573e+07
-1.99568e+07
1.9255e+07
-1.92542e+07
-1.00077e+07
-3.62657e+06
-6.82672e+06
-9.00631e+06
9.06221e+06
8.5328e+06
-7.46116e+06
-2.27686e+06
-7.39707e+06
-4.6752e+06
4.56057e+06
-2.49019e+06
-2.35336e+06
648107
-646374
3.22121e+06
-1.33927e+07
1.54382e+07
-3.65521e+06
-1.38204e+07
1.38216e+07
-2.2704e+07
1.46981e+07
-1.46973e+07
186870
-186545
8.49744e+06
2.04512e+07
-2.04503e+07
9985.72
-9.82767e+06
184695
255344
-5.60172e+06
5.59449e+06
-1.79225e+07
1.79234e+07
-5.13335e+06
1.55247e+06
1.34148e+07
2.41369e+07
-2.41345e+07
2.1135e+07
-2.11338e+07
1.12886e+06
-1.38977e+07
1.38979e+07
1.00087e+07
7.2924e+06
-2.21639e+07
2.21644e+07
2.69642e+06
-7.67138e+06
-8.79762e+06
3.34579e+06
-12574.6
12173.1
-1.61054e+07
1.61062e+07
-1.33184e+07
1.33192e+07
2.35406e+06
-2.3552e+06
-6.28959e+06
1.12218e+06
-1.12295e+06
-1.34535e+07
-1.8577e+07
8.56848e+06
1.49578e+07
-1.4957e+07
1.77746e+06
-1.56034e+07
1.73167e+06
-1.55933e+06
-1.70602e+07
-1.47735e+07
1.47751e+07
-7.77768e+06
-4.44963e+06
-1.69834e+07
-2.60383e+07
2.6041e+07
1.5441e+07
1.80802e+07
-1.80813e+07
1.3502e+07
-1.3501e+07
-18895
18656
8.84711e+06
1.00864e+07
6.09952e+06
2.41789e+07
1.0211e+07
1.04008e+07
-8.8444e+06
-8.5602e+06
2.43475e+07
-2.4347e+07
1.20341e+06
2.15362e+07
-2.15359e+07
-9.52911e+06
-1.23894e+07
1.23896e+07
-2.08342e+07
9.2662e+06
-2.24952e+07
2.24962e+07
-1.8947e+07
9.92472e+06
1.51973e+07
7.31506e+06
7.53288e+06
-1.807e+07
1.80709e+07
7.79972e+06
-7.79498e+06
-4.45241e+06
-697553
2.04072e+07
7.70016e+06
-2.05464e+06
-1.09064e+07
1.09307e+07
-4.07528e+06
-2.7537e+07
2.75374e+07
-2.17904e+07
2.17915e+07
1.81554e+06
-4.45965e+06
4.46257e+06
2.39827e+07
-1.6725e+07
1.16181e+07
-2.068e+06
-2.16879e+07
8.34135e+06
2.29178e+07
381075
2.11354e+06
-599501
-8.35603e+06
-1.25215e+07
1.48781e+07
-1.48772e+07
1.97918e+06
-2.89445e+07
2.89463e+07
1.49578e+07
-1.49568e+07
-1.08432e+07
-6.53739e+06
-3.88687e+06
-2.47316e+06
1.40679e+07
2.29881e+07
-2.29877e+07
1.48011e+07
-5.16607e+06
3.75055e+06
-3.38515e+06
272899
-272441
-2.33785e+07
-304966
1.83557e+07
-1.83546e+07
-8.33263e+06
8.33392e+06