0 	31.9371 	-2.73816e-07 	4.36229e-18
0.000254254 	31.9429 	-2.74185e-07 	7.7624e-15
0.000508509 	31.9486 	-2.74185e-07 	7.7624e-15
0.000762763 	31.9544 	-2.74185e-07 	7.7624e-15
0.00101702 	31.9602 	-2.74185e-07 	7.7624e-15
0.00127127 	31.966 	-2.74185e-07 	7.7624e-15
0.00152553 	31.9717 	-2.74185e-07 	7.7624e-15
0.00177978 	31.9775 	-2.74185e-07 	7.7624e-15
0.00203403 	31.9833 	-2.74185e-07 	7.7624e-15
0.00228829 	31.9891 	-2.74185e-07 	7.7624e-15
0.00254254 	31.9949 	-2.74185e-07 	7.76239e-15
0.0027968 	32.0083 	-2.79631e-07 	7.77031e-15
0.00305105 	32.0225 	-2.79631e-07 	7.77031e-15
0.00330531 	32.0367 	-2.79631e-07 	7.77031e-15
0.00355956 	32.051 	-2.79631e-07 	7.77031e-15
0.00381381 	32.0652 	-2.79631e-07 	7.77031e-15
0.00406807 	32.0794 	-2.79631e-07 	7.77031e-15
0.00432232 	32.0936 	-2.79631e-07 	7.77031e-15
0.00457658 	32.1078 	-2.79631e-07 	7.77031e-15
0.00483083 	32.122 	-2.79631e-07 	7.7703e-15
0.00508509 	32.1362 	-2.79631e-07 	7.7703e-15
0.00533934 	32.153 	-3.03013e-07 	7.83225e-15
0.00559359 	32.1703 	-3.03013e-07 	7.83225e-15
0.00584785 	32.1876 	-3.03013e-07 	7.83225e-15
0.0061021 	32.2049 	-3.03013e-07 	7.83225e-15
0.00635636 	32.2222 	-3.03013e-07 	7.83225e-15
0.00661061 	32.2395 	-3.03013e-07 	7.83225e-15
0.00686486 	32.2568 	-3.03013e-07 	7.83225e-15
0.00711912 	32.2741 	-3.03013e-07 	7.83225e-15
0.00737337 	32.2914 	-3.03013e-07 	7.83224e-15
0.00762763 	32.3087 	-3.03013e-07 	7.83224e-15
0.00788188 	32.3268 	-3.43417e-07 	7.85737e-15
0.00813614 	32.3451 	-3.43417e-07 	7.85737e-15
0.00839039 	32.3634 	-3.43417e-07 	7.85737e-15
0.00864464 	32.3818 	-3.43417e-07 	7.85737e-15
0.0088989 	32.4001 	-3.43417e-07 	7.85737e-15
0.00915315 	32.4184 	-3.43417e-07 	7.85737e-15
0.00940741 	32.4368 	-3.43417e-07 	7.85737e-15
0.00966166 	32.4551 	-3.43417e-07 	7.85736e-15
0.00991592 	32.4734 	-3.43417e-07 	7.85736e-15
0.0101702 	32.4918 	-3.43417e-07 	7.85736e-15
0.0104244 	32.5113 	-3.96979e-07 	7.93971e-15
0.0106787 	32.5314 	-3.96979e-07 	7.93971e-15
0.0109329 	32.5516 	-3.96979e-07 	7.93971e-15
0.0111872 	32.5718 	-3.96979e-07 	7.93971e-15
0.0114414 	32.5919 	-3.96979e-07 	7.93971e-15
0.0116957 	32.6121 	-3.96979e-07 	7.9397e-15
0.0119499 	32.6323 	-3.96979e-07 	7.9397e-15
0.0122042 	32.6524 	-3.96979e-07 	7.9397e-15
0.0124585 	32.6726 	-3.96979e-07 	7.9397e-15
0.0127127 	32.6928 	-3.96979e-07 	7.9397e-15
0.012967 	32.7146 	-4.60228e-07 	8.02716e-15
0.0132212 	32.7377 	-4.60228e-07 	8.02716e-15
0.0134755 	32.7607 	-4.60228e-07 	8.02716e-15
0.0137297 	32.7838 	-4.60228e-07 	8.02715e-15
0.013984 	32.8069 	-4.60228e-07 	8.02715e-15
0.0142382 	32.83 	-4.60228e-07 	8.02715e-15
0.0144925 	32.8531 	-4.60228e-07 	8.02715e-15
0.0147467 	32.8762 	-4.60228e-07 	8.02715e-15
0.015001 	32.8993 	-4.60228e-07 	8.02715e-15
0.0152553 	32.9224 	-4.60228e-07 	8.02715e-15
0.0155095 	32.9472 	-5.30535e-07 	8.08635e-15
0.0157638 	32.9739 	-5.30535e-07 	8.08634e-15
0.016018 	33.0006 	-5.30535e-07 	8.08634e-15
0.0162723 	33.0273 	-5.30535e-07 	8.08634e-15
0.0165265 	33.054 	-5.30535e-07 	8.08634e-15
0.0167808 	33.0807 	-5.30535e-07 	8.08634e-15
0.017035 	33.1074 	-5.30535e-07 	8.08634e-15
0.0172893 	33.1341 	-5.30535e-07 	8.08633e-15
0.0175435 	33.1609 	-5.30535e-07 	8.08633e-15
0.0177978 	33.1876 	-5.30535e-07 	8.08633e-15
0.0180521 	33.2157 	-6.06062e-07 	8.15353e-15
0.0183063 	33.2464 	-6.06062e-07 	8.15353e-15
0.0185606 	33.2771 	-6.06062e-07 	8.15352e-15
0.0188148 	33.3078 	-6.06062e-07 	8.15352e-15
0.0190691 	33.3386 	-6.06062e-07 	8.15352e-15
0.0193233 	33.3693 	-6.06062e-07 	8.15352e-15
0.0195776 	33.4 	-6.06062e-07 	8.15352e-15
0.0198318 	33.4307 	-6.06062e-07 	8.15351e-15
0.0200861 	33.4614 	-6.06062e-07 	8.15351e-15
0.0203403 	33.4921 	-6.06062e-07 	8.15351e-15
0.0205946 	33.5239 	-6.85651e-07 	8.2351e-15
0.0208488 	33.5589 	-6.85651e-07 	8.23509e-15
0.0211031 	33.5938 	-6.85651e-07 	8.23509e-15
0.0213574 	33.6287 	-6.85651e-07 	8.23509e-15
0.0216116 	33.6637 	-6.85651e-07 	8.23509e-15
0.0218659 	33.6986 	-6.85651e-07 	8.23509e-15
0.0221201 	33.7335 	-6.85651e-07 	8.23508e-15
0.0223744 	33.7685 	-6.85651e-07 	8.23508e-15
0.0226286 	33.8034 	-6.85651e-07 	8.23508e-15
0.0228829 	33.8383 	-6.85651e-07 	8.23508e-15
0.0231371 	33.8741 	-7.68636e-07 	8.33042e-15
0.0233914 	33.9134 	-7.68636e-07 	8.33042e-15
0.0236456 	33.9528 	-7.68636e-07 	8.33042e-15
0.0238999 	33.9921 	-7.68636e-07 	8.33041e-15
0.0241542 	34.0315 	-7.68636e-07 	8.33041e-15
0.0244084 	34.0708 	-7.68636e-07 	8.33041e-15
0.0246627 	34.1102 	-7.68636e-07 	8.33041e-15
0.0249169 	34.1495 	-7.68636e-07 	8.3304e-15
0.0251712 	34.1888 	-7.68636e-07 	8.3304e-15
0.0254254 	34.2282 	-7.68636e-07 	8.3304e-15
0.0256797 	34.268 	-8.54473e-07 	8.43885e-15
0.0259339 	34.3119 	-8.54473e-07 	8.43885e-15
0.0261882 	34.3559 	-8.54473e-07 	8.43884e-15
0.0264424 	34.3998 	-8.54473e-07 	8.43884e-15
0.0266967 	34.4437 	-8.54473e-07 	8.43884e-15
0.026951 	34.4877 	-8.54473e-07 	8.43884e-15
0.0272052 	34.5316 	-8.54473e-07 	8.43883e-15
0.0274595 	34.5756 	-8.54473e-07 	8.43883e-15
0.0277137 	34.6195 	-8.54473e-07 	8.43883e-15
0.027968 	34.6635 	-8.54473e-07 	8.43882e-15
0.0282222 	34.7074 	-9.92735e-07 	3.282e-18
0.0284765 	34.7561 	-9.41833e-07 	8.56009e-15
0.0287307 	34.8048 	-9.41833e-07 	8.56008e-15
0.028985 	34.8536 	-9.41833e-07 	8.56008e-15
0.0292392 	34.9023 	-9.41833e-07 	8.56008e-15
0.0294935 	34.951 	-9.41833e-07 	8.56007e-15
0.0297477 	34.9997 	-9.41833e-07 	8.56007e-15
0.030002 	35.0484 	-9.41833e-07 	8.56007e-15
0.0302563 	35.0972 	-9.41833e-07 	8.56006e-15
0.0305105 	35.1459 	-9.41833e-07 	8.56006e-15
0.0307648 	35.1946 	-9.41833e-07 	8.56006e-15
0.031019 	35.2478 	-1.02862e-06 	8.74454e-15
0.0312733 	35.3015 	-1.02862e-06 	8.74454e-15
0.0315275 	35.3552 	-1.02862e-06 	8.74453e-15
0.0317818 	35.4089 	-1.02862e-06 	8.74453e-15
0.032036 	35.4625 	-1.02862e-06 	8.74453e-15
0.0322903 	35.5162 	-1.02862e-06 	8.74452e-15
0.0325445 	35.5699 	-1.02862e-06 	8.74452e-15
0.0327988 	35.6236 	-1.02862e-06 	8.74452e-15
0.0330531 	35.6772 	-1.02862e-06 	8.74451e-15
0.0333073 	35.7309 	-1.02862e-06 	8.74451e-15
0.0335616 	35.7888 	-1.11687e-06 	8.84698e-15
0.0338158 	35.8476 	-1.11687e-06 	8.84698e-15
0.0340701 	35.9065 	-1.11687e-06 	8.84698e-15
0.0343243 	35.9653 	-1.11687e-06 	8.84697e-15
0.0345786 	36.0241 	-1.11687e-06 	8.84697e-15
0.0348328 	36.0829 	-1.11687e-06 	8.84696e-15
0.0350871 	36.1417 	-1.11687e-06 	8.84696e-15
0.0353413 	36.2006 	-1.11687e-06 	8.84696e-15
0.0355956 	36.2594 	-1.11687e-06 	8.84695e-15
0.0358498 	36.3182 	-1.11687e-06 	8.84695e-15
0.0361041 	36.3809 	-1.20766e-06 	9.04771e-15
0.0363584 	36.4451 	-1.20766e-06 	9.04771e-15
0.0366126 	36.5092 	-1.20766e-06 	9.04771e-15
0.0368669 	36.5734 	-1.20766e-06 	9.0477e-15
0.0371211 	36.6376 	-1.20766e-06 	9.0477e-15
0.0373754 	36.7017 	-1.20766e-06 	9.04769e-15
0.0376296 	36.7659 	-1.20766e-06 	9.04769e-15
0.0378839 	36.8301 	-1.20766e-06 	9.04769e-15
0.0381381 	36.8942 	-1.20766e-06 	9.04768e-15
0.0383924 	36.9584 	-1.20766e-06 	9.04768e-15
0.0386466 	37.0261 	-1.30284e-06 	9.25106e-15
0.0389009 	37.0958 	-1.30284e-06 	9.25105e-15
0.0391552 	37.1655 	-1.30284e-06 	9.25105e-15
0.0394094 	37.2352 	-1.30284e-06 	9.25105e-15
0.0396637 	37.3049 	-1.30284e-06 	9.25104e-15
0.0399179 	37.3746 	-1.30284e-06 	9.25104e-15
0.0401722 	37.4443 	-1.30284e-06 	9.25103e-15
0.0404264 	37.514 	-1.30284e-06 	9.25103e-15
0.0406807 	37.5838 	-1.30284e-06 	9.25102e-15
0.0409349 	37.6535 	-1.30284e-06 	9.25102e-15
0.0411892 	37.7263 	-1.40181e-06 	9.49489e-15
0.0414434 	37.8018 	-1.40181e-06 	9.49488e-15
0.0416977 	37.8773 	-1.40181e-06 	9.49488e-15
0.041952 	37.9527 	-1.40181e-06 	9.49487e-15
0.0422062 	38.0282 	-1.40181e-06 	9.49487e-15
0.0424605 	38.1037 	-1.40181e-06 	9.49486e-15
0.0427147 	38.1792 	-1.40181e-06 	9.49486e-15
0.042969 	38.2546 	-1.40181e-06 	9.49485e-15
0.0432232 	38.3301 	-1.40181e-06 	9.49485e-15
0.0434775 	38.4056 	-1.40181e-06 	9.49484e-15
0.0437317 	38.4838 	-1.50424e-06 	9.70632e-15
0.043986 	38.5652 	-1.50424e-06 	9.70631e-15
0.0442402 	38.6467 	-1.50424e-06 	9.70631e-15
0.0444945 	38.7282 	-1.50424e-06 	9.7063e-15
0.0447487 	38.8096 	-1.50424e-06 	9.7063e-15
0.045003 	38.8911 	-1.50424e-06 	9.70629e-15
0.0452573 	38.9725 	-1.50424e-06 	9.70629e-15
0.0455115 	39.054 	-1.50424e-06 	9.70628e-15
0.0457658 	39.1355 	-1.50424e-06 	9.70627e-15
0.04602 	39.2169 	-1.50424e-06 	9.70627e-15
0.0462743 	39.3007 	-1.61004e-06 	9.90482e-15
0.0465285 	39.3884 	-1.61004e-06 	9.90481e-15
0.0467828 	39.476 	-1.61004e-06 	9.90481e-15
0.047037 	39.5637 	-1.61004e-06 	9.9048e-15
0.0472913 	39.6514 	-1.61004e-06 	9.9048e-15
0.0475455 	39.7391 	-1.61004e-06 	9.90479e-15
0.0477998 	39.8268 	-1.61004e-06 	9.90478e-15
0.0480541 	39.9145 	-1.61004e-06 	9.90478e-15
0.0483083 	40.0022 	-1.61004e-06 	9.90477e-15
0.0485626 	40.0899 	-1.61004e-06 	9.90477e-15
0.0488168 	40.1793 	-1.71902e-06 	1.00827e-14
0.0490711 	40.2735 	-1.71902e-06 	1.00827e-14
0.0493253 	40.3677 	-1.71902e-06 	1.00827e-14
0.0495796 	40.4618 	-1.71902e-06 	1.00826e-14
0.0498338 	40.556 	-1.71902e-06 	1.00826e-14
0.0500881 	40.6501 	-1.71902e-06 	1.00826e-14
0.0503423 	40.7443 	-1.71902e-06 	1.00826e-14
0.0505966 	40.8385 	-1.71902e-06 	1.00826e-14
0.0508509 	40.9326 	-1.71902e-06 	1.00826e-14
0.0511051 	41.0268 	-1.71902e-06 	1.00826e-14
0.0513594 	41.1222 	-1.83088e-06 	1.03485e-14
0.0516136 	41.2231 	-1.83088e-06 	1.03485e-14
0.0518679 	41.324 	-1.83088e-06 	1.03485e-14
0.0521221 	41.4249 	-1.83088e-06 	1.03485e-14
0.0523764 	41.5258 	-1.83088e-06 	1.03485e-14
0.0526306 	41.6266 	-1.83088e-06 	1.03485e-14
0.0528849 	41.7275 	-1.83088e-06 	1.03485e-14
0.0531391 	41.8284 	-1.83088e-06 	1.03484e-14
0.0533934 	41.9293 	-1.83088e-06 	1.03484e-14
0.0536476 	42.0302 	-1.83088e-06 	1.03484e-14
0.0539019 	42.1317 	-1.94516e-06 	1.05784e-14
0.0541562 	42.2396 	-1.94516e-06 	1.05784e-14
0.0544104 	42.3475 	-1.94516e-06 	1.05783e-14
0.0546647 	42.4553 	-1.94516e-06 	1.05783e-14
0.0549189 	42.5632 	-1.94516e-06 	1.05783e-14
0.0551732 	42.6711 	-1.94516e-06 	1.05783e-14
0.0554274 	42.779 	-1.94516e-06 	1.05783e-14
0.0556817 	42.8868 	-1.94516e-06 	1.05783e-14
0.0559359 	42.9947 	-1.94516e-06 	1.05783e-14
0.0561902 	43.1026 	-1.94516e-06 	1.05783e-14
0.0564444 	43.2105 	-2.31533e-06 	2.25824e-18
0.0566987 	43.3256 	-2.06113e-06 	1.08688e-14
0.056953 	43.4407 	-2.06113e-06 	1.08687e-14
0.0572072 	43.5558 	-2.06113e-06 	1.08687e-14
0.0574615 	43.6709 	-2.06113e-06 	1.08687e-14
0.0577157 	43.786 	-2.06113e-06 	1.08687e-14
0.05797 	43.9011 	-2.06113e-06 	1.08687e-14
0.0582242 	44.0162 	-2.06113e-06 	1.08687e-14
0.0584785 	44.1314 	-2.06113e-06 	1.08687e-14
0.0587327 	44.2465 	-2.06113e-06 	1.08687e-14
0.058987 	44.3616 	-2.06113e-06 	1.08687e-14
0.0592412 	44.4835 	-2.1778e-06 	1.11788e-14
0.0594955 	44.6061 	-2.1778e-06 	1.11788e-14
0.0597497 	44.7287 	-2.1778e-06 	1.11787e-14
0.060004 	44.8513 	-2.1778e-06 	1.11787e-14
0.0602583 	44.9739 	-2.1778e-06 	1.11787e-14
0.0605125 	45.0965 	-2.1778e-06 	1.11787e-14
0.0607668 	45.2191 	-2.1778e-06 	1.11787e-14
0.061021 	45.3418 	-2.1778e-06 	1.11787e-14
0.0612753 	45.4644 	-2.1778e-06 	1.11787e-14
0.0615295 	45.587 	-2.1778e-06 	1.11787e-14
0.0617838 	45.7159 	-2.29521e-06 	1.15582e-14
0.062038 	45.8462 	-2.29521e-06 	1.15582e-14
0.0622923 	45.9766 	-2.29521e-06 	1.15582e-14
0.0625465 	46.1069 	-2.29521e-06 	1.15582e-14
0.0628008 	46.2373 	-2.29521e-06 	1.15582e-14
0.0630551 	46.3676 	-2.29521e-06 	1.15582e-14
0.0633093 	46.498 	-2.29521e-06 	1.15582e-14
0.0635636 	46.6283 	-2.29521e-06 	1.15582e-14
0.0638178 	46.7586 	-2.29521e-06 	1.15581e-14
0.0640721 	46.889 	-2.29521e-06 	1.15581e-14
0.0643263 	47.0251 	-2.41293e-06 	1.18495e-14
0.0645806 	47.1634 	-2.41293e-06 	1.18495e-14
0.0648348 	47.3017 	-2.41293e-06 	1.18495e-14
0.0650891 	47.44 	-2.41293e-06 	1.18495e-14
0.0653433 	47.5783 	-2.41293e-06 	1.18495e-14
0.0655976 	47.7167 	-2.41293e-06 	1.18495e-14
0.0658519 	47.855 	-2.41293e-06 	1.18495e-14
0.0661061 	47.9933 	-2.41293e-06 	1.18494e-14
0.0663604 	48.1316 	-2.41293e-06 	1.18494e-14
0.0666146 	48.2699 	-2.41293e-06 	1.18494e-14
0.0668689 	48.4134 	-2.52982e-06 	1.2221e-14
0.0671231 	48.5599 	-2.52982e-06 	1.2221e-14
0.0673774 	48.7064 	-2.52982e-06 	1.2221e-14
0.0676316 	48.8529 	-2.52982e-06 	1.2221e-14
0.0678859 	48.9994 	-2.52982e-06 	1.2221e-14
0.0681401 	49.1459 	-2.52982e-06 	1.2221e-14
0.0683944 	49.2924 	-2.52982e-06 	1.2221e-14
0.0686486 	49.4389 	-2.52982e-06 	1.22209e-14
0.0689029 	49.5854 	-2.52982e-06 	1.22209e-14
0.0691572 	49.7319 	-2.52982e-06 	1.22209e-14
0.0694114 	49.883 	-2.64449e-06 	1.261e-14
0.0696657 	50.0379 	-2.64449e-06 	1.261e-14
0.0699199 	50.1928 	-2.64449e-06 	1.261e-14
0.0701742 	50.3477 	-2.64449e-06 	1.261e-14
0.0704284 	50.5026 	-2.64449e-06 	1.261e-14
0.0706827 	50.6576 	-2.64449e-06 	1.261e-14
0.0709369 	50.8125 	-2.64449e-06 	1.261e-14
0.0711912 	50.9674 	-2.64449e-06 	1.26099e-14
0.0714454 	51.1223 	-2.64449e-06 	1.26099e-14
0.0716997 	51.2772 	-2.64449e-06 	1.26099e-14
0.071954 	51.4361 	-2.74894e-06 	1.30131e-14
0.0722082 	51.5996 	-2.74894e-06 	1.30131e-14
0.0724625 	51.7632 	-2.74894e-06 	1.3013e-14
0.0727167 	51.9267 	-2.74894e-06 	1.3013e-14
0.072971 	52.0903 	-2.74894e-06 	1.3013e-14
0.0732252 	52.2538 	-2.74894e-06 	1.3013e-14
0.0734795 	52.4173 	-2.74894e-06 	1.3013e-14
0.0737337 	52.5809 	-2.74894e-06 	1.3013e-14
0.073988 	52.7444 	-2.74894e-06 	1.3013e-14
0.0742422 	52.908 	-2.74894e-06 	1.3013e-14
0.0744965 	53.0747 	-2.81907e-06 	1.34288e-14
0.0747508 	53.247 	-2.81907e-06 	1.34288e-14
0.075005 	53.4192 	-2.81907e-06 	1.34287e-14
0.0752593 	53.5915 	-2.81907e-06 	1.34287e-14
0.0755135 	53.7638 	-2.81907e-06 	1.34287e-14
0.0757678 	53.936 	-2.81907e-06 	1.34287e-14
0.076022 	54.1083 	-2.81907e-06 	1.34287e-14
0.0762763 	54.2806 	-2.81907e-06 	1.34287e-14
0.0765305 	54.4528 	-2.81907e-06 	1.34287e-14
0.0767848 	54.6251 	-2.81907e-06 	1.34287e-14
0.077039 	54.7998 	-2.88121e-06 	1.38117e-14
0.0772933 	54.9807 	-2.88121e-06 	1.38117e-14
0.0775475 	55.1617 	-2.88121e-06 	1.38117e-14
0.0778018 	55.3426 	-2.88121e-06 	1.38117e-14
0.0780561 	55.5236 	-2.88121e-06 	1.38117e-14
0.0783103 	55.7046 	-2.88121e-06 	1.38117e-14
0.0785646 	55.8855 	-2.88121e-06 	1.38117e-14
0.0788188 	56.0665 	-2.88121e-06 	1.38117e-14
0.0790731 	56.2475 	-2.88121e-06 	1.38116e-14
0.0793273 	56.4284 	-2.88121e-06 	1.38116e-14
0.0795816 	56.6109 	-2.92335e-06 	1.42474e-14
0.0798358 	56.8004 	-2.92335e-06 	1.42473e-14
0.0800901 	56.99 	-2.92335e-06 	1.42473e-14
0.0803443 	57.1795 	-2.92335e-06 	1.42473e-14
0.0805986 	57.369 	-2.92335e-06 	1.42473e-14
0.0808529 	57.5585 	-2.92335e-06 	1.42473e-14
0.0811071 	57.748 	-2.92335e-06 	1.42473e-14
0.0813614 	57.9376 	-2.92335e-06 	1.42473e-14
0.0816156 	58.1271 	-2.92335e-06 	1.42473e-14
0.0818699 	58.3166 	-2.92335e-06 	1.42472e-14
0.0821241 	58.5069 	-2.94153e-06 	1.46873e-14
0.0823784 	58.7048 	-2.94153e-06 	1.46873e-14
0.0826326 	58.9026 	-2.94153e-06 	1.46873e-14
0.0828869 	59.1005 	-2.94153e-06 	1.46873e-14
0.0831411 	59.2984 	-2.94153e-06 	1.46873e-14
0.0833954 	59.4963 	-2.94153e-06 	1.46873e-14
0.0836496 	59.6942 	-2.94153e-06 	1.46873e-14
0.0839039 	59.892 	-2.94153e-06 	1.46873e-14
0.0841582 	60.0899 	-2.94153e-06 	1.46872e-14
0.0844124 	60.2878 	-2.94153e-06 	1.46872e-14
0.0846667 	60.4857 	-3.85691e-06 	4.43288e-17
0.0849209 	60.6916 	-2.94167e-06 	1.51335e-14
0.0851752 	60.8976 	-2.94167e-06 	1.51335e-14
0.0854294 	61.1036 	-2.94167e-06 	1.51335e-14
0.0856837 	61.3096 	-2.94167e-06 	1.51335e-14
0.0859379 	61.5155 	-2.94167e-06 	1.51335e-14
0.0861922 	61.7215 	-2.94167e-06 	1.51335e-14
0.0864464 	61.9275 	-2.94167e-06 	1.51334e-14
0.0867007 	62.1335 	-2.94167e-06 	1.51334e-14
0.086955 	62.3394 	-2.94167e-06 	1.51334e-14
0.0872092 	62.5454 	-2.94167e-06 	1.51334e-14
0.0874635 	62.7584 	-2.9417e-06 	1.55842e-14
0.0877177 	62.972 	-2.9417e-06 	1.55842e-14
0.087972 	63.1857 	-2.9417e-06 	1.55841e-14
0.0882262 	63.3993 	-2.9417e-06 	1.55841e-14
0.0884805 	63.613 	-2.9417e-06 	1.55841e-14
0.0887347 	63.8266 	-2.9417e-06 	1.55841e-14
0.088989 	64.0403 	-2.9417e-06 	1.55841e-14
0.0892432 	64.2539 	-2.9417e-06 	1.55841e-14
0.0894975 	64.4676 	-2.9417e-06 	1.55841e-14
0.0897518 	64.6813 	-2.9417e-06 	1.5584e-14
0.090006 	64.9007 	-2.95343e-06 	1.60368e-14
0.0902603 	65.1214 	-2.95343e-06 	1.60368e-14
0.0905145 	65.3422 	-2.95343e-06 	1.60368e-14
0.0907688 	65.5629 	-2.95343e-06 	1.60368e-14
0.091023 	65.7836 	-2.95343e-06 	1.60368e-14
0.0912773 	66.0044 	-2.95343e-06 	1.60368e-14
0.0915315 	66.2251 	-2.95343e-06 	1.60367e-14
0.0917858 	66.4459 	-2.95343e-06 	1.60367e-14
0.09204 	66.6666 	-2.95343e-06 	1.60367e-14
0.0922943 	66.8873 	-2.95343e-06 	1.60367e-14
0.0925485 	67.1126 	-2.94484e-06 	1.64887e-14
0.0928028 	67.3397 	-2.94484e-06 	1.64887e-14
0.0930571 	67.5667 	-2.94484e-06 	1.64886e-14
0.0933113 	67.7937 	-2.94484e-06 	1.64886e-14
0.0935656 	68.0208 	-2.94484e-06 	1.64886e-14
0.0938198 	68.2478 	-2.94484e-06 	1.64886e-14
0.0940741 	68.4748 	-2.94484e-06 	1.64886e-14
0.0943283 	68.7019 	-2.94484e-06 	1.64886e-14
0.0945826 	68.9289 	-2.94484e-06 	1.64886e-14
0.0948368 	69.1559 	-2.94484e-06 	1.64885e-14
0.0950911 	69.3863 	-2.90176e-06 	1.68833e-14
0.0953453 	69.6186 	-2.90176e-06 	1.68833e-14
0.0955996 	69.8509 	-2.90176e-06 	1.68832e-14
0.0958539 	70.0832 	-2.90176e-06 	1.68832e-14
0.0961081 	70.3154 	-2.90176e-06 	1.68832e-14
0.0963624 	70.5477 	-2.90176e-06 	1.68832e-14
0.0966166 	70.78 	-2.90176e-06 	1.68832e-14
0.0968709 	71.0123 	-2.90176e-06 	1.68832e-14
0.0971251 	71.2446 	-2.90176e-06 	1.68831e-14
0.0973794 	71.4768 	-2.90176e-06 	1.68831e-14
0.0976336 	71.7112 	-2.82559e-06 	1.73696e-14
0.0978879 	71.9473 	-2.82559e-06 	1.73696e-14
0.0981421 	72.1834 	-2.82559e-06 	1.73696e-14
0.0983964 	72.4195 	-2.82559e-06 	1.73696e-14
0.0986507 	72.6555 	-2.82559e-06 	1.73696e-14
0.0989049 	72.8916 	-2.82559e-06 	1.73696e-14
0.0991592 	73.1277 	-2.82559e-06 	1.73696e-14
0.0994134 	73.3638 	-2.82559e-06 	1.73695e-14
0.0996677 	73.5999 	-2.82559e-06 	1.73695e-14
0.0999219 	73.836 	-2.82559e-06 	1.73695e-14
0.100176 	74.073 	-2.70994e-06 	1.78368e-14
0.10043 	74.3111 	-2.70994e-06 	1.78368e-14
0.100685 	74.5492 	-2.70994e-06 	1.78368e-14
0.100939 	74.7872 	-2.70994e-06 	1.78368e-14
0.101193 	75.0253 	-2.70994e-06 	1.78368e-14
0.101447 	75.2634 	-2.70994e-06 	1.78368e-14
0.101702 	75.5015 	-2.70994e-06 	1.78367e-14
0.101956 	75.7396 	-2.70994e-06 	1.78367e-14
0.10221 	75.9777 	-2.70994e-06 	1.78367e-14
0.102464 	76.2158 	-2.70994e-06 	1.78367e-14
0.102719 	76.4538 	-2.53197e-06 	1.82452e-14
0.102973 	76.6917 	-2.53197e-06 	1.82452e-14
0.103227 	76.9297 	-2.53197e-06 	1.82452e-14
0.103481 	77.1676 	-2.53197e-06 	1.82452e-14
0.103736 	77.4055 	-2.53197e-06 	1.82452e-14
0.10399 	77.6435 	-2.53197e-06 	1.82451e-14
0.104244 	77.8814 	-2.53197e-06 	1.82451e-14
0.104498 	78.1193 	-2.53197e-06 	1.82451e-14
0.104753 	78.3573 	-2.53197e-06 	1.82451e-14
0.105007 	78.5952 	-2.53197e-06 	1.82451e-14
0.105261 	78.8324 	-2.34645e-06 	1.86694e-14
0.105516 	79.0678 	-2.34645e-06 	1.86693e-14
0.10577 	79.3031 	-2.34645e-06 	1.86693e-14
0.106024 	79.5385 	-2.34645e-06 	1.86693e-14
0.106278 	79.7738 	-2.34645e-06 	1.86693e-14
0.106533 	80.0092 	-2.34645e-06 	1.86693e-14
0.106787 	80.2445 	-2.34645e-06 	1.86693e-14
0.107041 	80.4799 	-2.34645e-06 	1.86693e-14
0.107295 	80.7152 	-2.34645e-06 	1.86692e-14
0.10755 	80.9506 	-2.34645e-06 	1.86692e-14
0.107804 	81.185 	-2.05754e-06 	1.90691e-14
0.108058 	81.4152 	-2.05754e-06 	1.90691e-14
0.108312 	81.6454 	-2.05754e-06 	1.90691e-14
0.108567 	81.8756 	-2.05754e-06 	1.90691e-14
0.108821 	82.1058 	-2.05754e-06 	1.9069e-14
0.109075 	82.336 	-2.05754e-06 	1.9069e-14
0.109329 	82.5662 	-2.05754e-06 	1.9069e-14
0.109584 	82.7964 	-2.05754e-06 	1.9069e-14
0.109838 	83.0266 	-2.05754e-06 	1.9069e-14
0.110092 	83.2568 	-2.05754e-06 	1.9069e-14
0.110346 	83.4863 	-1.76092e-06 	1.93599e-14
0.110601 	83.7085 	-1.76092e-06 	1.93599e-14
0.110855 	83.9308 	-1.76092e-06 	1.93599e-14
0.111109 	84.153 	-1.76092e-06 	1.93599e-14
0.111363 	84.3752 	-1.76092e-06 	1.93598e-14
0.111618 	84.5974 	-1.76092e-06 	1.93598e-14
0.111872 	84.8197 	-1.76092e-06 	1.93598e-14
0.112126 	85.0419 	-1.76092e-06 	1.93598e-14
0.11238 	85.2641 	-1.76092e-06 	1.93598e-14
0.112635 	85.4863 	-1.76092e-06 	1.93598e-14
0.112889 	85.7086 	-2.87011e-06 	8.00093e-17
0.113143 	85.9197 	-1.41578e-06 	1.9608e-14
0.113397 	86.1309 	-1.41578e-06 	1.9608e-14
0.113652 	86.342 	-1.41578e-06 	1.9608e-14
0.113906 	86.5531 	-1.41578e-06 	1.96079e-14
0.11416 	86.7643 	-1.41578e-06 	1.96079e-14
0.114414 	86.9754 	-1.41578e-06 	1.96079e-14
0.114669 	87.1866 	-1.41578e-06 	1.96079e-14
0.114923 	87.3977 	-1.41578e-06 	1.96079e-14
0.115177 	87.6088 	-1.41578e-06 	1.96079e-14
0.115431 	87.82 	-1.41578e-06 	1.96079e-14
0.115686 	88.018 	-1.01333e-06 	1.98e-14
0.11594 	88.2148 	-1.01333e-06 	1.98e-14
0.116194 	88.4115 	-1.01333e-06 	1.97999e-14
0.116448 	88.6083 	-1.01333e-06 	1.97999e-14
0.116703 	88.805 	-1.01333e-06 	1.97999e-14
0.116957 	89.0018 	-1.01333e-06 	1.97999e-14
0.117211 	89.1985 	-1.01333e-06 	1.97999e-14
0.117465 	89.3953 	-1.01333e-06 	1.97999e-14
0.11772 	89.592 	-1.01333e-06 	1.97999e-14
0.117974 	89.7888 	-1.01333e-06 	1.97998e-14
0.118228 	89.9709 	-6.03123e-07 	1.99337e-14
0.118482 	90.1498 	-6.03123e-07 	1.99336e-14
0.118737 	90.3287 	-6.03123e-07 	1.99336e-14
0.118991 	90.5076 	-6.03123e-07 	1.99336e-14
0.119245 	90.6865 	-6.03123e-07 	1.99336e-14
0.119499 	90.8653 	-6.03123e-07 	1.99336e-14
0.119754 	91.0442 	-6.03123e-07 	1.99336e-14
0.120008 	91.2231 	-6.03123e-07 	1.99336e-14
0.120262 	91.402 	-6.03123e-07 	1.99336e-14
0.120517 	91.5809 	-6.03123e-07 	1.99336e-14
0.120771 	91.7443 	-1.91599e-07 	2.0006e-14
0.121025 	91.902 	-1.91599e-07 	2.0006e-14
0.121279 	92.0596 	-1.91599e-07 	2.0006e-14
0.121534 	92.2173 	-1.91599e-07 	2.0006e-14
0.121788 	92.3749 	-1.91599e-07 	2.0006e-14
0.122042 	92.5326 	-1.91599e-07 	2.0006e-14
0.122296 	92.6902 	-1.91599e-07 	2.00059e-14
0.122551 	92.8479 	-1.91599e-07 	2.00059e-14
0.122805 	93.0055 	-1.91599e-07 	2.00059e-14
0.123059 	93.1631 	-1.91599e-07 	2.00059e-14
0.123313 	93.3054 	2.21871e-07 	2.00156e-14
0.123568 	93.4388 	2.21871e-07 	2.00156e-14
0.123822 	93.5722 	2.21871e-07 	2.00156e-14
0.124076 	93.7057 	2.21871e-07 	2.00156e-14
0.12433 	93.8391 	2.21871e-07 	2.00156e-14
0.124585 	93.9725 	2.21871e-07 	2.00156e-14
0.124839 	94.1059 	2.21871e-07 	2.00156e-14
0.125093 	94.2393 	2.21871e-07 	2.00156e-14
0.125347 	94.3728 	2.21871e-07 	2.00156e-14
0.125602 	94.5062 	2.21871e-07 	2.00156e-14
0.125856 	94.6251 	5.97125e-07 	1.9969e-14
0.12611 	94.7321 	5.97125e-07 	1.9969e-14
0.126364 	94.839 	5.97125e-07 	1.99689e-14
0.126619 	94.9459 	5.97125e-07 	1.99689e-14
0.126873 	95.0528 	5.97125e-07 	1.99689e-14
0.127127 	95.1597 	5.97125e-07 	1.99689e-14
0.127381 	95.2666 	5.97125e-07 	1.99689e-14
0.127636 	95.3735 	5.97125e-07 	1.99689e-14
0.12789 	95.4804 	5.97125e-07 	1.99689e-14
0.128144 	95.5873 	5.97125e-07 	1.99689e-14
0.128398 	95.6816 	9.26107e-07 	1.98831e-14
0.128653 	95.7607 	9.26107e-07 	1.98831e-14
0.128907 	95.8398 	9.26107e-07 	1.98831e-14
0.129161 	95.9189 	9.26107e-07 	1.98831e-14
0.129415 	95.9981 	9.26107e-07 	1.98831e-14
0.12967 	96.0772 	9.26107e-07 	1.98831e-14
0.129924 	96.1563 	9.26107e-07 	1.98831e-14
0.130178 	96.2354 	9.26107e-07 	1.98831e-14
0.130432 	96.3146 	9.26107e-07 	1.98831e-14
0.130687 	96.3937 	9.26107e-07 	1.98831e-14
0.130941 	96.4627 	1.20553e-06 	1.97711e-14
0.131195 	96.5139 	1.20553e-06 	1.97711e-14
0.131449 	96.5652 	1.20553e-06 	1.97711e-14
0.131704 	96.6164 	1.20553e-06 	1.97711e-14
0.131958 	96.6677 	1.20553e-06 	1.97711e-14
0.132212 	96.7189 	1.20553e-06 	1.97711e-14
0.132466 	96.7702 	1.20553e-06 	1.97711e-14
0.132721 	96.8214 	1.20553e-06 	1.97711e-14
0.132975 	96.8727 	1.20553e-06 	1.97711e-14
0.133229 	96.9239 	1.20553e-06 	1.97711e-14
0.133483 	96.9678 	1.42656e-06 	1.96378e-14
0.133738 	96.9921 	1.42656e-06 	1.96378e-14
0.133992 	97.0165 	1.42656e-06 	1.96378e-14
0.134246 	97.0408 	1.42656e-06 	1.96378e-14
0.134501 	97.0651 	1.42656e-06 	1.96378e-14
0.134755 	97.0894 	1.42656e-06 	1.96378e-14
0.135009 	97.1138 	1.42656e-06 	1.96378e-14
0.135263 	97.1381 	1.42656e-06 	1.96378e-14
0.135518 	97.1624 	1.42656e-06 	1.96378e-14
0.135772 	97.1867 	1.42656e-06 	1.96378e-14
0.136026 	97.2064 	1.62521e-06 	1.95286e-14
0.13628 	97.2055 	1.62521e-06 	1.95286e-14
0.136535 	97.2046 	1.62521e-06 	1.95286e-14
0.136789 	97.2037 	1.62521e-06 	1.95286e-14
0.137043 	97.2028 	1.62521e-06 	1.95286e-14
0.137297 	97.2018 	1.62521e-06 	1.95286e-14
0.137552 	97.2009 	1.62521e-06 	1.95286e-14
0.137806 	97.2 	1.62521e-06 	1.95286e-14
0.13806 	97.1991 	1.62521e-06 	1.95286e-14
0.138314 	97.1981 	1.62521e-06 	1.95286e-14
0.138569 	97.1951 	1.78168e-06 	1.9305e-14
0.138823 	97.171 	1.78168e-06 	1.9305e-14
0.139077 	97.1468 	1.78168e-06 	1.9305e-14
0.139331 	97.1227 	1.78168e-06 	1.9305e-14
0.139586 	97.0985 	1.78168e-06 	1.9305e-14
0.13984 	97.0744 	1.78168e-06 	1.9305e-14
0.140094 	97.0503 	1.78168e-06 	1.9305e-14
0.140348 	97.0261 	1.78168e-06 	1.9305e-14
0.140603 	97.002 	1.78168e-06 	1.93051e-14
0.140857 	96.9778 	1.78168e-06 	1.93051e-14
0.141111 	96.9537 	9.67997e-07 	5.77137e-17
0.141365 	96.9085 	1.90708e-06 	1.91171e-14
0.14162 	96.8633 	1.90708e-06 	1.91171e-14
0.141874 	96.8181 	1.90708e-06 	1.91171e-14
0.142128 	96.7729 	1.90708e-06 	1.91171e-14
0.142382 	96.7277 	1.90708e-06 	1.91171e-14
0.142637 	96.6825 	1.90708e-06 	1.91171e-14
0.142891 	96.6373 	1.90708e-06 	1.91171e-14
0.143145 	96.5921 	1.90708e-06 	1.91171e-14
0.143399 	96.5469 	1.90708e-06 	1.91172e-14
0.143654 	96.5017 	1.90708e-06 	1.91172e-14
0.143908 	96.4393 	2.02435e-06 	1.88673e-14
0.144162 	96.3751 	2.02435e-06 	1.88674e-14
0.144416 	96.311 	2.02435e-06 	1.88674e-14
0.144671 	96.2469 	2.02435e-06 	1.88674e-14
0.144925 	96.1828 	2.02435e-06 	1.88674e-14
0.145179 	96.1187 	2.02435e-06 	1.88674e-14
0.145433 	96.0545 	2.02435e-06 	1.88674e-14
0.145688 	95.9904 	2.02435e-06 	1.88674e-14
0.145942 	95.9263 	2.02435e-06 	1.88674e-14
0.146196 	95.8622 	2.02435e-06 	1.88674e-14
0.14645 	95.7843 	2.13039e-06 	1.85891e-14
0.146705 	95.7033 	2.13039e-06 	1.85891e-14
0.146959 	95.6223 	2.13039e-06 	1.85891e-14
0.147213 	95.5413 	2.13039e-06 	1.85891e-14
0.147467 	95.4603 	2.13039e-06 	1.85892e-14
0.147722 	95.3793 	2.13039e-06 	1.85892e-14
0.147976 	95.2983 	2.13039e-06 	1.85892e-14
0.14823 	95.2173 	2.13039e-06 	1.85892e-14
0.148484 	95.1363 	2.13039e-06 	1.85892e-14
0.148739 	95.0553 	2.13039e-06 	1.85892e-14
0.148993 	94.9634 	2.23127e-06 	1.83669e-14
0.149247 	94.8674 	2.23127e-06 	1.83669e-14
0.149502 	94.7714 	2.23127e-06 	1.83669e-14
0.149756 	94.6754 	2.23127e-06 	1.83669e-14
0.15001 	94.5795 	2.23127e-06 	1.83669e-14
0.150264 	94.4835 	2.23127e-06 	1.83669e-14
0.150519 	94.3875 	2.23127e-06 	1.83669e-14
0.150773 	94.2915 	2.23127e-06 	1.83669e-14
0.151027 	94.1955 	2.23127e-06 	1.83669e-14
0.151281 	94.0996 	2.23127e-06 	1.83669e-14
0.151536 	93.9952 	2.32709e-06 	1.81224e-14
0.15179 	93.886 	2.32709e-06 	1.81224e-14
0.152044 	93.7769 	2.32709e-06 	1.81224e-14
0.152298 	93.6677 	2.32709e-06 	1.81225e-14
0.152553 	93.5586 	2.32709e-06 	1.81225e-14
0.152807 	93.4495 	2.32709e-06 	1.81225e-14
0.153061 	93.3403 	2.32709e-06 	1.81225e-14
0.153315 	93.2312 	2.32709e-06 	1.81225e-14
0.15357 	93.122 	2.32709e-06 	1.81225e-14
0.153824 	93.0129 	2.32709e-06 	1.81225e-14
0.154078 	92.8975 	2.41454e-06 	1.78671e-14
0.154332 	92.777 	2.41454e-06 	1.78671e-14
0.154587 	92.6565 	2.41454e-06 	1.78671e-14
0.154841 	92.536 	2.41454e-06 	1.78671e-14
0.155095 	92.4155 	2.41454e-06 	1.78671e-14
0.155349 	92.295 	2.41454e-06 	1.78671e-14
0.155604 	92.1745 	2.41454e-06 	1.78671e-14
0.155858 	92.054 	2.41454e-06 	1.78671e-14
0.156112 	91.9334 	2.41454e-06 	1.78671e-14
0.156366 	91.8129 	2.41454e-06 	1.78671e-14
0.156621 	91.6881 	2.49028e-06 	1.76022e-14
0.156875 	91.5581 	2.49028e-06 	1.76022e-14
0.157129 	91.4281 	2.49028e-06 	1.76022e-14
0.157383 	91.298 	2.49028e-06 	1.76022e-14
0.157638 	91.168 	2.49028e-06 	1.76022e-14
0.157892 	91.038 	2.49028e-06 	1.76022e-14
0.158146 	90.908 	2.49028e-06 	1.76022e-14
0.1584 	90.7779 	2.49028e-06 	1.76022e-14
0.158655 	90.6479 	2.49028e-06 	1.76022e-14
0.158909 	90.5179 	2.49028e-06 	1.76022e-14
0.159163 	90.3851 	2.55212e-06 	1.73706e-14
0.159417 	90.2474 	2.55212e-06 	1.73706e-14
0.159672 	90.1098 	2.55212e-06 	1.73706e-14
0.159926 	89.9721 	2.55212e-06 	1.73706e-14
0.16018 	89.8345 	2.55212e-06 	1.73706e-14
0.160434 	89.6968 	2.55212e-06 	1.73706e-14
0.160689 	89.5592 	2.55212e-06 	1.73707e-14
0.160943 	89.4215 	2.55212e-06 	1.73707e-14
0.161197 	89.2839 	2.55212e-06 	1.73707e-14
0.161451 	89.1462 	2.55212e-06 	1.73707e-14
0.161706 	89.007 	2.59937e-06 	1.71503e-14
0.16196 	88.8636 	2.59937e-06 	1.71503e-14
0.162214 	88.7202 	2.59937e-06 	1.71503e-14
0.162468 	88.5768 	2.59937e-06 	1.71503e-14
0.162723 	88.4334 	2.59937e-06 	1.71503e-14
0.162977 	88.2899 	2.59937e-06 	1.71504e-14
0.163231 	88.1465 	2.59937e-06 	1.71504e-14
0.163485 	88.0031 	2.59937e-06 	1.71504e-14
0.16374 	87.8597 	2.59937e-06 	1.71504e-14
0.163994 	87.7163 	2.59937e-06 	1.71504e-14
0.164248 	87.5722 	2.63242e-06 	1.68617e-14
0.164503 	87.4249 	2.63242e-06 	1.68617e-14
0.164757 	87.2775 	2.63242e-06 	1.68617e-14
0.165011 	87.1302 	2.63242e-06 	1.68617e-14
0.165265 	86.9828 	2.63242e-06 	1.68617e-14
0.16552 	86.8355 	2.63242e-06 	1.68617e-14
0.165774 	86.6881 	2.63242e-06 	1.68617e-14
0.166028 	86.5408 	2.63242e-06 	1.68618e-14
0.166282 	86.3934 	2.63242e-06 	1.68618e-14
0.166537 	86.2461 	2.63242e-06 	1.68618e-14
0.166791 	86.0985 	2.65215e-06 	1.65721e-14
0.167045 	85.9489 	2.65215e-06 	1.65722e-14
0.167299 	85.7993 	2.65215e-06 	1.65722e-14
0.167554 	85.6497 	2.65215e-06 	1.65722e-14
0.167808 	85.5001 	2.65215e-06 	1.65722e-14
0.168062 	85.3505 	2.65215e-06 	1.65722e-14
0.168316 	85.2009 	2.65215e-06 	1.65722e-14
0.168571 	85.0513 	2.65215e-06 	1.65722e-14
0.168825 	84.9017 	2.65215e-06 	1.65722e-14
0.169079 	84.7521 	2.65215e-06 	1.65722e-14