0 	31.937 	-0.0273816 	6.32201e-13
0.000254254 	31.937 	-0.0273874 	1.2275e-10
0.000508509 	31.9371 	-0.0273932 	2.44867e-10
0.000762763 	31.9403 	-0.0275598 	-7.16387e-06
0.00101702 	31.9461 	-0.027848 	-1.97469e-05
0.00127127 	31.9519 	-0.0281362 	-3.23299e-05
0.00152553 	31.9576 	-0.0284244 	-2.09141e-05
0.00177978 	31.9634 	-0.0287126 	-8.34117e-06
0.00203403 	31.9711 	-0.0290311 	2.55558e-10
0.00228829 	31.9826 	-0.0294093 	1.33374e-10
0.00254254 	31.9942 	-0.0297876 	1.119e-11
0.0027968 	32.0058 	-0.0295565 	1.11083e-10
0.00305105 	32.0173 	-0.029264 	2.33365e-10
0.00330531 	32.0302 	-0.0292122 	-4.31126e-06
0.00355956 	32.0444 	-0.0294164 	-1.32098e-05
0.00381381 	32.0586 	-0.0296206 	-2.21083e-05
0.00406807 	32.0727 	-0.0298248 	-1.56766e-05
0.00432232 	32.0869 	-0.030029 	-6.7943e-06
0.00457658 	32.1017 	-0.0303177 	2.66799e-10
0.00483083 	32.1185 	-0.0308815 	1.44591e-10
0.00508509 	32.1353 	-0.0314453 	2.23832e-11
0.00533934 	32.1522 	-0.0313884 	1.0058e-10
0.00559359 	32.1692 	-0.0311924 	2.23713e-10
0.00584785 	32.1863 	-0.0312504 	-7.6066e-06
0.0061021 	32.2035 	-0.0316795 	-2.63225e-05
0.00635636 	32.2208 	-0.0321086 	-4.50383e-05
0.00661061 	32.238 	-0.0325377 	-3.49647e-05
0.00686486 	32.2553 	-0.0329668 	-1.63055e-05
0.00711912 	32.2726 	-0.0334385 	2.79808e-10
0.00737337 	32.2902 	-0.0342047 	1.568e-10
0.00762763 	32.3078 	-0.034971 	3.37913e-11
0.00788188 	32.3256 	-0.0350859 	8.94494e-11
0.00813614 	32.3435 	-0.0349541 	2.12778e-10
0.00839039 	32.3615 	-0.0350758 	-9.12569e-06
0.00864464 	32.3798 	-0.0356982 	-3.62821e-05
0.0088989 	32.3981 	-0.0363206 	-6.34384e-05
0.00915315 	32.4164 	-0.036943 	-5.38271e-05
0.00940741 	32.4347 	-0.0375654 	-2.67855e-05
0.00966166 	32.453 	-0.038191 	2.91411e-10
0.00991592 	32.4718 	-0.0391496 	1.68257e-10
0.0101702 	32.4905 	-0.0401082 	4.51021e-11
0.0104244 	32.5095 	-0.0403837 	7.88071e-11
0.0106787 	32.5286 	-0.0402645 	2.03152e-10
0.0109329 	32.548 	-0.0403878 	-9.1592e-06
0.0111872 	32.5681 	-0.0411557 	-4.26638e-05
0.0114414 	32.5883 	-0.0419235 	-7.61683e-05
0.0116957 	32.6085 	-0.0426914 	-7.04781e-05
0.0119499 	32.6286 	-0.0434593 	-3.71554e-05
0.0122042 	32.6488 	-0.0442271 	-3.83272e-06
0.0124585 	32.6698 	-0.045323 	1.80929e-10
0.0127127 	32.691 	-0.0464615 	5.68088e-11
0.012967 	32.7125 	-0.0469013 	6.79841e-11
0.0132212 	32.7341 	-0.0467515 	1.93345e-10
0.0134755 	32.756 	-0.0468251 	-8.31998e-06
0.0137297 	32.7791 	-0.0476982 	-4.64081e-05
0.013984 	32.8022 	-0.0485713 	-8.44961e-05
0.0142382 	32.8253 	-0.0494444 	-8.50307e-05
0.0144925 	32.8484 	-0.0503175 	-4.71949e-05
0.0147467 	32.8714 	-0.0511906 	-9.35915e-06
0.015001 	32.8956 	-0.0523907 	1.93768e-10
0.0152553 	32.9202 	-0.0536983 	6.86843e-11
0.0155095 	32.945 	-0.0543207 	5.67469e-11
0.0157638 	32.97 	-0.0541086 	1.82602e-10
0.016018 	32.9953 	-0.0540954 	-7.08728e-06
0.0162723 	33.022 	-0.0550444 	-4.84647e-05
0.0165265 	33.0487 	-0.0559933 	-8.98421e-05
0.0167808 	33.0754 	-0.0569423 	-9.80218e-05
0.017035 	33.1021 	-0.0578912 	-5.69677e-05
0.0172893 	33.1288 	-0.0588402 	-1.59137e-05
0.0175435 	33.1566 	-0.0601073 	2.05919e-10
0.0177978 	33.185 	-0.0615759 	8.03934e-11
0.0180521 	33.2135 	-0.06241 	4.54436e-11
0.0183063 	33.2424 	-0.0621139 	1.71835e-10
0.0185606 	33.2715 	-0.0619896 	-5.77938e-06
0.0188148 	33.3023 	-0.0629948 	-4.95807e-05
0.0190691 	33.333 	-0.064 	-9.33821e-05
0.0193233 	33.3637 	-0.0650053 	-0.000110076
0.0195776 	33.3944 	-0.0660105 	-6.66684e-05
0.0198318 	33.4251 	-0.0670157 	-2.32613e-05
0.0200861 	33.4566 	-0.0683085 	2.18217e-10
0.0203403 	33.4892 	-0.0699333 	9.22052e-11
0.0205946 	33.5218 	-0.0710164 	3.40897e-11
0.0208488 	33.5548 	-0.0706219 	1.61159e-10
0.0211031 	33.588 	-0.0703726 	-4.59222e-06
0.0213574 	33.623 	-0.0714224 	-5.02966e-05
0.0216116 	33.6579 	-0.0724722 	-9.60011e-05
0.0218659 	33.6929 	-0.073522 	-0.000121794
0.0221201 	33.7278 	-0.0745718 	-7.65545e-05
0.0223744 	33.7628 	-0.0756217 	-3.13153e-05
0.0226286 	33.7983 	-0.0768961 	2.30845e-10
0.0228829 	33.8351 	-0.0786755 	1.04209e-10
0.0231371 	33.872 	-0.0800508 	2.26459e-11
0.0233914 	33.9094 	-0.079548 	1.50518e-10
0.0236456 	33.9469 	-0.0791677 	-3.6425e-06
0.0238999 	33.9863 	-0.0802564 	-5.09871e-05
0.0241542 	34.0256 	-0.081345 	-9.83316e-05
0.0244084 	34.065 	-0.0824337 	-0.000133714
0.0246627 	34.1044 	-0.0835224 	-8.69071e-05
0.0249169 	34.1437 	-0.084611 	-4.00998e-05
0.0251712 	34.1834 	-0.0858211 	2.43816e-10
0.0254254 	34.2247 	-0.0877569 	1.1643e-10
0.0256797 	34.2661 	-0.0894727 	1.10778e-11
0.0259339 	34.3079 	-0.0888504 	1.39866e-10
0.0261882 	34.3499 	-0.0883354 	-3.00507e-06
0.0264424 	34.3939 	-0.0894625 	-5.19566e-05
0.0266967 	34.4379 	-0.0905895 	-0.000100908
0.026951 	34.4818 	-0.0917165 	-0.000146441
0.0272052 	34.5258 	-0.0928436 	-9.81014e-05
0.0274595 	34.5698 	-0.0939706 	-4.97621e-05
0.0277137 	34.6137 	-0.0950976 	-1.42289e-06
0.027968 	34.6597 	-0.0971712 	1.28885e-10
0.0282222 	34.7057 	-0.0992735 	6.35937e-13
0.0284765 	34.7522 	-0.0985145 	1.29164e-10
0.0287307 	34.7989 	-0.0978458 	-2.72935e-06
0.028985 	34.8477 	-0.0990135 	-5.33618e-05
0.0292392 	34.8964 	-0.100181 	-0.000103994
0.0294935 	34.9452 	-0.101349 	-0.000154627
0.0297477 	34.9939 	-0.102516 	-0.000110395
0.030002 	35.0426 	-0.103684 	-6.04544e-05
0.0302563 	35.0914 	-0.104852 	-1.05135e-05
0.0305105 	35.1418 	-0.106915 	1.41595e-10
0.0307648 	35.1927 	-0.109217 	1.2381e-11
0.031019 	35.244 	-0.108542 	1.19067e-10
0.0312733 	35.2956 	-0.107672 	-2.85233e-06
0.0315275 	35.3493 	-0.108881 	-5.51314e-05
0.0317818 	35.403 	-0.110089 	-0.00010741
0.032036 	35.4567 	-0.111297 	-0.000159689
0.0322903 	35.5104 	-0.112506 	-0.000123616
0.0325445 	35.5641 	-0.113714 	-7.21103e-05
0.0327988 	35.6178 	-0.114923 	-2.06047e-05
0.0330531 	35.6728 	-0.116946 	1.55477e-10
0.0333073 	35.7287 	-0.119512 	2.44443e-11
0.0335616 	35.7851 	-0.118981 	1.0756e-10
0.0338158 	35.8418 	-0.117898 	-3.41174e-06
0.0340701 	35.9006 	-0.119145 	-5.71992e-05
0.0343243 	35.9595 	-0.120392 	-0.000110987
0.0345786 	36.0183 	-0.121639 	-0.000164774
0.0348328 	36.0772 	-0.122885 	-0.000137522
0.0350871 	36.136 	-0.124132 	-8.4591e-05
0.0353413 	36.1949 	-0.125379 	-3.16598e-05
0.0355956 	36.2546 	-0.127274 	1.67974e-10
0.0358498 	36.3158 	-0.130133 	3.64519e-11
0.0361041 	36.3773 	-0.129837 	9.69595e-11
0.0363584 	36.4393 	-0.128556 	-4.44677e-06
0.0366126 	36.5035 	-0.129839 	-5.9621e-05
0.0368669 	36.5677 	-0.131122 	-0.000114795
0.0371211 	36.6319 	-0.132405 	-0.000169969
0.0373754 	36.696 	-0.133688 	-0.000152121
0.0376296 	36.7602 	-0.134972 	-9.78861e-05
0.0378839 	36.8244 	-0.136255 	-4.36512e-05
0.0381381 	36.8891 	-0.137904 	1.82399e-10
0.0383924 	36.9556 	-0.141068 	4.90283e-11
0.0386466 	37.0226 	-0.14112 	8.59842e-11
0.0389009 	37.0901 	-0.139691 	-5.99315e-06
0.0391552 	37.1598 	-0.141008 	-6.24601e-05
0.0394094 	37.2295 	-0.142326 	-0.000118927
0.0396637 	37.2993 	-0.143643 	-0.000175394
0.0399179 	37.369 	-0.14496 	-0.00016746
0.0401722 	37.4388 	-0.146278 	-0.000112016
0.0404264 	37.5085 	-0.147595 	-5.65717e-05
0.0406807 	37.5782 	-0.148912 	-1.12771e-06
0.0409349 	37.6504 	-0.152317 	6.18849e-11
0.0411892 	37.7229 	-0.152814 	7.49522e-11
0.0414434 	37.7962 	-0.151286 	-8.0868e-06
0.0416977 	37.8717 	-0.152637 	-6.58023e-05
0.041952 	37.9472 	-0.153988 	-0.000123518
0.0422062 	38.0227 	-0.155339 	-0.000181233
0.0424605 	38.0982 	-0.156689 	-0.000183676
0.0427147 	38.1737 	-0.15804 	-0.000127068
0.042969 	38.2492 	-0.159391 	-7.04595e-05
0.0432232 	38.3247 	-0.160742 	-1.38512e-05
0.0434775 	38.4021 	-0.163885 	7.52993e-11
0.0437317 	38.4805 	-0.164917 	6.3254e-11
0.043986 	38.5598 	-0.163342 	-1.07642e-05
0.0442402 	38.6413 	-0.164727 	-6.97142e-05
0.0444945 	38.7228 	-0.166111 	-0.000128664
0.0447487 	38.8043 	-0.167495 	-0.000187614
0.045003 	38.8858 	-0.16888 	-0.000200878
0.0452573 	38.9673 	-0.170264 	-0.00014312
0.0455115 	39.0488 	-0.171648 	-8.53628e-05
0.0457658 	39.1303 	-0.173033 	-2.76052e-05
0.04602 	39.2131 	-0.17578 	8.87162e-11
0.0462743 	39.2975 	-0.177436 	5.11604e-11
0.0465285 	39.3831 	-0.175872 	-1.40499e-05
0.0467828 	39.4708 	-0.177289 	-7.41799e-05
0.047037 	39.5586 	-0.178706 	-0.00013431
0.0472913 	39.6463 	-0.180123 	-0.00019444
0.0475455 	39.734 	-0.181539 	-0.000218944
0.0477998 	39.8217 	-0.182956 	-0.000160091
0.0480541 	39.9095 	-0.184373 	-0.000101239
0.0483083 	39.9972 	-0.18579 	-4.23861e-05
0.0485626 	40.0857 	-0.188004 	1.02187e-10
0.0488168 	40.1764 	-0.190372 	3.87257e-11
0.0490711 	40.2685 	-0.18888 	-1.79543e-05
0.0493253 	40.3627 	-0.190327 	-7.91624e-05
0.0495796 	40.4569 	-0.191775 	-0.000140371
0.0498338 	40.5511 	-0.193222 	-0.000201579
0.0500881 	40.6453 	-0.19467 	-0.000237685
0.0503423 	40.7395 	-0.196117 	-0.000177837
0.0505966 	40.8337 	-0.197565 	-0.00011799
0.0508509 	40.9279 	-0.199012 	-5.81426e-05
0.0511051 	41.0222 	-0.200547 	1.15545e-10
0.0513594 	41.1194 	-0.203715 	2.63391e-11
0.0516136 	41.2184 	-0.202363 	-2.2469e-05
0.0518679 	41.3193 	-0.203838 	-8.45991e-05
0.0521221 	41.4203 	-0.205312 	-0.000146729
0.0523764 	41.5212 	-0.206787 	-0.000208859
0.0526306 	41.6222 	-0.208262 	-0.000256832
0.0528849 	41.7231 	-0.209737 	-0.000196142
0.0531391 	41.824 	-0.211211 	-0.000135453
0.0533934 	41.925 	-0.212686 	-7.47629e-05
0.0536476 	42.0259 	-0.214161 	-1.40733e-05
0.0539019 	42.1292 	-0.217447 	1.35381e-11
0.0541562 	42.2353 	-0.216305 	-2.75569e-05
0.0544104 	42.3432 	-0.217803 	-9.03865e-05
0.0546647 	42.4512 	-0.2193 	-0.000153216
0.0549189 	42.5591 	-0.220797 	-0.000216046
0.0551732 	42.667 	-0.222295 	-0.000276001
0.0554274 	42.7749 	-0.223792 	-0.000214686
0.0556817 	42.8828 	-0.22529 	-0.00015337
0.0559359 	42.9908 	-0.226787 	-9.20543e-05
0.0561902 	43.0987 	-0.228284 	-3.07387e-05
0.0564444 	43.2081 	-0.231533 	4.97277e-13
0.0566987 	43.3217 	-0.230677 	-3.31441e-05
0.056953 	43.4369 	-0.232191 	-9.63765e-05
0.0572072 	43.5521 	-0.233705 	-0.000159609
0.0574615 	43.6672 	-0.235218 	-0.000222841
0.0577157 	43.7824 	-0.236732 	-0.000286074
0.05797 	43.8976 	-0.238246 	-0.000233036
0.0582242 	44.0127 	-0.239759 	-0.000171383
0.0584785 	44.1279 	-0.241273 	-0.000109729
0.0587327 	44.2431 	-0.242787 	-4.80748e-05
0.058987 	44.3589 	-0.245142 	1.26168e-11
0.0592412 	44.4802 	-0.245436 	-3.91951e-05
0.0594955 	44.6029 	-0.246961 	-0.000102589
0.0597497 	44.7255 	-0.248486 	-0.000165982
0.060004 	44.8482 	-0.250011 	-0.000229376
0.0602583 	44.9709 	-0.251536 	-0.00029277
0.0605125 	45.0935 	-0.253061 	-0.000251181
0.0607668 	45.2162 	-0.254586 	-0.000189421
0.061021 	45.3389 	-0.256111 	-0.000127662
0.0612753 	45.4615 	-0.257636 	-6.59025e-05
0.0615295 	45.5842 	-0.25916 	-4.1431e-06
0.0617838 	45.7132 	-0.260553 	-4.56525e-05
0.062038 	45.8436 	-0.262084 	-0.000108985
0.0622923 	45.974 	-0.263616 	-0.000172317
0.0625465 	46.1044 	-0.265147 	-0.00023565
0.0628008 	46.2348 	-0.266679 	-0.000298982
0.0630551 	46.3652 	-0.268114 	-0.000267908
0.0633093 	46.4954 	-0.269464 	-0.000204217
0.0635636 	46.6257 	-0.270815 	-0.000140526
0.0638178 	46.756 	-0.272166 	-7.68349e-05
0.0640721 	46.8863 	-0.273516 	-1.31438e-05
0.0643263 	47.0224 	-0.274934 	-4.12154e-05
0.0645806 	47.1607 	-0.276271 	-0.000102118
0.0648348 	47.2989 	-0.277608 	-0.000163021
0.0650891 	47.4372 	-0.278945 	-0.000223924
0.0653433 	47.5754 	-0.280282 	-0.000284827
0.0655976 	47.7137 	-0.281619 	-0.000263979
0.0658519 	47.8519 	-0.282956 	-0.000200676
0.0661061 	47.9902 	-0.284293 	-0.000137373
0.0663604 	48.1284 	-0.28563 	-7.40708e-05
0.0666146 	48.2667 	-0.286966 	-1.07681e-05
0.0668689 	48.4102 	-0.288543 	-2.79114e-05
0.0671231 	48.5566 	-0.289874 	-8.87258e-05
0.0673774 	48.7031 	-0.291205 	-0.00014954
0.0676316 	48.8495 	-0.292536 	-0.000210355
0.0678859 	48.9959 	-0.293868 	-0.000271169
0.0681401 	49.1424 	-0.295199 	-0.000261238
0.0683944 	49.2888 	-0.29653 	-0.000197971
0.0686486 	49.4352 	-0.297862 	-0.000134704
0.0689029 	49.5817 	-0.299193 	-7.14366e-05
0.0691572 	49.7281 	-0.300524 	-8.16947e-06
0.0694114 	49.8792 	-0.302304 	-1.45629e-05
0.0696657 	50.0341 	-0.303651 	-7.61702e-05
0.0699199 	50.189 	-0.304998 	-0.000137777
0.0701742 	50.3438 	-0.306345 	-0.000199385
0.0704284 	50.4987 	-0.307693 	-0.000260992
0.0706827 	50.6536 	-0.30904 	-0.000261934
0.0709369 	50.8084 	-0.310387 	-0.000197792
0.0711912 	50.9633 	-0.311735 	-0.000133651
0.0714454 	51.1182 	-0.313082 	-6.95089e-05
0.0716997 	51.2731 	-0.314429 	-5.36718e-06
0.071954 	51.4319 	-0.316512 	-5.52762e-07
0.0722082 	51.5954 	-0.317817 	-6.02622e-05
0.0724625 	51.7589 	-0.319121 	-0.000119972
0.0727167 	51.9224 	-0.320425 	-0.000179681
0.072971 	52.0859 	-0.32173 	-0.00023939
0.0732252 	52.2494 	-0.323034 	-0.000250943
0.0734795 	52.413 	-0.324339 	-0.000188737
0.0737337 	52.5765 	-0.325643 	-0.000126531
0.073988 	52.74 	-0.326948 	-6.43249e-05
0.0742422 	52.9035 	-0.328252 	-2.11899e-06
0.0744965 	53.0711 	-0.330437 	6.25883e-05
0.0747508 	53.2425 	-0.331828 	-4.45412e-05
0.075005 	53.4147 	-0.333079 	-0.000101799
0.0752593 	53.5869 	-0.33433 	-0.000159058
0.0755135 	53.7591 	-0.33558 	-0.000216316
0.0757678 	53.9313 	-0.336831 	-0.000237574
0.076022 	54.1036 	-0.338082 	-0.000177892
0.0762763 	54.2758 	-0.339333 	-0.00011821
0.0765305 	54.448 	-0.340584 	-5.85282e-05
0.0767848 	54.6203 	-0.341841 	5.98812e-06
0.077039 	54.7966 	-0.343786 	0.000137231
0.0772933 	54.9759 	-0.345737 	-2.98953e-05
0.0775475 	55.1568 	-0.346944 	-8.49803e-05
0.0778018 	55.3377 	-0.348152 	-0.000140065
0.0780561 	55.5186 	-0.349359 	-0.00019515
0.0783103 	55.6995 	-0.350567 	-0.000225376
0.0785646 	55.8804 	-0.351775 	-0.00016794
0.0788188 	56.0613 	-0.352982 	-0.000110504
0.0790731 	56.2422 	-0.35419 	-5.3068e-05
0.0793273 	56.4234 	-0.355333 	2.53513e-05
0.0795816 	56.6082 	-0.356408 	0.000224672
0.0798358 	56.7953 	-0.359438 	-1.50227e-05
0.0800901 	56.9848 	-0.360522 	-6.44112e-05
0.0803443 	57.1742 	-0.361606 	-0.0001138
0.0805986 	57.3637 	-0.36269 	-0.000163188
0.0808529 	57.5532 	-0.363774 	-0.000199036
0.0811071 	57.7426 	-0.364858 	-0.000147532
0.0813614 	57.9321 	-0.365942 	-9.60278e-05
0.0816156 	58.1216 	-0.367026 	-4.45234e-05
0.0818699 	58.3115 	-0.36782 	4.80095e-05
0.0821241 	58.5047 	-0.367454 	0.000321503
0.0823784 	58.6994 	-0.372107 	-2.56909e-06
0.0826326 	58.8972 	-0.373003 	-4.3432e-05
0.0828869 	59.095 	-0.373899 	-8.42949e-05
0.0831411 	59.2929 	-0.374796 	-0.000125158
0.0833954 	59.4907 	-0.375692 	-0.000162045
0.0836496 	59.6885 	-0.376589 	-0.000119434
0.0839039 	59.8863 	-0.377485 	-7.68222e-05
0.0841582 	60.0841 	-0.378381 	-3.42106e-05
0.0844124 	60.2826 	-0.378594 	7.27786e-05
0.0846667 	60.4839 	-0.376247 	0.000422128
0.0849209 	60.6866 	-0.381932 	6.45435e-05
0.0851752 	60.8919 	-0.383534 	-2.6346e-05
0.0854294 	61.0978 	-0.384237 	-5.8495e-05
0.0856837 	61.3037 	-0.38494 	-9.06439e-05
0.0859379 	61.5096 	-0.385643 	-0.000122793
0.0861922 	61.7155 	-0.386346 	-9.18293e-05
0.0864464 	61.9214 	-0.387049 	-5.83134e-05
0.0867007 	62.1273 	-0.387752 	-2.47974e-05
0.086955 	62.3341 	-0.387265 	9.86013e-05
0.0872092 	62.5433 	-0.383391 	0.000477653
0.0874635 	62.7537 	-0.389051 	0.000156141
0.0877177 	62.966 	-0.392048 	-1.4938e-05
0.087972 	63.1796 	-0.392615 	-4.09234e-05
0.0882262 	63.3932 	-0.393182 	-6.69087e-05
0.0884805 	63.6067 	-0.393749 	-9.28941e-05
0.0887347 	63.8203 	-0.394316 	-7.24681e-05
0.088989 	64.0339 	-0.394883 	-4.53914e-05
0.0892432 	64.2475 	-0.39545 	-1.83147e-05
0.0894975 	64.4621 	-0.394242 	0.000125875
0.0897518 	64.679 	-0.389323 	0.000514864
0.090006 	64.8966 	-0.394306 	0.00025268
0.0902603 	65.1154 	-0.39894 	-5.76118e-06
0.0905145 	65.3361 	-0.399315 	-2.32245e-05
0.0907688 	65.5568 	-0.399691 	-4.06878e-05
0.091023 	65.7775 	-0.400066 	-5.81511e-05
0.0912773 	65.9982 	-0.400441 	-4.752e-05
0.0915315 	66.2189 	-0.400817 	-2.93369e-05
0.0917858 	66.4396 	-0.401192 	-1.11539e-05
0.09204 	66.6614 	-0.399121 	0.00015369
0.0922943 	66.8852 	-0.393167 	0.000551264
0.0925485 	67.1095 	-0.396964 	0.000352618
0.0928028 	67.3342 	-0.403238 	-3.17211e-07
0.0930571 	67.5612 	-0.403298 	-4.02119e-06
0.0933113 	67.7883 	-0.403358 	-7.72516e-06
0.0935656 	68.0153 	-0.403418 	-1.14291e-05
0.0938198 	68.2423 	-0.403478 	-9.83209e-06
0.0940741 	68.4693 	-0.403538 	-5.97941e-06
0.0943283 	68.6963 	-0.403598 	-2.12673e-06
0.0945826 	68.9246 	-0.400541 	0.000178447
0.0948368 	69.1543 	-0.393643 	0.000576824
0.0950911 	69.3844 	-0.395917 	0.00044736
0.0953453 	69.6147 	-0.402663 	6.05715e-05
0.0955996 	69.8467 	-0.403478 	9.60674e-06
0.0958539 	70.0789 	-0.403191 	2.0997e-05
0.0961081 	70.3112 	-0.402905 	3.23872e-05
0.0963624 	70.5435 	-0.402618 	2.95036e-05
0.0966166 	70.7758 	-0.402332 	1.76717e-05
0.0968709 	71.0081 	-0.402045 	5.83969e-06
0.0971251 	71.2414 	-0.397984 	0.000199222
0.0973794 	71.4759 	-0.390245 	0.000592578
0.0976336 	71.7106 	-0.390848 	0.000533613
0.0978879 	71.9454 	-0.397416 	0.000151273
0.0981421 	72.1811 	-0.399628 	1.6219e-05
0.0983964 	72.4172 	-0.398987 	4.30559e-05
0.0986507 	72.6533 	-0.398347 	6.98927e-05
0.0989049 	72.8894 	-0.397707 	6.78889e-05
0.0991592 	73.1255 	-0.397067 	4.00564e-05
0.0994134 	73.3616 	-0.396427 	1.22238e-05
0.0996677 	73.5985 	-0.391334 	0.000215754
0.0999219 	73.8361 	-0.382753 	0.000600465
0.100176 	74.0738 	-0.381539 	0.000610352
0.10043 	74.3116 	-0.387876 	0.000235911
0.100685 	74.5495 	-0.39149 	1.61654e-05
0.100939 	74.7876 	-0.390464 	5.9859e-05
0.101193 	75.0258 	-0.389439 	0.000103553
0.101447 	75.2639 	-0.388413 	0.000108114
0.101702 	75.502 	-0.387388 	6.28868e-05
0.101956 	75.7402 	-0.386362 	1.76593e-05
0.10221 	75.9786 	-0.380244 	0.000224794
0.102464 	76.2172 	-0.370862 	0.00059358
0.102719 	76.4559 	-0.367762 	0.000668051
0.102973 	76.6946 	-0.373925 	0.000308541
0.103227 	76.9332 	-0.379026 	8.06423e-06
0.103481 	77.1712 	-0.377702 	6.4943e-05
0.103736 	77.4092 	-0.376378 	0.000121822
0.10399 	77.6472 	-0.375054 	0.000137981
0.104244 	77.8852 	-0.37373 	7.9237e-05
0.104498 	78.1232 	-0.372406 	2.04933e-05
0.104753 	78.3608 	-0.365351 	0.00022961
0.105007 	78.5982 	-0.355227 	0.000582233
0.105261 	78.8356 	-0.350225 	0.000715849
0.105516 	79.073 	-0.356402 	0.000371466
0.10577 	79.3104 	-0.36258 	2.70819e-05
0.106024 	79.546 	-0.361498 	6.77807e-05
0.106278 	79.7814 	-0.359797 	0.000141346
0.106533 	80.0169 	-0.358096 	0.000175512
0.106787 	80.2523 	-0.356394 	9.9729e-05
0.107041 	80.4878 	-0.354693 	2.39457e-05
0.107295 	80.722 	-0.346527 	0.000225428
0.10755 	80.9557 	-0.335376 	0.000554988
0.107804 	81.1893 	-0.328065 	0.000738468
0.108058 	81.4228 	-0.334063 	0.000415943
0.108312 	81.6563 	-0.340061 	9.34182e-05
0.108567 	81.8875 	-0.340326 	6.38835e-05
0.108821 	82.1178 	-0.338255 	0.000153815
0.109075 	82.3481 	-0.336183 	0.000211858
0.109329 	82.5784 	-0.334111 	0.000119481
0.109584 	82.8087 	-0.33204 	2.71033e-05
0.109838 	83.0369 	-0.323001 	0.000210957
0.110092 	83.2641 	-0.311069 	0.000509505
0.110346 	83.4913 	-0.301547 	0.000729084
0.110601 	83.7182 	-0.307664 	0.000436235
0.110855 	83.9451 	-0.313781 	0.000143387
0.111109 	84.1697 	-0.315587 	5.18284e-05
0.111363 	84.392 	-0.313257 	0.000153378
0.111618 	84.6144 	-0.310926 	0.00023736
0.111872 	84.8367 	-0.308596 	0.000133377
0.112126 	85.0591 	-0.306266 	2.93952e-05
0.11238 	85.2782 	-0.296362 	0.000193362
0.112635 	85.4961 	-0.283473 	0.000462929
0.112889 	85.714 	-0.271399 	0.000709639
0.113143 	85.9314 	-0.277578 	0.000444553
0.113397 	86.1488 	-0.283758 	0.000179468
0.113652 	86.3642 	-0.287075 	3.78223e-05
0.113906 	86.5755 	-0.284394 	0.000154925
0.11416 	86.7868 	-0.281712 	0.000272028
0.114414 	86.998 	-0.279031 	0.000153597
0.114669 	87.2093 	-0.27635 	3.41004e-05
0.114923 	87.4163 	-0.265595 	0.000170396
0.115177 	87.6216 	-0.251618 	0.000408832
0.115431 	87.8269 	-0.23764 	0.000647269
0.115686 	88.0315 	-0.243045 	0.000435038
0.11594 	88.2361 	-0.249434 	0.000199928
0.116194 	88.4396 	-0.254418 	1.96394e-05
0.116448 	88.6365 	-0.251417 	0.000150876
0.116703 	88.8333 	-0.248417 	0.000282112
0.116957 	89.0302 	-0.245416 	0.000173829
0.117211 	89.2271 	-0.242416 	4.04014e-05
0.117465 	89.4186 	-0.230892 	0.000146563
0.11772 	89.6079 	-0.215667 	0.000356778
0.117974 	89.7972 	-0.200442 	0.000566993
0.118228 	89.9857 	-0.203995 	0.000417495
0.118482 	90.174 	-0.210596 	0.000209613
0.118737 	90.3623 	-0.217197 	1.73119e-06
0.118991 	90.5414 	-0.214053 	0.000139984
0.119245 	90.7204 	-0.210827 	0.000281143
0.119499 	90.8994 	-0.207602 	0.000191021
0.119754 	91.0784 	-0.204376 	4.80622e-05
0.120008 	91.2513 	-0.192514 	0.000124464
0.120262 	91.4211 	-0.176279 	0.000311964
0.120517 	91.5908 	-0.160043 	0.000499464
0.120771 	91.7597 	-0.161635 	0.00039983
0.121025 	91.9284 	-0.168589 	0.000213849
0.121279 	92.097 	-0.175542 	2.78671e-05
0.121534 	92.2564 	-0.173732 	0.000124763
0.121788 	92.4141 	-0.170379 	0.000271515
0.122042 	92.5719 	-0.167025 	0.000205241
0.122296 	92.7296 	-0.163671 	5.72187e-05
0.122551 	92.8808 	-0.151957 	0.000101849
0.122805 	93.0277 	-0.134976 	0.000267877
0.123059 	93.1746 	-0.117994 	0.000433904
0.123313 	93.3207 	-0.117533 	0.000375673
0.123568 	93.4664 	-0.124953 	0.000210476
0.123822 	93.6121 	-0.132372 	4.52796e-05
0.124076 	93.7489 	-0.131997 	0.00010533
0.12433 	93.8824 	-0.128679 	0.00025043
0.124585 	94.0159 	-0.125361 	0.000211993
0.124839 	94.1494 	-0.122043 	6.62379e-05
0.125093 	94.2763 	-0.111065 	8.02664e-05
0.125347 	94.3976 	-0.0937067 	0.000227393
0.125602 	94.519 	-0.0763484 	0.00037452
0.125856 	94.6395 	-0.0738814 	0.000349633
0.12611 	94.7596 	-0.0819706 	0.000202808
0.126364 	94.8796 	-0.0900599 	5.59837e-05
0.126619 	94.9915 	-0.0912273 	8.37321e-05
0.126873 	95.0985 	-0.0881289 	0.000219066
0.127127 	95.2055 	-0.0850306 	0.000208398
0.127381 	95.3124 	-0.0819323 	7.29475e-05
0.127636 	95.4133 	-0.0722159 	6.18263e-05
0.12789 	95.5072 	-0.0547756 	0.000195808
0.128144 	95.601 	-0.0373353 	0.00032979
0.128398 	95.6942 	-0.0328827 	0.0003316
0.128653 	95.7868 	-0.0417751 	0.000197598
0.128907 	95.8794 	-0.0506675 	6.35957e-05
0.129161 	95.965 	-0.0534327 	6.34755e-05
0.129415 	96.0441 	-0.0506633 	0.000184285
0.12967 	96.1233 	-0.047894 	0.000197102
0.129924 	96.2024 	-0.0451246 	7.64449e-05
0.130178 	96.2767 	-0.0370377 	4.56315e-05
0.130432 	96.3423 	-0.0197565 	0.00017016
0.130687 	96.408 	-0.0024754 	0.000294688
0.130941 	96.4732 	0.00395798 	0.000319215
0.131195 	96.5377 	-0.00579805 	0.000194497
0.131449 	96.6022 	-0.0155541 	6.97787e-05
0.131704 	96.6609 	-0.019967 	4.55312e-05
0.131958 	96.7122 	-0.0175936 	0.00014889
0.132212 	96.7635 	-0.0152202 	0.000178909
0.132466 	96.8148 	-0.0128468 	7.58317e-05
0.132721 	96.8625 	-0.00661977 	3.10661e-05
0.132975 	96.9005 	0.0103331 	0.000148596
0.133229 	96.9384 	0.027286 	0.000266125
0.133483 	96.9761 	0.0357331 	0.000310877
0.133738 	97.0131 	0.0251782 	0.00019304
0.133992 	97.0501 	0.0146232 	7.52034e-05
0.134246 	97.0825 	0.00860455 	3.11643e-05
0.134501 	97.1069 	0.0105878 	0.0001173
0.134755 	97.1312 	0.012571 	0.000158167
0.135009 	97.1555 	0.0145542 	7.23856e-05
0.135263 	97.1779 	0.0188042 	1.70925e-05
0.135518 	97.1895 	0.0353026 	0.00012654
0.135772 	97.2011 	0.0518009 	0.000235988
0.136026 	97.2126 	0.0622512 	0.000297803
0.13628 	97.2235 	0.0509049 	0.000187955
0.136535 	97.2344 	0.0395585 	7.81071e-05
0.136789 	97.2419 	0.0319628 	2.04128e-05
0.137043 	97.241 	0.0335962 	9.10543e-05
0.137297 	97.2401 	0.0352297 	0.000137549
0.137552 	97.2392 	0.0368632 	6.72932e-05
0.137806 	97.2378 	0.0391096 	4.23255e-06
0.13806 	97.225 	0.0552726 	0.000104571
0.138314 	97.2122 	0.0714356 	0.00020491
0.138569 	97.1994 	0.0840751 	0.000280065
0.138823 	97.1861 	0.0720953 	0.000179256
0.139077 	97.1728 	0.0601155 	7.84478e-05
0.139331 	97.1571 	0.0510923 	1.286e-05
0.139586 	97.133 	0.0524412 	7.08337e-05
0.13984 	97.1089 	0.0537901 	0.000119624
0.140094 	97.0847 	0.055139 	6.20422e-05
0.140348 	97.0606 	0.056488 	4.46041e-06
0.140603 	97.0265 	0.0713142 	8.66453e-05
0.140857 	96.9915 	0.0872721 	0.000180565
0.141111 	96.9565 	0.102288 	0.000268228
0.141365 	96.9211 	0.0898768 	0.000173776
0.14162 	96.8858 	0.0774659 	7.93237e-05
0.141874 	96.8488 	0.0672333 	8.12405e-06
0.142128 	96.8036 	0.0684214 	5.88418e-05
0.142382 	96.7584 	0.0696096 	0.00010956
0.142637 	96.7132 	0.0707978 	6.04997e-05
0.142891 	96.6681 	0.071986 	1.01887e-05
0.143145 	96.6151 	0.084903 	7.05205e-05
0.143399 	96.5601 	0.100798 	0.000158948
0.143654 	96.5051 	0.116694 	0.000247375
0.143908 	96.4498 	0.105707 	0.000168789
0.144162 	96.3945 	0.0930423 	7.97755e-05
0.144416 	96.3383 	0.0818067 	4.86841e-06
0.144671 	96.2742 	0.0829128 	5.1775e-05
0.144925 	96.2101 	0.0840188 	9.86817e-05
0.145179 	96.146 	0.0851248 	6.19365e-05
0.145433 	96.0819 	0.0862309 	1.54626e-05
0.145688 	96.0119 	0.0971968 	5.54179e-05
0.145942 	95.9391 	0.113079 	0.000138467
0.146196 	95.8662 	0.128961 	0.000221515
0.14645 	95.7931 	0.120437 	0.000162968
0.146705 	95.72 	0.107582 	7.92937e-05
0.146959 	95.6465 	0.0954546 	2.31623e-06
0.147213 	95.5655 	0.0965044 	4.65499e-05
0.147467 	95.4845 	0.0975542 	9.07835e-05
0.147722 	95.4035 	0.098604 	6.42513e-05
0.147976 	95.3225 	0.0996538 	2.04763e-05
0.14823 	95.2373 	0.108604 	4.15425e-05
0.148484 	95.1485 	0.124497 	0.000119593
0.148739 	95.0597 	0.140389 	0.000197644
0.148993 	94.9708 	0.134398 	0.000156972
0.149247 	94.8818 	0.121395 	7.82667e-05
0.149502 	94.7927 	0.108471 	2.35016e-07
0.149756 	94.6967 	0.109476 	4.22904e-05
0.15001 	94.6008 	0.110481 	8.43457e-05
0.150264 	94.5048 	0.111485 	6.68228e-05
0.150519 	94.4088 	0.11249 	2.52486e-05
0.150773 	94.3101 	0.119335 	2.85128e-05
0.151027 	94.2072 	0.135212 	0.00010112
0.151281 	94.1042 	0.151089 	0.000173727
0.151536 	94.0012 	0.147642 	0.000149253
0.15179 	93.8982 	0.134482 	7.59783e-05
0.152044 	93.7952 	0.121321 	2.70328e-06
0.152298 	93.6862 	0.121741 	3.75994e-05
0.152553 	93.5771 	0.122682 	7.66385e-05
0.152807 	93.4679 	0.123622 	6.75076e-05
0.153061 	93.3588 	0.124562 	2.89542e-05
0.153315 	93.2481 	0.129206 	1.66119e-05
0.15357 	93.1329 	0.145019 	8.33264e-05
0.153824 	93.0176 	0.160832 	0.000150041
0.154078 	92.9023 	0.159916 	0.000139838
0.154332 	92.7871 	0.146564 	7.24595e-05
0.154587 	92.6718 	0.133213 	5.08137e-06
0.154841 	92.5516 	0.13299 	3.2181e-05
0.155095 	92.4311 	0.133839 	6.69865e-05
0.155349 	92.3106 	0.134687 	6.51945e-05
0.155604 	92.1901 	0.135535 	3.08542e-05
0.155858 	92.069 	0.137892 	6.17323e-06
0.156112 	91.9433 	0.153598 	6.69744e-05
0.156366 	91.8175 	0.169305 	0.000127776
0.156621 	91.6918 	0.170906 	0.000129678
0.156875 	91.5661 	0.157335 	6.82302e-05
0.157129 	91.4404 	0.143765 	6.78236e-06
0.157383 	91.3108 	0.142921 	2.63689e-05
0.157638 	91.1808 	0.143656 	5.60089e-05
0.157892 	91.0507 	0.144391 	5.98792e-05
0.158146 	90.9207 	0.145126 	3.06602e-05
0.1584 	90.7907 	0.145861 	1.44126e-06
0.158655 	90.6565 	0.1607 	5.25457e-05
0.158909 	90.5221 	0.176271 	0.000107817
0.159163 	90.3878 	0.180387 	0.000119733
0.159417 	90.2535 	0.166587 	6.38394e-05
0.159672 	90.1193 	0.152788 	7.94594e-06
0.159926 	89.9821 	0.151351 	2.06284e-05
0.16018 	89.8444 	0.151962 	4.46748e-05
0.160434 	89.7067 	0.152574 	5.2185e-05
0.160689 	89.569 	0.153185 	2.84984e-05
0.160943 	89.4314 	0.153797 	4.81172e-06
0.161197 	89.291 	0.16621 	4.01427e-05
0.161451 	89.1499 	0.181632 	9.05177e-05
0.161706 	89.0088 	0.188272 	0.000110665
0.16196 	88.8679 	0.174252 	5.96951e-05
0.162214 	88.727 	0.160231 	8.72476e-06
0.162468 	88.584 	0.158236 	1.53125e-05
0.162723 	88.4406 	0.158725 	3.37869e-05
0.162977 	88.2971 	0.159213 	4.29092e-05
0.163231 	88.1537 	0.159701 	2.47237e-05
0.163485 	88.0103 	0.16019 	6.53809e-06
0.16374 	87.8652 	0.170144 	2.95862e-05
0.163994 	87.7193 	0.185412 	7.57785e-05
0.164248 	87.5733 	0.194589 	0.000102772
0.164503 	87.4276 	0.180369 	5.60106e-05
0.164757 	87.2819 	0.166149 	9.24961e-06
0.165011 	87.1349 	0.163634 	1.05744e-05
0.165265 	86.9875 	0.164005 	2.37558e-05
0.16552 	86.8402 	0.164377 	3.26531e-05
0.165774 	86.6928 	0.164748 	1.96855e-05
0.166028 	86.5454 	0.165119 	6.71798e-06
0.166282 	86.3972 	0.172594 	2.05663e-05
0.166537 	86.2482 	0.187705 	6.32377e-05
0.166791 	86.0992 	0.199427 	9.60433e-05
0.167045 	85.9504 	0.185036 	5.28284e-05
0.167299 	85.8017 	0.170644 	9.61347e-06
0.167554 	85.6523 	0.167646 	6.40064e-06
0.167808 	85.5026 	0.167908 	1.46321e-05
0.168062 	85.353 	0.168169 	2.16782e-05
0.168316 	85.2034 	0.16843 	1.35844e-05
0.168571 	85.0538 	0.168691 	5.49054e-06
0.168825 	84.9038 	0.173677 	1.27657e-05
0.169079 	84.7533 	0.188624 	5.24504e-05
0.169333 	84.6027 	0.202887 	9.02795e-05
0.169588 	84.4526 	0.188355 	5.00752e-05
0.169842 	84.3024 	0.173823 	9.8708e-06
0.170096 	84.1521 	0.170376 	2.76697e-06
0.17035 	84.0017 	0.170536 	6.43394e-06
0.170605 	83.8513 	0.170695 	1.01009e-05
0.170859 	83.7009 	0.170855 	6.63182e-06
0.171113 	83.5506 	0.171015 	3.02768e-06
0.171367 	83.4002 	0.173514 	5.93887e-06
0.171622 	83.2495 	0.18829 	4.30505e-05
0.171876 	83.0989 	0.203067 	8.01622e-05
0.17213 	82.9487 	0.190444 	4.76635e-05
0.172384 	82.7985 	0.17581 	1.0055e-05
0.172639 	82.6486 	0.171946 	-3.9764e-07
0.172893 	82.4988 	0.172011 	-9.4074e-07
0.173147 	82.3489 	0.172077 	-1.48384e-06
0.173401 	82.1991 	0.172143 	-1.06837e-06
0.173656 	82.0493 	0.172209 	-5.34753e-07
0.17391 	81.8995 	0.172274 	-1.13783e-09
0.174164 	81.75 	0.186827 	3.47545e-05
0.174418 	81.6006 	0.201417 	6.95998e-05
0.174673 	81.4515 	0.191402 	4.55044e-05
0.174927 	81.3024 	0.176701 	1.01848e-05
0.175181 	81.1541 	0.172449 	-3.0713e-06
0.175435 	81.0059 	0.17243 	-7.38743e-06
0.17569 	80.8578 	0.172411 	-1.17036e-05
0.175944 	80.7096 	0.172392 	-9.18234e-06
0.176198 	80.5615 	0.172373 	-4.94265e-06
0.176452 	80.4133 	0.172354 	-7.02955e-07
0.176707 	80.2659 	0.184358 	2.72918e-05
0.176961 	80.1186 	0.198753 	6.001e-05
0.177215 	79.9716 	0.19136 	4.34137e-05
0.177469 	79.8248 	0.176644 	1.02448e-05
0.177724 	79.6788 	0.172034 	-5.29322e-06
0.177978 	79.5332 	0.171939 	-1.29523e-05
0.178232 	79.3877 	0.171845 	-2.06113e-05
0.178486 	79.2421 	0.171751 	-1.75217e-05