/*--------------------------------*- C++ -*----------------------------------*\
| =========                 |                                                 |
| \\      /  F ield         | OpenFOAM: The Open Source CFD Toolbox           |
|  \\    /   O peration     | Version:  v3.0+                                 |
|   \\  /    A nd           | Web:      www.OpenFOAM.com                      |
|    \\/     M anipulation  |                                                 |
\*---------------------------------------------------------------------------*/
FoamFile
{
    version     2.0;
    format      ascii;
    class       volVectorField;
    location    "1000";
    object      D;
}
// * * * * * * * * * * * * * * * * * * * * * * * * * * * * * * * * * * * * * //

dimensions      [0 1 0 0 0 0 0];

internalField   nonuniform List<vector> 
27023
(
(3.01263e-07 1.15126e-07 0)
(-3.03105e-07 1.1552e-07 0)
(-2.44361e-07 8.86084e-08 0)
(2.42934e-07 8.81854e-08 0)
(2.9704e-07 1.11393e-07 0)
(-2.98862e-07 1.11803e-07 0)
(-1.05468e-06 8.77346e-07 0)
(1.04899e-06 8.76673e-07 0)
(-1.43691e-07 5.58083e-08 0)
(1.42927e-07 5.53604e-08 0)
(-7.58841e-07 5.21853e-07 0)
(7.54018e-07 5.21379e-07 0)
(-3.47912e-08 3.67987e-08 0)
(3.46615e-08 3.63607e-08 0)
(5.45633e-07 1.9811e-06 0)
(-2.58001e-08 2.68437e-07 0)
(-3.12975e-08 2.55819e-07 0)
(1.07454e-06 1.77339e-06 0)
(-1.08235e-06 1.77393e-06 0)
(-7.6395e-07 1.56135e-06 0)
(7.56286e-07 1.56096e-06 0)
(-1.064e-06 8.89097e-07 0)
(1.05828e-06 8.88418e-07 0)
(-6.71367e-07 7.54269e-07 0)
(6.65483e-07 7.53834e-07 0)
(-1.48721e-07 1.37104e-06 0)
(4.53582e-07 5.30074e-07 0)
(-4.01136e-07 3.14517e-05 0)
(4.63887e-07 5.41306e-07 0)
(-1.53193e-06 8.58043e-06 0)
(-2.77782e-07 1.46051e-06 0)
(-7.80418e-07 1.57805e-06 0)
(7.72739e-07 1.57765e-06 0)
(1.04532e-06 2.87567e-06 0)
(5.52666e-07 2.01104e-06 0)
(-1.04769e-06 4.40404e-06 0)
(-6.40184e-07 1.22033e-06 0)
(6.3312e-07 1.21989e-06 0)
(-1.47664e-07 5.69384e-08 0)
(1.46889e-07 5.64992e-08 0)
(2.38494e-07 8.64887e-08 0)
(-2.3989e-07 8.69123e-08 0)
(9.39046e-07 8.44858e-06 0)
(3.0287e-07 1.14645e-07 0)
(-3.04731e-07 1.1505e-07 0)
(-1.09724e-06 1.79385e-06 0)
(1.08941e-06 1.79331e-06 0)
(-6.91783e-07 1.02077e-06 0)
(6.85287e-07 1.02026e-06 0)
(-9.93648e-07 4.41378e-06 0)
(-6.77061e-07 1.01258e-06 0)
(6.70571e-07 1.01208e-06 0)
(1.07268e-06 2.91203e-06 0)
(-2.97841e-08 2.25063e-08 0)
(2.96689e-08 2.21628e-08 0)
(-1.16768e-06 2.84001e-06 0)
(-1.20089e-06 1.12001e-05 0)
(-4.82713e-06 4.35754e-05 0)
(5.51771e-07 4.47739e-06 0)
(-2.4235e-07 8.85839e-08 0)
(2.40946e-07 8.81875e-08 0)
(-1.41364e-06 8.53697e-06 0)
(-8.13941e-08 1.81994e-06 0)
(-5.69308e-07 3.00176e-05 0)
(1.03204e-06 8.54146e-06 0)
(-2.60231e-07 1.45701e-06 0)
(-7.30101e-07 1.78421e-06 0)
(-1.63708e-07 1.3672e-06 0)
(4.47016e-07 3.50242e-07 0)
(6.08678e-07 4.47545e-06 0)
(-6.26617e-07 1.22295e-06 0)
(6.19527e-07 1.22252e-06 0)
(-9.0387e-07 9.59784e-07 0)
(8.97731e-07 9.59201e-07 0)
(-1.53574e-06 1.70255e-06 0)
(1.52838e-06 1.70169e-06 0)
(-1.97618e-08 2.7732e-08 0)
(1.97038e-08 2.73646e-08 0)
(1.27508e-06 1.15826e-06 0)
(-1.28139e-06 1.15908e-06 0)
(3.94365e-07 9.22179e-07 0)
(-7.52878e-07 5.18675e-07 0)
(7.48047e-07 5.18207e-07 0)
(-8.95205e-07 9.63497e-07 0)
(8.89047e-07 9.62917e-07 0)
(1.67347e-06 1.80502e-06 0)
(-1.68098e-06 1.80593e-06 0)
(7.22714e-07 1.78156e-06 0)
(-6.10492e-08 3.18376e-05 0)
(6.58946e-06 9.73474e-05 0)
(-6.42985e-06 9.72925e-05 0)
(-3.31696e-07 1.23612e-07 0)
(3.296e-07 1.23187e-07 0)
(-2.67694e-07 2.80009e-07 0)
(5.48988e-08 2.64864e-08 0)
(6.43053e-07 6.83883e-07 0)
(-6.48776e-07 6.84287e-07 0)
(4.02642e-07 9.13079e-07 0)
(7.14499e-07 6.60681e-06 0)
(-1.93379e-08 5.32423e-06 0)
(1.41478e-06 9.31892e-06 0)
(6.62335e-06 9.87381e-05 0)
(-6.33982e-06 9.87759e-05 0)
(-9.43317e-07 8.20078e-07 0)
(9.37631e-07 8.19493e-07 0)
(-8.76455e-08 5.29009e-06 0)
(-1.05497e-06 9.38684e-07 0)
(1.04907e-06 9.38019e-07 0)
(-1.17436e-06 2.80889e-06 0)
(-5.16274e-06 4.41323e-05 0)
(-1.06953e-06 1.13334e-05 0)
(-1.05129e-06 9.43432e-07 0)
(1.04537e-06 9.4277e-07 0)
(-6.57835e-07 7.41971e-07 0)
(6.51969e-07 7.41547e-07 0)
(-1.54222e-06 1.72429e-06 0)
(1.53481e-06 1.72344e-06 0)
(-2.54734e-07 3.92411e-08 0)
(4.21225e-07 1.85718e-07 0)
(4.54209e-07 1.36241e-06 0)
(-4.50674e-07 2.32801e-06 0)
(-6.10167e-08 1.81535e-06 0)
(7.2997e-07 4.70545e-07 0)
(-7.34292e-07 4.71057e-07 0)
(-1.13735e-06 9.52472e-07 0)
(1.13153e-06 9.51733e-07 0)
(-3.32694e-07 1.22286e-07 0)
(3.30575e-07 1.21853e-07 0)
(-9.32906e-07 8.06969e-07 0)
(9.27246e-07 8.06392e-07 0)
(6.2594e-07 6.54777e-06 0)
(5.44872e-09 1.15395e-08 0)
(-5.40064e-09 1.13687e-08 0)
(2.65566e-07 1.50431e-06 0)
(-4.23459e-07 2.33375e-06 0)
(1.68505e-06 1.82669e-06 0)
(-1.6926e-06 1.8276e-06 0)
(-1.41566e-07 7.99977e-07 0)
(-1.05533e-06 1.60916e-06 0)
(1.04785e-06 1.60859e-06 0)
(9.54804e-07 7.5941e-07 0)
(-9.6021e-07 7.60016e-07 0)
(9.08097e-08 8.74837e-07 0)
(-1.0213e-06 8.44065e-07 0)
(1.01568e-06 8.43418e-07 0)
(2.66495e-07 1.52533e-06 0)
(9.92464e-07 1.18388e-05 0)
(-5.48897e-07 4.37276e-07 0)
(-7.48471e-07 1.79712e-06 0)
(-4.61563e-07 2.13721e-07 0)
(4.58617e-07 2.13336e-07 0)
(-5.38456e-07 2.64071e-07 0)
(5.34903e-07 2.63674e-07 0)
(1.1038e-06 6.83851e-06 0)
(4.71911e-07 1.35931e-06 0)
(4.89239e-06 5.83742e-05 0)
(-4.88192e-06 5.83508e-05 0)
(-5.79104e-07 2.02842e-06 0)
(-1.05668e-06 1.59247e-06 0)
(1.04924e-06 1.59189e-06 0)
(1.96778e-06 5.618e-06 0)
(1.17619e-06 1.18656e-05 0)
(3.69697e-06 1.89122e-05 0)
(-1.43949e-07 4.89087e-06 0)
(6.13561e-07 3.41544e-07 0)
(-6.17538e-07 3.41971e-07 0)
(8.88033e-07 6.86772e-07 0)
(-8.93289e-07 6.87327e-07 0)
(2.916e-07 9.5185e-07 0)
(-3.3271e-08 9.33426e-07 0)
(-5.82965e-07 2.95627e-05 0)
(1.26436e-06 1.14444e-06 0)
(-1.27064e-06 1.14525e-06 0)
(4.00973e-06 5.85469e-05 0)
(-4.00499e-06 5.85106e-05 0)
(2.9106e-06 3.21095e-05 0)
(-9.63152e-08 4.85543e-06 0)
(9.44652e-08 8.62668e-07 0)
(2.44305e-06 3.21629e-05 0)
(-1.53476e-07 7.91221e-07 0)
(7.41678e-07 1.79442e-06 0)
(9.44754e-07 7.5352e-07 0)
(-9.50163e-07 7.54116e-07 0)
(1.34933e-06 9.45331e-06 0)
(1.25955e-06 2.61703e-06 0)
(1.29527e-06 2.61923e-06 0)
(6.30181e-07 6.82898e-07 0)
(-6.35916e-07 6.83296e-07 0)
(3.58612e-06 1.91373e-05 0)
(1.05461e-06 1.58451e-05 0)
(8.81155e-07 6.76796e-07 0)
(-8.86383e-07 6.77347e-07 0)
(3.61261e-07 7.71398e-07 0)
(-1.35986e-07 3.09546e-06 0)
(-1.13579e-06 9.5704e-07 0)
(1.12995e-06 9.56305e-07 0)
(2.94397e-06 9.37786e-06 0)
(8.37462e-07 6.14687e-07 0)
(-8.42501e-07 6.15214e-07 0)
(4.11557e-07 1.82753e-07 0)
(-6.03054e-07 2.04108e-06 0)
(4.39184e-07 3.57193e-07 0)
(-1.74164e-06 2.13155e-06 0)
(1.73357e-06 2.13068e-06 0)
(2.96762e-07 1.10149e-07 0)
(-2.98591e-07 1.10568e-07 0)
(3.79547e-07 1.29825e-06 0)
(2.13814e-06 5.42774e-06 0)
(-1.71295e-06 2.11224e-06 0)
(1.70491e-06 2.11138e-06 0)
(-2.89252e-10 5.4937e-09 0)
(2.85003e-10 5.41986e-09 0)
(-2.5187e-07 2.70831e-07 0)
(3.96284e-07 1.30585e-06 0)
(1.53296e-07 5.66305e-08 0)
(-1.54231e-07 5.72556e-08 0)
(4.14892e-07 7.49681e-07 0)
(-4.44382e-08 9.24679e-07 0)
(-3.85748e-07 1.93145e-05 0)
(1.37369e-06 1.4017e-06 0)
(-1.38052e-06 1.40254e-06 0)
(1.13611e-06 1.61103e-05 0)
(7.36747e-07 4.77645e-07 0)
(-7.411e-07 4.78159e-07 0)
(1.09303e-06 6.93608e-06 0)
(-1.23587e-06 1.37103e-06 0)
(1.22904e-06 1.37028e-06 0)
(-8.80633e-07 8.73918e-07 0)
(8.74691e-07 8.73362e-07 0)
(-8.36309e-08 4.2186e-08 0)
(8.32478e-08 4.17456e-08 0)
(-1.09062e-06 4.46953e-05 0)
(-1.27884e-06 1.39679e-06 0)
(1.27198e-06 1.39602e-06 0)
(1.90345e-06 5.53972e-06 0)
(-1.39882e-06 1.66002e-06 0)
(1.39148e-06 1.65923e-06 0)
(-2.38701e-06 3.50477e-06 0)
(-7.94835e-07 2.56836e-06 0)
(1.07537e-06 8.85762e-07 0)
(-1.08104e-06 8.8646e-07 0)
(-4.64294e-07 4.18347e-07 0)
(-3.36096e-06 1.33903e-05 0)
(-1.69202e-06 3.99694e-06 0)
(9.26932e-07 2.19983e-06 0)
(-2.65493e-07 1.85361e-07 0)
(2.78089e-08 1.12435e-05 0)
(4.16043e-07 4.78438e-07 0)
(-2.09949e-06 8.07079e-06 0)
(9.4257e-07 2.23028e-06 0)
(1.17626e-06 1.08121e-06 0)
(-1.18244e-06 1.08197e-06 0)
(8.31947e-07 6.27108e-06 0)
(2.19366e-07 4.26412e-07 0)
(2.9619e-06 9.7581e-06 0)
(2.13293e-06 5.5009e-06 0)
(-2.00746e-06 3.55607e-06 0)
(2.20578e-06 6.66755e-06 0)
(-8.70375e-07 1.62663e-06 0)
(8.62693e-07 1.6262e-06 0)
(-2.2612e-07 2.34341e-08 0)
(-5.83192e-08 6.73262e-07 0)
(-4.63577e-06 2.46509e-05 0)
(-1.41691e-06 1.65544e-06 0)
(1.40958e-06 1.65465e-06 0)
(-1.03098e-06 8.5456e-07 0)
(1.02533e-06 8.53906e-07 0)
(-1.60048e-07 2.08952e-06 0)
(1.73041e-07 4.23508e-07 0)
(-7.2549e-07 4.59589e-07 0)
(7.21135e-07 4.59094e-07 0)
(-2.47963e-06 1.7607e-05 0)
(4.01917e-07 1.73297e-06 0)
(1.15459e-06 3.95287e-06 0)
(-4.13168e-07 7.62711e-06 0)
(-1.17444e-07 3.1355e-06 0)
(6.19947e-07 3.48218e-07 0)
(-6.23959e-07 3.48647e-07 0)
(8.99336e-07 1.77195e-06 0)
(-9.07284e-07 1.77236e-06 0)
(-2.67481e-06 1.36335e-05 0)
(1.46723e-06 4.06857e-06 0)
(-4.9492e-06 0.000105107 0)
(4.86376e-06 0.000105 0)
(2.62354e-09 2.23066e-08 0)
(-2.60586e-09 2.26117e-08 0)
(5.31796e-07 3.51045e-06 0)
(8.68466e-07 4.6262e-06 0)
(-1.48099e-07 1.74778e-07 0)
(-4.90124e-07 2.31346e-07 0)
(-1.39417e-06 8.714e-05 0)
(5.78663e-07 3.56562e-06 0)
(1.15493e-06 1.25738e-06 0)
(-1.16155e-06 1.2581e-06 0)
(1.55597e-06 1.65025e-06 0)
(-1.56323e-06 1.65115e-06 0)
(1.87453e-06 7.94505e-06 0)
(-1.68414e-06 3.65961e-06 0)
(1.66058e-06 1.98115e-06 0)
(-1.66841e-06 1.982e-06 0)
(-3.15583e-08 3.92952e-08 0)
(-9.81745e-08 2.90169e-07 0)
(9.14358e-07 7.43663e-07 0)
(-9.19806e-07 7.44232e-07 0)
(1.24372e-07 7.1113e-09 0)
(-2.18243e-07 6.89643e-08 0)
(2.16856e-07 6.83864e-08 0)
(-4.29583e-07 7.46875e-07 0)
(-6.23689e-07 2.21444e-06 0)
(2.47755e-07 1.08424e-05 0)
(-3.01877e-07 2.69615e-05 0)
(-4.45968e-09 2.20953e-08 0)
(4.47981e-09 2.17789e-08 0)
(-1.02209e-07 3.82053e-08 0)
(1.01721e-07 3.78359e-08 0)
(-1.60884e-06 7.20624e-06 0)
(7.42669e-07 1.30025e-06 0)
(-7.49777e-07 1.30073e-06 0)
(-2.9486e-08 1.35883e-06 0)
(-6.96821e-07 2.72296e-06 0)
(-5.09191e-08 4.36781e-08 0)
(5.06906e-08 4.3162e-08 0)
(5.00489e-07 5.70391e-07 0)
(3.13655e-07 1.14827e-07 0)
(2.51197e-07 3.66396e-08 0)
(-8.29142e-07 3.52889e-06 0)
(2.7294e-06 6.33062e-06 0)
(-1.88869e-07 2.09769e-06 0)
(-5.33832e-07 4.28332e-07 0)
(5.98153e-07 4.06368e-07 0)
(2.39678e-07 6.16303e-07 0)
(-6.02813e-07 4.06951e-07 0)
(3.15418e-06 6.81584e-06 0)
(-5.33956e-08 2.68832e-08 0)
(-1.48351e-06 7.18637e-06 0)
(3.99941e-07 1.75304e-07 0)
(-4.02471e-07 1.7568e-07 0)
(2.70605e-07 1.39436e-06 0)
(-1.32262e-07 3.03076e-07 0)
(-9.67407e-07 9.04666e-07 0)
(9.61492e-07 9.04061e-07 0)
(4.29528e-06 1.6806e-05 0)
(-4.32703e-06 1.68102e-05 0)
(-4.32919e-10 5.37624e-09 0)
(4.26971e-10 5.30405e-09 0)
(4.21037e-07 3.49309e-07 0)
(-3.15967e-07 1.26721e-07 0)
(3.14059e-07 1.26363e-07 0)
(1.54081e-06 1.55477e-05 0)
(-2.34153e-07 1.91634e-06 0)
(3.03764e-06 1.49337e-05 0)
(-3.05137e-06 1.4934e-05 0)
(-1.3002e-06 1.40535e-06 0)
(1.29333e-06 1.40457e-06 0)
(-2.23386e-08 2.03811e-08 0)
(2.22666e-08 2.00557e-08 0)
(-7.94708e-08 8.59473e-08 0)
(1.24079e-06 1.15028e-06 0)
(-1.24711e-06 1.15107e-06 0)
(1.47965e-07 4.11859e-06 0)
(4.72881e-07 2.52755e-07 0)
(1.60987e-06 2.00007e-06 0)
(-1.61776e-06 2.00089e-06 0)
(9.06221e-07 6.77428e-07 0)
(-9.11333e-07 6.78014e-07 0)
(-1.9081e-06 4.32971e-05 0)
(1.43821e-06 7.04984e-06 0)
(7.78196e-08 3.36541e-07 0)
(3.71737e-07 1.49756e-07 0)
(-3.74116e-07 1.50156e-07 0)
(1.27969e-06 1.19659e-06 0)
(-1.2861e-06 1.19741e-06 0)
(2.18479e-07 1.7401e-07 0)
(1.22719e-06 2.40306e-06 0)
(2.45046e-07 3.29519e-08 0)
(1.58547e-06 3.57571e-06 0)
(1.22616e-06 2.43412e-06 0)
(5.05782e-07 8.24427e-07 0)
(3.5727e-06 2.56591e-05 0)
(-5.85203e-07 1.09509e-06 0)
(-6.66004e-07 2.70099e-06 0)
(5.78395e-07 1.09463e-06 0)
(-1.08223e-06 9.12863e-07 0)
(1.07646e-06 9.12171e-07 0)
(4.14825e-07 5.04684e-07 0)
(-1.91704e-07 9.14118e-07 0)
(-1.23378e-06 1.55218e-05 0)
(2.31515e-06 6.74818e-06 0)
(5.67089e-07 4.41714e-07 0)
(3.16385e-08 -4.2293e-08 0)
(3.85756e-07 3.9369e-07 0)
(-2.65824e-06 8.72443e-05 0)
(-4.77227e-07 2.53157e-07 0)
(-2.14576e-06 9.67454e-05 0)
(-1.59951e-08 2.42941e-07 0)
(2.48472e-07 4.45708e-06 0)
(-8.04241e-07 2.46784e-06 0)
(-1.05802e-06 1.0209e-05 0)
(2.6637e-06 4.6792e-06 0)
(8.68229e-07 2.47212e-06 0)
(-8.73345e-07 8.78324e-07 0)
(8.67381e-07 8.77771e-07 0)
(-3.08336e-07 2.14385e-07 0)
(3.66155e-07 7.59066e-07 0)
(-8.69431e-07 2.6936e-05 0)
(3.84142e-07 1.54564e-07 0)
(-3.8663e-07 1.54968e-07 0)
(-1.1592e-08 1.11347e-06 0)
(-3.94079e-07 1.98199e-06 0)
(5.80611e-07 5.95999e-07 0)
(-4.33912e-08 1.36299e-06 0)
(-5.85279e-07 5.96298e-07 0)
(-1.09354e-09 1.55784e-08 0)
(1.09378e-09 1.53805e-08 0)
(1.60388e-06 2.37398e-05 0)
(-1.21913e-06 3.1867e-06 0)
(-4.31099e-07 1.63781e-07 0)
(-1.26568e-06 2.30237e-06 0)
(-8.78289e-07 3.49636e-06 0)
(9.63521e-07 2.66021e-06 0)
(-2.7301e-07 7.98817e-07 0)
(1.42504e-06 3.52295e-06 0)
(-1.95056e-07 7.00952e-09 0)
(-9.79625e-08 8.61119e-07 0)
(-4.3309e-07 1.96018e-05 0)
(2.29422e-06 4.0889e-06 0)
(1.59091e-06 1.96941e-06 0)
(-1.59875e-06 1.97022e-06 0)
(3.00461e-06 7.31538e-06 0)
(-3.16559e-07 7.69629e-06 0)
(-5.0345e-06 2.48124e-05 0)
(4.20464e-07 7.37691e-07 0)
(-1.46979e-06 1.7916e-06 0)
(1.46222e-06 1.79081e-06 0)
(8.36516e-07 1.00731e-06 0)
(-8.42837e-07 1.00788e-06 0)
(-1.47606e-06 3.154e-06 0)
(-5.41818e-08 -3.762e-08 0)
(-1.75375e-07 6.265e-08 0)
(1.7443e-07 6.22686e-08 0)
(4.67362e-06 1.51293e-05 0)
(-4.68779e-06 1.51295e-05 0)
(-8.86216e-07 1.42619e-06 0)
(8.78981e-07 1.42567e-06 0)
(-1.77157e-10 9.03618e-09 0)
(1.79516e-10 9.15777e-09 0)
(2.6396e-07 7.73928e-07 0)
(3.8607e-07 3.77735e-06 0)
(1.05309e-06 2.48057e-06 0)
(4.00943e-08 -1.05566e-08 0)
(1.53542e-07 2.48443e-08 0)
(8.28228e-07 5.91027e-07 0)
(-8.3314e-07 5.91559e-07 0)
(8.39156e-07 6.02836e-07 0)
(-8.44093e-07 6.03375e-07 0)
(-1.0332e-06 2.02519e-06 0)
(1.02486e-06 2.02469e-06 0)
(-5.11421e-07 2.5093e-07 0)
(5.08147e-07 2.50535e-07 0)
(1.71832e-07 7.41066e-07 0)
(-1.51424e-08 8.46354e-07 0)
(2.08818e-07 1.70325e-06 0)
(1.24777e-06 3.63436e-06 0)
(-3.08426e-07 6.31021e-07 0)
(-3.44703e-06 1.3591e-05 0)
(4.60516e-07 2.74363e-06 0)
(1.0873e-06 9.01445e-07 0)
(-1.093e-06 9.02152e-07 0)
(1.36559e-06 3.72419e-06 0)
(-1.51299e-06 1.55112e-05 0)
(-1.745e-06 3.41447e-05 0)
(-2.00768e-06 4.19926e-06 0)
(-1.43499e-06 3.03899e-06 0)
(5.04833e-07 5.39982e-07 0)
(2.38342e-07 1.35639e-06 0)
(-1.122e-06 1.17492e-06 0)
(1.11554e-06 1.17422e-06 0)
(2.44538e-06 3.40141e-05 0)
(-2.38409e-06 3.40163e-05 0)
(-2.27676e-07 8.01991e-08 0)
(2.26326e-07 7.96965e-08 0)
(-1.27058e-06 1.40242e-06 0)
(1.2637e-06 1.40165e-06 0)
(-4.85106e-08 1.55416e-06 0)
(-1.87354e-07 6.41201e-07 0)
(2.46472e-07 1.34429e-06 0)
(-2.3978e-07 3.20695e-08 0)
(-3.84285e-06 9.6998e-06 0)
(-2.47411e-06 7.05914e-05 0)
(7.37813e-07 4.93439e-07 0)
(-7.4251e-07 4.93909e-07 0)
(7.59417e-07 2.62365e-06 0)
(-4.90589e-07 2.27994e-07 0)
(-4.66656e-08 1.57703e-06 0)
(7.44459e-07 1.31699e-06 0)
(-7.51604e-07 1.31746e-06 0)
(-3.49915e-07 1.42256e-07 0)
(3.47747e-07 1.41877e-07 0)
(-3.90762e-07 3.88929e-07 0)
(2.90558e-06 7.31678e-06 0)
(9.32035e-07 2.67187e-06 0)
(3.60279e-07 1.16976e-07 0)
(-3.62873e-07 1.17434e-07 0)
(2.59132e-06 1.39076e-05 0)
(9.78153e-08 3.17382e-07 0)
(-6.17244e-07 1.04035e-06 0)
(6.10626e-07 1.03988e-06 0)
(4.94525e-07 8.10325e-07 0)
(-9.25921e-07 6.84586e-07 0)
(9.20864e-07 6.83974e-07 0)
(-7.77104e-07 5.42465e-07 0)
(7.7223e-07 5.4198e-07 0)
(5.71312e-07 4.88821e-07 0)
(6.57084e-07 3.92858e-07 0)
(-6.6112e-07 3.93326e-07 0)
(5.37439e-07 2.58762e-06 0)
(1.26194e-06 6.14617e-06 0)
(-1.38828e-06 1.78307e-06 0)
(1.38069e-06 1.78233e-06 0)
(1.25737e-06 2.30242e-06 0)
(1.56584e-06 1.87699e-06 0)
(-1.57352e-06 1.87781e-06 0)
(-2.9187e-06 1.35916e-05 0)
(1.04787e-06 1.08486e-06 0)
(-1.05417e-06 1.08553e-06 0)
(9.1894e-07 1.78574e-06 0)
(-9.269e-07 1.78617e-06 0)
(2.24007e-07 1.53306e-06 0)
(-5.59268e-07 3.08257e-07 0)
(5.55833e-07 3.07836e-07 0)
(4.55375e-06 3.12443e-05 0)
(2.54469e-07 4.52784e-06 0)
(1.64271e-07 1.52422e-06 0)
(1.95694e-07 9.19567e-07 0)
(-7.31797e-07 6.96758e-07 0)
(7.26157e-07 6.9631e-07 0)
(1.22734e-06 1.15154e-06 0)
(-1.23367e-06 1.15233e-06 0)
(8.0505e-07 2.6307e-06 0)
(2.94779e-06 9.25235e-06 0)
(-5.11953e-07 8.24915e-07 0)
(-1.6798e-07 1.59566e-05 0)
(5.20079e-07 4.39226e-07 0)
(5.09377e-07 5.282e-07 0)
(-2.4723e-06 3.33424e-05 0)
(1.7106e-07 6.09197e-08 0)
(-1.71983e-07 6.12982e-08 0)
(3.48376e-06 9.47401e-06 0)
(1.56533e-06 1.67133e-06 0)
(-1.57262e-06 1.67223e-06 0)
(-2.72371e-06 1.78253e-05 0)
(-6.07171e-08 1.50924e-06 0)
(9.63375e-07 9.1596e-07 0)
(-9.69323e-07 9.16568e-07 0)
(4.69524e-07 2.44158e-07 0)
(2.99306e-06 1.51273e-05 0)
(-3.00681e-06 1.51276e-05 0)
(-1.98229e-08 1.12562e-06 0)
(-4.37349e-08 -4.43276e-08 0)
(6.65162e-07 7.37916e-06 0)
(4.3075e-07 5.11004e-07 0)
(6.85677e-07 2.54111e-06 0)
(-6.21214e-07 1.02587e-06 0)
(6.14637e-07 1.02539e-06 0)
(1.95544e-06 8.04889e-06 0)
(4.67483e-09 2.16201e-07 0)
(-1.10972e-06 1.44423e-06 0)
(1.10264e-06 1.44358e-06 0)
(-3.34329e-07 2.2764e-06 0)
(7.62427e-07 1.61691e-06 0)
(-7.70196e-07 1.61728e-06 0)
(2.66664e-07 2.18509e-06 0)
(-3.79126e-07 1.655e-07 0)
(3.76781e-07 1.6514e-07 0)
(8.31873e-07 6.13483e-07 0)
(-8.36931e-07 6.14004e-07 0)
(4.21327e-07 2.0002e-07 0)
(-4.23952e-07 2.0038e-07 0)
(-1.79386e-06 6.4165e-06 0)
(4.51086e-07 7.40062e-07 0)
(-4.58203e-07 7.40632e-07 0)
(-2.08928e-06 7.94356e-06 0)
(4.74587e-07 2.26906e-07 0)
(-4.77627e-07 2.27292e-07 0)
(1.01248e-06 4.62173e-06 0)
(-2.1131e-07 3.69833e-07 0)
(2.80099e-07 9.60696e-07 0)
(1.27627e-06 3.19587e-06 0)
(-4.1778e-08 1.80371e-07 0)
(6.74075e-08 2.08658e-08 0)
(2.19055e-07 1.87079e-07 0)
(2.32023e-06 4.0468e-06 0)
(-6.43139e-07 7.43335e-07 0)
(6.37257e-07 7.42916e-07 0)
(-3.75939e-06 2.92424e-05 0)
(-6.40888e-07 7.60503e-07 0)
(6.34962e-07 7.60079e-07 0)
(5.14519e-06 4.66593e-05 0)
(8.63525e-07 9.3885e-07 0)
(-8.69652e-07 9.39414e-07 0)
(2.29779e-07 1.71455e-06 0)
(1.03322e-07 4.14243e-06 0)
(7.77367e-07 1.60244e-06 0)
(-7.8509e-07 1.60282e-06 0)
(-1.41911e-06 1.74663e-06 0)
(1.4116e-06 1.74586e-06 0)
(-1.68396e-06 3.70814e-06 0)
(-3.37326e-07 7.36155e-07 0)
(-4.84079e-07 4.48706e-07 0)
(-9.83779e-07 1.18853e-06 0)
(9.77173e-07 1.18791e-06 0)
(-1.37366e-06 1.44842e-06 0)
(1.36673e-06 1.44759e-06 0)
(-1.58268e-06 1.13102e-05 0)
(5.08001e-07 2.60867e-06 0)
(-4.74206e-06 0.000106906 0)
(4.6249e-06 0.000106767 0)
(-5.22643e-07 1.07275e-06 0)
(5.15773e-07 1.0723e-06 0)
(5.20697e-06 4.36986e-05 0)
(1.6426e-09 1.80766e-09 0)
(5.11935e-10 7.43557e-10 0)
(-5.18344e-10 7.53687e-10 0)
(-1.6626e-09 1.83166e-09 0)
(7.99231e-07 6.36999e-06 0)
(-3.37258e-08 3.7403e-08 0)
(3.35899e-08 3.69596e-08 0)
(4.67547e-07 2.1412e-07 0)
(-4.70598e-07 2.14509e-07 0)
(3.23843e-07 1.21457e-07 0)
(-3.25886e-07 1.21879e-07 0)
(-3.81926e-07 1.68181e-07 0)
(3.79566e-07 1.67823e-07 0)
(-9.51933e-08 5.29086e-07 0)
(-7.92113e-07 8.42628e-07 0)
(7.86141e-07 8.42116e-07 0)
(1.09707e-06 2.81478e-06 0)
(2.77029e-06 3.646e-05 0)
(7.4421e-07 8.13853e-07 0)
(-7.5016e-07 8.14341e-07 0)
(6.52001e-07 2.53247e-06 0)
(-9.18237e-07 1.11096e-06 0)
(9.11749e-07 1.11036e-06 0)
(8.83946e-07 2.90713e-06 0)
(5.12803e-07 1.64857e-06 0)
(-1.4366e-06 3.07979e-06 0)
(4.04656e-07 1.87996e-07 0)
(-4.07172e-07 1.88352e-07 0)
(-1.28319e-06 2.60418e-06 0)
(-1.08502e-07 3.21506e-06 0)
(3.52966e-10 9.4264e-07 0)
(1.79548e-06 1.57699e-05 0)
(1.05771e-06 1.0827e-06 0)
(-1.064e-06 1.08338e-06 0)
(9.77948e-08 3.47828e-08 0)
(-5.6492e-07 4.66816e-07 0)
(1.26284e-06 1.18314e-06 0)
(-1.26922e-06 1.18395e-06 0)
(2.21862e-11 7.70636e-09 0)
(-2.22933e-11 7.80882e-09 0)
(-1.01465e-06 2.03954e-06 0)
(1.00627e-06 2.03905e-06 0)
(-2.57059e-06 1.3901e-05 0)
(4.18501e-07 1.06758e-05 0)
(-1.45479e-06 1.39333e-06 0)
(1.44802e-06 1.39244e-06 0)
(4.36901e-07 8.25724e-07 0)
(5.70791e-07 4.33652e-07 0)
(-7.86668e-08 -3.66901e-08 0)
(-5.2212e-06 8.14468e-05 0)
(-4.74679e-07 2.45304e-07 0)
(-6.60412e-07 1.94417e-06 0)
(-5.82113e-07 4.33904e-06 0)
(3.45733e-08 4.03614e-08 0)
(2.06747e-07 9.10542e-07 0)
(1.47996e-06 3.54991e-06 0)
(-4.4013e-07 1.83362e-07 0)
(-1.22001e-06 2.81238e-06 0)
(1.49957e-06 4.13877e-06 0)
(3.05366e-07 1.17607e-07 0)
(2.54436e-06 3.33785e-05 0)
(-5.24001e-09 2.30394e-08 0)
(5.25638e-09 2.27155e-08 0)
(-8.80827e-07 9.53197e-07 0)
(8.74678e-07 9.52625e-07 0)
(-4.62972e-07 2.56962e-07 0)
(5.23024e-08 1.23132e-06 0)
(5.02413e-07 2.74708e-06 0)
(9.34883e-07 3.12557e-05 0)
(-5.08836e-06 3.11114e-05 0)
(-1.15117e-06 2.7143e-06 0)
(5.75161e-07 4.81486e-07 0)
(1.06265e-07 2.4147e-06 0)
(-4.79877e-06 4.74918e-05 0)
(5.11831e-06 4.7407e-05 0)
(1.75801e-07 8.35477e-07 0)
(-3.15714e-07 1.1083e-07 0)
(3.13691e-07 1.10372e-07 0)
(-5.34278e-07 5.25518e-07 0)
(-3.04113e-06 8.69881e-06 0)
(1.41516e-07 2.4361e-06 0)
(2.17137e-06 1.79654e-05 0)
(-1.13483e-06 1.18557e-06 0)
(1.12835e-06 1.18485e-06 0)
(1.66796e-06 2.01151e-06 0)
(-1.67584e-06 2.01235e-06 0)
(2.99666e-10 1.86358e-08 0)
(-2.74968e-10 1.83794e-08 0)
(1.52056e-07 1.24906e-05 0)
(7.78573e-08 3.23285e-07 0)
(4.99724e-07 1.85881e-06 0)
(5.13312e-08 7.00293e-07 0)
(5.88829e-07 8.15018e-07 0)
(-5.94907e-07 8.15453e-07 0)
(-2.87765e-06 2.72575e-05 0)
(-1.50492e-07 5.48145e-08 0)
(1.49706e-07 5.44213e-08 0)
(1.38386e-06 1.41872e-06 0)
(-1.39072e-06 1.41957e-06 0)
(3.09629e-06 7.41501e-06 0)
(-9.9829e-07 1.0558e-06 0)
(9.92009e-07 1.05516e-06 0)
(1.73827e-07 4.40144e-08 0)
(-1.50522e-06 3.19027e-06 0)
(8.95784e-07 3.14604e-06 0)
(1.04915e-06 9.11256e-06 0)
(-1.94825e-06 5.12033e-06 0)
(-1.75131e-07 3.34775e-06 0)
(-1.37583e-06 1.7919e-06 0)
(1.36821e-06 1.79117e-06 0)
(-3.37698e-06 3.6685e-05 0)
(1.48979e-07 1.10322e-06 0)
(-9.20928e-07 6.90085e-07 0)
(9.15778e-07 6.89493e-07 0)
(1.13637e-06 5.77653e-06 0)
(1.93895e-06 2.86131e-06 0)
(3.4449e-07 5.43689e-07 0)
(-1.94806e-06 2.86214e-06 0)
(-2.70921e-07 5.25425e-08 0)
(2.68562e-07 5.19444e-08 0)
(-1.13798e-06 3.74665e-06 0)
(-3.62834e-07 1.34054e-07 0)
(1.57814e-06 5.60152e-06 0)
(9.28381e-09 1.36264e-08 0)
(1.05941e-06 2.82134e-06 0)
(3.0285e-07 8.65623e-07 0)
(-4.31682e-06 1.2494e-05 0)
(2.39052e-07 1.37388e-06 0)
(-3.55872e-07 1.11534e-07 0)
(3.53294e-07 1.11071e-07 0)
(1.58397e-06 1.86958e-06 0)
(-1.59163e-06 1.87041e-06 0)
(-5.27983e-07 2.81401e-06 0)
(-2.30044e-07 1.04225e-05 0)
(1.07081e-06 1.12416e-06 0)
(-1.07719e-06 1.12484e-06 0)
(1.04898e-06 2.51128e-06 0)
(-1.49455e-06 6.51929e-06 0)
(-4.68244e-06 4.66654e-05 0)
(-2.75049e-07 1.51544e-06 0)
(-1.64695e-06 8.81821e-06 0)
(-3.09875e-07 1.23329e-07 0)
(3.08009e-07 1.22971e-07 0)
(2.76288e-07 2.24597e-06 0)
(-6.28135e-07 8.58677e-07 0)
(6.21977e-07 8.58214e-07 0)
(1.49202e-06 1.71788e-06 0)
(-1.49943e-06 1.71871e-06 0)
(-2.73024e-08 1.58028e-06 0)
(8.45191e-07 3.15076e-06 0)
(5.57581e-08 3.76662e-08 0)
(4.30301e-06 1.24948e-05 0)
(-6.96231e-07 4.4278e-07 0)
(6.91665e-07 4.4234e-07 0)
(-9.57056e-07 3.72886e-06 0)
(-5.25997e-08 6.58285e-07 0)
(7.32388e-07 4.97753e-06 0)
(1.72551e-06 5.24205e-06 0)
(9.07194e-07 6.71524e-06 0)
(4.14594e-07 4.65019e-07 0)
(1.78101e-07 7.85279e-07 0)
(3.81202e-07 2.16858e-07 0)
(-8.27094e-07 2.58217e-06 0)
(-1.50021e-06 1.66031e-06 0)
(1.49291e-06 1.65945e-06 0)
(-7.6643e-07 5.21721e-07 0)
(7.61656e-07 5.21236e-07 0)
(-4.29149e-06 1.96664e-05 0)
(4.20733e-06 1.96464e-05 0)
(2.09543e-07 1.51531e-06 0)
(-5.20267e-08 -3.32894e-08 0)
(-1.4486e-06 1.64095e-06 0)
(1.44132e-06 1.64013e-06 0)
(1.52542e-06 3.11061e-06 0)
(1.47693e-06 3.65316e-06 0)
(-3.35149e-08 1.95212e-06 0)
(1.01485e-06 8.7175e-06 0)
(-1.73792e-06 9.84598e-05 0)
(-7.05176e-08 4.93792e-08 0)
(7.01846e-08 4.88243e-08 0)
(4.20763e-07 1.73418e-06 0)
(1.97913e-07 2.12212e-06 0)
(-1.01387e-06 8.19919e-07 0)
(1.00833e-06 8.19274e-07 0)
(4.04159e-08 9.20582e-07 0)
(-1.74424e-06 1.57521e-05 0)
(3.26958e-08 -4.54013e-08 0)
(-1.34234e-06 1.25035e-06 0)
(1.33584e-06 1.24951e-06 0)
(3.76051e-07 1.19523e-07 0)
(-3.78952e-07 1.19962e-07 0)
(5.02101e-07 6.61017e-07 0)
(2.99552e-07 1.05503e-07 0)
(-3.01454e-07 1.05961e-07 0)
(8.03987e-07 1.96331e-05 0)
(1.24439e-07 3.78247e-06 0)
(-4.14224e-07 3.09449e-05 0)
(-3.79187e-07 1.61199e-05 0)
(-1.40973e-06 1.76033e-06 0)
(1.40219e-06 1.75957e-06 0)
(5.80205e-07 1.07483e-05 0)
(7.34784e-07 1.35853e-06 0)
(-7.42037e-07 1.35899e-06 0)
(-1.76502e-06 2.06963e-06 0)
(1.75706e-06 2.06875e-06 0)
(4.36559e-07 7.33637e-07 0)
(-4.42486e-07 7.3415e-07 0)
(-5.16933e-07 2.57598e-07 0)
(5.13642e-07 2.57201e-07 0)
(9.40406e-07 7.27857e-07 0)
(-9.45692e-07 7.28459e-07 0)
(-1.79656e-07 1.37854e-06 0)
(2.18967e-06 6.29971e-06 0)
(-9.84498e-07 7.76502e-07 0)
(9.79087e-07 7.75874e-07 0)
(2.85561e-06 8.98807e-06 0)
(6.79023e-08 9.70079e-07 0)
(-5.16689e-07 2.45845e-07 0)
(5.13283e-07 2.45452e-07 0)
(-1.31328e-06 1.89378e-06 0)
(1.30542e-06 1.89312e-06 0)
(5.96839e-07 3.74314e-07 0)
(1.0841e-06 1.13051e-06 0)
(-1.09048e-06 1.1312e-06 0)
(1.50533e-06 1.47802e-06 0)
(-1.51226e-06 1.47894e-06 0)
(-6.01386e-07 3.74673e-07 0)
(-6.40187e-07 3.43944e-06 0)
(-8.32625e-07 2.73463e-06 0)
(-1.56614e-06 3.4642e-05 0)
(-1.11395e-06 1.67268e-06 0)
(1.10639e-06 1.67209e-06 0)
(1.89416e-06 2.85303e-06 0)
(-6.98123e-08 8.3485e-07 0)
(-5.64562e-08 3.82787e-08 0)
(-1.90325e-06 2.85385e-06 0)
(-3.97213e-07 9.4177e-07 0)
(-5.32443e-07 5.12333e-07 0)
(8.46883e-07 2.92804e-06 0)
(-6.32943e-07 8.72628e-07 0)
(6.26757e-07 8.72159e-07 0)
(-9.6579e-09 8.29684e-07 0)
(-1.83332e-07 8.03265e-07 0)
(1.17443e-06 3.50863e-06 0)
(-4.19623e-06 1.50568e-05 0)
(4.18223e-06 1.50565e-05 0)
(-9.19799e-07 6.14219e-06 0)
(4.10289e-08 1.23823e-06 0)
(-1.32579e-08 2.58456e-08 0)
(1.32384e-08 2.54929e-08 0)
(4.12556e-07 4.34065e-07 0)
(4.86854e-07 5.60229e-07 0)
(9.34849e-07 4.65782e-06 0)
(-1.00746e-06 8.19262e-07 0)
(1.00191e-06 8.18624e-07 0)
(6.10346e-07 4.13107e-07 0)
(4.36428e-06 3.1744e-05 0)
(5.97491e-07 3.80354e-07 0)
(-1.40724e-06 1.11814e-05 0)
(-4.98668e-07 2.48308e-07 0)
(4.95526e-07 2.47918e-07 0)
(2.33283e-06 7.10092e-06 0)
(-2.99126e-07 6.16253e-07 0)
(-6.14903e-07 4.13518e-07 0)
(7.71567e-06 7.60164e-05 0)
(-7.72484e-06 7.60139e-05 0)
(-6.02072e-07 3.80712e-07 0)
(1.69932e-06 5.07333e-06 0)
(-5.23203e-07 2.50945e-07 0)
(5.1975e-07 2.50551e-07 0)
(1.50823e-06 1.99486e-06 0)
(-1.51615e-06 1.99562e-06 0)
(-1.42906e-06 3.87231e-06 0)
(2.80632e-07 9.77387e-07 0)
(-9.13836e-07 3.67816e-06 0)
(-7.97906e-07 5.64751e-07 0)
(7.92985e-07 5.64252e-07 0)
(1.09547e-06 1.35463e-06 0)
(-1.10235e-06 1.3553e-06 0)
(1.42829e-09 3.5459e-07 0)
(1.20582e-06 9.06074e-06 0)
(-1.10524e-06 1.68481e-06 0)
(1.09764e-06 1.68423e-06 0)
(1.04148e-06 3.9001e-06 0)
(-1.44568e-07 6.11386e-08 0)
(1.43776e-07 6.05806e-08 0)
(6.41047e-07 2.38628e-06 0)
(3.71969e-07 1.14441e-07 0)
(-2.06926e-06 3.41339e-06 0)
(1.64034e-06 5.25925e-06 0)
(1.41972e-06 3.77198e-06 0)
(2.9655e-06 9.61096e-06 0)
(-6.36781e-07 1.92928e-06 0)
(6.56448e-07 1.88633e-06 0)
(2.84794e-07 3.14782e-06 0)
(-1.39159e-06 1.46284e-06 0)
(1.38464e-06 1.462e-06 0)
(1.82872e-07 1.99383e-05 0)
(-2.79408e-08 4.9137e-07 0)
(-2.89597e-07 1.50254e-06 0)
(9.37864e-07 3.28383e-06 0)
(5.63647e-07 7.49874e-06 0)
(1.0281e-07 2.14476e-07 0)
(7.84915e-08 9.81842e-07 0)
(-1.43697e-06 7.82912e-06 0)
(1.29212e-06 1.03839e-05 0)
(-4.04837e-08 3.6703e-07 0)
(-2.00291e-07 6.81265e-07 0)
(4.15927e-07 4.45531e-07 0)
(-3.96181e-07 9.56399e-07 0)
(3.47686e-06 9.62143e-06 0)
(-5.4401e-07 4.38647e-06 0)
(4.68382e-07 2.89712e-06 0)
(1.75446e-07 6.21349e-08 0)
(-1.76397e-07 6.25052e-08 0)
(-3.987e-07 4.2014e-07 0)
(1.43714e-07 5.60777e-08 0)
(-1.44579e-07 5.67029e-08 0)
(4.79435e-07 1.87438e-06 0)
(2.49072e-07 1.38841e-06 0)
(-7.4112e-07 6.93923e-07 0)
(7.35503e-07 6.93471e-07 0)
(-3.78278e-07 1.57566e-07 0)
(-9.99104e-08 5.17182e-08 0)
(9.93408e-08 5.11059e-08 0)
(3.40507e-07 3.71877e-07 0)
(1.21685e-06 1.55925e-05 0)
(-3.75e-07 1.14866e-07 0)
(4.71561e-07 2.04061e-07 0)
(-5.63145e-07 4.55412e-07 0)
(-3.73352e-07 3.4673e-07 0)
(2.66984e-06 4.75148e-06 0)
(-5.00645e-07 8.1083e-07 0)
(-1.14556e-06 6.54505e-06 0)
(-1.4841e-06 4.30785e-06 0)
(-3.23763e-07 1.26631e-07 0)
(3.21776e-07 1.26244e-07 0)
(-2.38052e-07 1.8928e-06 0)
(1.65534e-07 7.27541e-07 0)
(-6.25887e-08 3.1532e-08 0)
(6.23211e-08 3.11433e-08 0)
(-5.56815e-07 3.79285e-07 0)
(3.74316e-06 0.000143261 0)
(-3.33542e-06 2.89448e-05 0)
(-6.27063e-07 2.70773e-06 0)
(5.94954e-07 1.46778e-06 0)
(-6.02607e-07 1.46814e-06 0)
(1.57644e-06 3.62458e-06 0)
(1.63676e-07 1.1023e-06 0)
(-2.69745e-06 2.75896e-05 0)
(4.6953e-08 2.48459e-08 0)
(-4.71463e-08 2.52092e-08 0)
(3.01988e-06 2.49118e-05 0)
(2.19547e-06 3.28757e-05 0)
(1.62044e-08 -1.05676e-08 0)
(-1.14175e-07 3.26522e-06 0)
(2.19546e-07 5.01533e-07 0)
(-1.73864e-06 4.31649e-06 0)
(-3.90132e-07 3.7394e-07 0)
(2.16888e-06 1.05193e-05 0)
(6.10679e-07 1.45968e-06 0)
(-6.18316e-07 1.46004e-06 0)
(2.22827e-06 5.06026e-06 0)
(1.22768e-06 2.74923e-06 0)
(-2.82222e-08 5.25374e-07 0)
(-8.55455e-08 5.16967e-07 0)
(3.41834e-06 2.51479e-05 0)
(6.75987e-07 4.18748e-07 0)
(-6.80438e-07 4.19184e-07 0)
(-5.07668e-08 8.30875e-07 0)
(4.76714e-07 1.50861e-06 0)
(2.30209e-06 5.84989e-06 0)
(1.79755e-07 6.35455e-08 0)
(-1.80735e-07 6.39112e-08 0)
(1.22587e-06 6.03121e-06 0)
(-2.11716e-07 2.68531e-07 0)
(-1.37785e-06 6.5717e-06 0)
(1.15938e-06 1.27367e-06 0)
(-1.16604e-06 1.27439e-06 0)
(2.51172e-07 1.4868e-06 0)
(5.65486e-07 6.53067e-07 0)
(-5.71043e-07 6.53197e-07 0)
(-6.10203e-07 3.36065e-07 0)
(6.06099e-07 3.35657e-07 0)
(-2.90687e-06 2.90106e-05 0)
(6.85543e-07 1.91325e-06 0)
(-1.46103e-08 2.73304e-08 0)
(1.45834e-08 2.69669e-08 0)
(4.20288e-07 8.16368e-07 0)
(-2.98083e-08 3.90457e-08 0)
(-4.74755e-06 0.000110479 0)
(-1.42587e-06 1.58156e-06 0)
(1.4187e-06 1.58074e-06 0)
(2.90843e-06 6.99655e-05 0)
(-9.52595e-07 7.14029e-07 0)
(9.47463e-07 7.13398e-07 0)
(-9.68193e-07 5.81739e-05 0)
(-2.16166e-06 1.05181e-05 0)
(2.53461e-07 1.42773e-06 0)
(7.03032e-07 4.73106e-07 0)
(3.85724e-07 7.98834e-07 0)
(2.32306e-07 3.17284e-06 0)
(-7.07776e-07 4.73542e-07 0)
(-2.31113e-06 5.94733e-06 0)
(-1.2388e-07 1.29534e-06 0)
(4.81602e-07 1.55234e-06 0)
(6.50377e-07 1.45587e-06 0)
(-6.57956e-07 1.45626e-06 0)
(-4.47325e-07 2.54659e-07 0)
(4.59056e-07 2.79244e-07 0)