/*--------------------------------*- C++ -*----------------------------------*\
| =========                 |                                                 |
| \\      /  F ield         | OpenFOAM: The Open Source CFD Toolbox           |
|  \\    /   O peration     | Version:  v3.0+                                 |
|   \\  /    A nd           | Web:      www.OpenFOAM.com                      |
|    \\/     M anipulation  |                                                 |
\*---------------------------------------------------------------------------*/
FoamFile
{
    version     2.0;
    format      ascii;
    class       volScalarField;
    location    "1000";
    object      sigmaxy;
}
// * * * * * * * * * * * * * * * * * * * * * * * * * * * * * * * * * * * * * //

dimensions      [1 -1 -2 0 0 0 0];

internalField   nonuniform List<scalar> 
27023
(
-6.90212e+06
-6.93442e+06
-5.19013e+06
-5.16642e+06
-6.57479e+06
-6.60639e+06
-6.19183e+06
-6.1694e+06
-2.6932e+06
-2.68158e+06
-6.26271e+06
-6.2347e+06
-666294
-667374
-1.79974e+06
4.02097e+06
3.82196e+06
-1.60302e+06
-1.62087e+06
-1.54426e+06
-1.52555e+06
-5.58395e+06
-5.56262e+06
-1.17446e+06
-1.15128e+06
-957101
914616
-1.12299e+06
792268
-1.9207e+06
-1.11284e+06
-1.71849e+06
-1.70171e+06
-1.55259e+06
-1.42895e+06
-1.48607e+06
-1.17934e+06
-1.1539e+06
-2.69434e+06
-2.68313e+06
-5.1698e+06
-5.19354e+06
-1.54134e+06
-6.65485e+06
-6.68694e+06
-1.57699e+06
-1.55903e+06
-1.33257e+06
-1.31424e+06
-1.81934e+06
-1.00503e+06
-985738
-1.62246e+06
-48222
-48134.1
-1.52131e+06
-1.36625e+06
-1.064e+06
-1.95203e+06
-5.37786e+06
-5.35422e+06
-1.36971e+06
-1.65857e+06
-963729
-2.0082e+06
-960784
-1.47813e+06
-795412
1.09367e+06
-1.9085e+06
-1.33162e+06
-1.30622e+06
-2.2817e+06
-2.25927e+06
-820656
-819297
-193556
-192389
-2.53148e+06
-2.54031e+06
-142505
-5.96127e+06
-5.93348e+06
-2.4723e+06
-2.44988e+06
-404043
-403517
-1.45405e+06
-1.75287e+06
-1.64424e+06
-1.65851e+06
-6.74616e+06
-6.71289e+06
2.85785e+06
-1.03144e+06
-781602
-803697
98064.1
-2.05541e+06
-2.18235e+06
-1.43216e+06
-546201
-608299
-4.12002e+06
-4.09636e+06
-1.62764e+06
-4.11934e+06
-4.09922e+06
-1.55807e+06
-1.14768e+06
-2.10599e+06
-4.31532e+06
-4.29475e+06
-804061
-783032
-589396
-587713
915232
-210118
-1.27485e+06
-1.65488e+06
-1.43778e+06
-1.23937e+07
-1.24341e+07
-5.84054e+06
-5.82195e+06
-6.50529e+06
-6.47226e+06
-4.43486e+06
-4.41058e+06
-1.47439e+06
-745776
-749379
-1.27155e+06
-1.83991e+06
-78421.1
-77896.6
708119
-1.75199e+06
-1.73799e+06
-6.87528e+06
-6.90176e+06
671882
-6.08359e+06
-6.06018e+06
-1.04008e+06
-1.55384e+06
-500731
-1.7622e+06
-1.00465e+07
-1.00032e+07
-8.54483e+06
-8.50812e+06
-1.98012e+06
-1.1157e+06
-708419
-717004
-1.61465e+06
-1.7806e+06
-1.7672e+06
-1.24488e+06
-1.85595e+06
-1.02591e+06
-2.10373e+06
-8.92251e+06
-8.95716e+06
-6.25416e+06
-6.28128e+06
262555
319255
-2.16665e+06
-3.13849e+06
-3.14838e+06
-1.62485e+06
-1.57323e+06
-1.5572e+06
-1.61761e+06
577314
-1.83449e+06
1.08349e+06
-1.74464e+06
-6.43201e+06
-6.45809e+06
-1.53578e+06
-1.44106e+06
-1.27804e+06
-776193
-797695
-1.10736e+06
-1.91698e+06
-6.80613e+06
-6.83398e+06
605703
-1.91147e+06
-5.9528e+06
-5.93381e+06
-663792
-7.1085e+06
-7.13696e+06
-64016.2
-1.85349e+06
919714
-615480
-607588
-6.26455e+06
-6.29555e+06
-752028
-1.23531e+06
-395039
-387961
-102579
-101173
3.28544e+06
-1.0697e+06
-2.51031e+06
-2.52387e+06
446084
615369
-2.07206e+06
-1.4833e+06
-1.48802e+06
-1.29646e+06
-1.20531e+07
-1.20925e+07
-1.33796e+06
-2.13659e+06
-2.12749e+06
-2.49412e+06
-2.47018e+06
-1.32762e+06
-1.32274e+06
-1.73072e+06
-1.73133e+06
-1.72309e+06
-1.20628e+06
-1.32302e+06
-1.31773e+06
-248528
-1.58109e+06
-6.97494e+06
-6.99715e+06
659165
-1.28633e+06
-1.39469e+06
-1.73601e+06
2.87534e+06
-2.26529e+06
1.48304e+06
-945289
-1.50996e+06
-3.2326e+06
-3.2467e+06
-1.93866e+06
2.50814e+06
-587115
-960784
-1.0344e+06
-761720
-1.8213e+06
-1.80597e+06
1.33216e+06
1.75043e+06
-168632
-1.037e+06
-1.03193e+06
-5.9753e+06
-5.95257e+06
-1.54108e+06
2.74622e+06
-1.09817e+07
-1.0945e+07
-1.0661e+06
-1.51775e+06
-1.31473e+06
-1.49233e+06
-1.85154e+06
-8.63277e+06
-8.66636e+06
-1.48668e+06
-1.50459e+06
-1.5964e+06
-1.51104e+06
-1.83875e+06
-1.70705e+06
-64963.6
-65157.2
-1.72383e+06
-1.54895e+06
4.04092e+06
-2.23516e+06
-1.12004e+06
-1.96451e+06
-2.49462e+06
-2.50641e+06
-596122
-596762
-1.47873e+06
-1.39876e+06
-617114
-619744
-804985
3.69747e+06
-5.4284e+06
-5.45403e+06
-291417
-3.18739e+06
-3.16689e+06
264742
-1.86564e+06
-2.25749e+06
-1.42016e+06
-11122.1
-11577.4
-1.21456e+06
-1.21073e+06
-1.69683e+06
-1.66057e+06
-1.68321e+06
-742977
-1.94333e+06
-1.12347e+06
-1.12333e+06
305576
1.96977e+06
364767
-1.99566e+06
-524724
-1.82609e+06
100821
-1.88803e+06
1.60553e+06
-1.87293e+06
-615009
-1.0251e+06
-1.37322e+06
-9.54565e+06
-9.58806e+06
-1.14325e+06
3.45551e+06
-3.46301e+06
-3.44073e+06
-616650
-620803
-96180.9
-94871.8
1.43843e+06
-7.83236e+06
-7.7974e+06
-1.119e+06
-1.45602e+06
-1.54407e+06
-1.54858e+06
-1.83844e+06
-1.83073e+06
-4969.51
-4988.99
4.58158e+06
-2.81205e+06
-2.82286e+06
-1.66323e+06
-504681
-509350
-515159
-9.12322e+06
-9.15335e+06
-1.9114e+06
-1.80954e+06
3.61288e+06
-7.76691e+06
-7.80346e+06
-2.56019e+06
-2.5687e+06
3.25184e+06
-1.50475e+06
440687
-1.28099e+06
-1.34613e+06
-122676
-758618
-1.08217e+06
-1.57297e+06
-1.05825e+06
-5.62126e+06
-5.60043e+06
1.33076e+06
264893
-1.45716e+06
-1.43837e+06
-854833
1.52422e+06
1.90133e+06
-1.54118e+06
-536633
-2.13757e+06
4.01459e+06
-2.12902e+06
-1.49275e+06
-1.3612e+06
-456035
-1.37828e+06
-2.72789e+06
-2.70362e+06
2.64139e+06
596845
-1.25201e+06
-7.6203e+06
-7.65656e+06
-229922
-1.83219e+06
-482147
-926304
-429720
-219998
-217360
-1.86839e+06
-1.33429e+06
-2.28984e+06
-1.49869e+06
-1.4749e+06
-1.41052e+06
905556
-1.09521e+06
1.642e+06
565766
-1.24253e+06
-705572
-821340
-827198
-457389
-2.12489e+06
-1.00703e+06
469822
-863081
-858610
-1.95588e+06
-1.97678e+06
-1.19676e+06
1.54191e+06
-3.48208e+06
-3.46846e+06
-305822
-301004
-1.76238e+06
-1.7454e+06
-118778
-120451
794979
-1.84003e+06
-1.63637e+06
3.9065e+06
3.21854e+06
-8.36018e+06
-8.39039e+06
-8.53632e+06
-8.56671e+06
-1.42177e+06
-1.38779e+06
-1.02159e+07
-1.01732e+07
1.23468e+06
852727
-1.25122e+06
-1.71326e+06
1.37992e+06
-538378
-1.81457e+06
-6.24599e+06
-6.26689e+06
-1.22068e+06
-1.30918e+06
-1.83325e+06
-1.23049e+06
-1.41226e+06
409274
-962740
-2.54408e+06
-2.5301e+06
-793380
-923851
-4.39792e+06
-4.3757e+06
-2.03547e+06
-2.02724e+06
-1.30671e+06
1.66237e+06
-839088
1.56312e+06
-170438
-1.7258e+06
-7.089e+06
-7.11796e+06
-1.68484e+06
-2.27817e+06
-1.12298e+06
-1.39137e+06
-1.41502e+06
-8.36133e+06
-8.32315e+06
1.90489e+06
-544448
-1.80595e+06
-4.42179e+06
-4.44973e+06
-1.46752e+06
3.70822e+06
-972429
-951501
79866.4
-1.02042e+07
-1.01725e+07
-6.40162e+06
-6.37356e+06
-609326
-1.17637e+07
-1.18053e+07
-1.55114e+06
-1.31084e+06
-1.05865e+06
-1.0506e+06
-1.49943e+06
-911214
-913817
-926895
-2.87554e+06
-2.89252e+06
-1.74083e+06
-1.7616e+06
-1.18649e+06
-1.31443e+07
-1.30935e+07
-1.14292e+06
-1.68642e+06
-1.3265e+06
227838
-2.03569e+06
-2.00975e+06
-3.02138e+06
-3.03262e+06
-1.7761e+06
-1.26594e+06
-132503
-1.30891e+06
-93298.2
433074
-1.89832e+06
-3.37979e+06
-3.3932e+06
-681015
-325549
-326581
-1.732e+06
-1.08955e+06
-3.21876e+06
-3.24097e+06
-873969
-1.16657e+06
-1.17897e+06
-283123
1.83983e+06
-1.62349e+06
935562
-1.87802e+06
-968483
-948370
-1.40504e+06
4.26179e+06
-1.78231e+06
-1.7706e+06
-1.92547e+06
-1.76766e+06
-1.78464e+06
-1.55507e+06
-9.64756e+06
-9.60503e+06
-6.88875e+06
-6.91689e+06
-1.10571e+07
-1.11045e+07
-1.18303e+06
183050
149658
-1.63908e+06
-1.03672e+07
-1.04115e+07
-1.45601e+06
2.77695e+06
-54087.3
-1.63547e+06
4.13483e+06
-884651
3.65911e+06
-367902
-840932
-819967
-1.80227e+06
-777213
-757867
-1.7642e+06
-2.15122e+06
-2.17442e+06
-1.55094e+06
-2.06864e+06
-1.44573e+06
-1.46161e+06
-993000
-987154
-958436
942452
571867
-2.33476e+06
-2.3187e+06
-1.365e+06
-1.35927e+06
-1.99048e+06
-1.99093e+06
-916253
-873938
-677938
-647841
-455203
-6176.83
-68439.7
-69441.3
-6421.26
-1.61556e+06
-617302
-617845
-9.08707e+06
-9.12717e+06
-6.57334e+06
-6.60611e+06
-9.8807e+06
-9.83718e+06
2.30365e+06
-1.81173e+06
-1.78643e+06
-1.44683e+06
-2.17768e+06
-1.68503e+06
-1.71035e+06
-1.66462e+06
-2.05252e+06
-2.03408e+06
-1.44997e+06
-1.56577e+06
-1.02707e+06
-1.07007e+07
-1.0747e+07
-1.57437e+06
-2.081e+06
539245
-2.15796e+06
-2.71194e+06
-2.72889e+06
4.32685e+06
-312521
-2.47169e+06
-2.48134e+06
-131449
-133269
-1.77948e+06
-1.74436e+06
-1.36111e+06
-1.39236e+06
-468442
-467311
-49623.6
-778017
2.53701e+06
-571255
-934115
-1.85543e+06
-1.66537e+06
-827425
532115
-1.48398e+06
-1.18942e+06
-1.32554e+06
-1.17548e+06
1.84781e+06
-1.81962e+06
-73085.1
-73239.3
-2.19161e+06
-2.16877e+06
26174.5
-441293
-1.80596e+06
-1.13894e+06
-563070
-1.28471e+06
-493452
-1.55563e+06
-554444
-477192
899655
-5.58844e+06
-5.55848e+06
385760
-1.03072e+06
-2.02316e+06
-1.88162e+06
-2.70959e+06
-2.6964e+06
-396643
-400108
-28982.9
-28569.9
-1.40026e+06
3.32153e+06
-1.4287e+06
1.37744e+06
-551279
-568787
-1.30709e+06
-2.72613e+06
-2.7159e+06
-1.09162e+06
-1.09618e+06
-768425
-2.61129e+06
-2.59267e+06
3.44042e+06
-1.25783e+06
-1.5998e+06
-2.07132e+06
-1.55575e+06
-1.69969e+06
-1.38065e+06
-1.37193e+06
-1.36667e+06
-276797
-8.59376e+06
-8.56451e+06
-1.33265e+06
-608665
1.48296e+06
-608972
-1.09352e+06
-1.06133e+06
-1.55395e+06
690652
-1.64169e+06
4.13801e+06
-1.68885e+06
322146
-382494
-875375
-3.81827e+06
-3.79214e+06
-553138
-554466
-2.06516e+06
-1.55168e+06
-2.6027e+06
-2.61842e+06
-1.44446e+06
-1.29728e+06
-1.67661e+06
-1.37936e+06
-1.80961e+06
-7.82081e+06
-7.78581e+06
-1.78549e+06
-912220
-897228
-706931
-709589
-1.32167e+06
-1.86146e+06
-1.2821e+06
-379077
-6.45021e+06
-6.42213e+06
-1.7443e+06
1.61516e+06
-2.01921e+06
-1.30081e+06
-1.48588e+06
1.23396e+06
1.14344e+06
1.63735e+06
-1.85283e+06
-910221
-908104
-7.38277e+06
-7.35368e+06
-1.45895e+06
-1.39303e+06
-1.12993e+06
3.23847e+06
-1.15862e+06
-1.15505e+06
-1.33392e+06
-1.49215e+06
-1.46739e+06
-1.36314e+06
-1.28754e+06
-1.53835e+06
-1.53068e+06
-1.52303e+06
-1.48844e+06
-6.47556e+06
-6.45133e+06
377450
-2.01971e+06
2.07011e+06
-1.89948e+06
-1.89391e+06
-3.37505e+06
-3.39911e+06
441419
-5.53273e+06
-5.56236e+06
-1.36985e+06
-1.66612e+06
-1.97123e+06
-2.22587e+06
-1.26496e+06
-1.25836e+06
-2.16243e+06
-1.62702e+06
-1.65194e+06
-253617
-251002
623637
547298
-1.06825e+07
-1.06385e+07
-7.56323e+06
-7.59079e+06
-1.04664e+06
-1.01605e+06
-7.26175e+06
-7.23582e+06
-1.00303e+06
412429
-8.6612e+06
-8.62325e+06
-1.26562e+06
-1.25076e+06
-2.79335e+06
-2.86519e+06
-2.88048e+06
-87569
-87582.8
-2.81541e+06
-1.93636e+06
-1.48247e+06
-1.46321e+06
-1.54123e+06
-1.5275e+06
-568950
757222
-1.30959e+06
-572359
-232639
23451.5
-1.89844e+06
-626932
-611646
805778
713215
-1.3446e+06
-379161
-390233
-2.043e+06
-666866
-89363.1
-89449.2
1.24834e+06
798609
-2.0337e+06
-6.50377e+06
-6.47941e+06
-2.50315e+06
-981258
-2.68431e+06
-1.15698e+06
-1.11522e+07
-1.1106e+07
-1.18211e+06
1.40552e+06
-2.5102e+06
-1.56109e+06
-1.53151e+06
-2.70636e+06
-1.41851e+06
-8.41538e+06
-8.37845e+06
-876738
-887868
-1.28121e+06
135522
-1.50563e+06
-6.73799e+06
-6.70974e+06
-1.99009e+06
-2.00251e+06
3.27257e+06
-1.32955e+06
-1.73268e+06
-1.71818e+06
-1.75078e+06
-2.71175e+06
-2.69821e+06
-1.783e+06
-1.91323e+06
-652097
-1.65617e+06
-1.64336e+06
-1.17878e+06
-1.46717e+06
-1.46225e+06
-1.58548e+06
-1.34773e+06
-1.34321e+06
-2.01988e+06
2.59958e+06
-1.05335e+06
-1.50211e+06
-2.18742e+06
4.19101e+06
120448
-1.9724e+06
-2.08551e+06
3.51411e+06
1.20418e+06
1.51688e+06
-51204.9
-221204
-2.14704e+06
-1.73354e+06
-3.53308e+06
-3.54709e+06
1.44525e+06
-2.5591e+06
-2.57355e+06
-1.77717e+06
-955564
-1.84782e+06
-1.82189e+06
643884
-2.08784e+06
-2.07448e+06
1.92245e+06
-1.68213e+06
-1.93858e+06
-2.75962e+06
-566970
1.77332e+06
-49248.6
65607.7
-2.00009e+06
-1.45947e+06
-7.45458e+06
-7.41959e+06
-1.68942e+06
1.16888e+06
-502217
-501018
-1.19061e+06
-1.61045e+06
-1.02732e+06
-1.73053e+06
-1.52479e+06
-1.53612e+06
-1.19416e+06
-236188
-1.73303e+06
-154900
-155132
-714504
-1.40091e+06
3.7022e+06
-1.60482e+06
2.26353e+06
-1.49522e+06
1.57923e+06
-1.77141e+06
-1.29943e+06
-1.31727e+06
-1.25971e+06
-1.20664e+06
2.45464e+06
2.44679e+06
-1.63858e+06
-6.71453e+06
-6.74304e+06
940038
-1.36232e+06
-1.19142e+06
-3.67912e+06
-3.6937e+06
-1.99045e+06
3.58266e+06
-2.00728e+06
-2.30321e+06
-2.31507e+06
-1.07065e+06
-117311
-136751
-6.78718e+06
-6.75937e+06
-1.69708e+06
-1.72725e+06
-192814
-192288
414736
-735148
-1.72325e+06
-965648
-961185
-1.74421e+06
-1.03879e+07
-1.03565e+07
-2.06614e+06
-1.85689e+06
-1.12121e+06
-4.99223e+06
233955
-2.09632e+06
-5.01957e+06
-759400
-689779
-1.33255e+06
-1.42341e+06
-1.44447e+06
87283.7
54228.8
-1.16842e+06
688292
-1.77641e+06
-976081
-2.18142e+06
-1.80676e+06
246522
-1.94874e+06
-2.01962e+06
3.67944e+06
-250810
2.1916e+06
-629330
-1.3866e+06
-1.08641e+06
-1.24286e+06
2.74964e+06
-1.29095e+06
-1.36349e+06
-1.3028e+07
-1.30781e+07
3.60198e+06
-2.25938e+06
-1.27492e+06
-1.28811e+06
-1.96414e+06
-1.95167e+06
-896169
-1.84903e+06
-1.10834e+06
-1.76421e+06
-1.77608e+06
-1.10743e+06
-1.10434e+06
-2.01386e+06
3.57683e+06
-1.9536e+06
3.19059e+06
-1.5911e+06
4.42254e+06
862830
1.95512e+06
-1.06651e+06
-1.50741e+06
-1.48212e+06
435003
482914
1.54517e+06
-1.51564e+06
-760005
-756859
3.44183e+06
-145167
1.31108e+06
-1.73398e+06
-1.14838e+06
-1.90787e+06
-900841
-1.50367e+06
-1.19275e+06
-1.75796e+06
-2.12141e+06
-940241
-2.01153e+06
-1.98603e+06
-1.22201e+06
998625
-1.78487e+06
-1.31929e+06
-1.12385e+06
-194620
-193929
1.53486e+06
-230804
-2.24876e+06
-2.25818e+06
-2.90105e+06
-2.88854e+06
3.13893e+06
-1.99818e+06
-1.86376e+06
-116184
-8.9697e+06
-9.00103e+06
-3.23316e+06
-3.21391e+06
3.35908e+06
-1.0904e+06
-1.08588e+06
-1.0908e+06
-948949
-979433
-88704.5
-87421
1.74706e+06
2.25006e+06
8891.19
-1.34989e+06
-5.73078e+06
-5.75696e+06
1.28529e+06
-1.10114e+06
-1.18182e+06
-1.91884e+06
-1.98658e+06
-1.16015e+06
478983
498102
-1.23219e+06
-1.2368e+06
-906418
-249005
-269801
-2.26146e+06
-2.27248e+06
-779047
-1.59555e+06
-1.30397e+06
-1.74486e+06
-4.17614e+06
-4.15016e+06
1.17255e+06
3.10409e+06
-725934
-1.86776e+06
-7.85831e+06
-7.89545e+06
-1.38183e+06
-1.22509e+06
-588498
-2.16314e+06
-2.15226e+06
-1.5066e+06
-100921
-1.80325e+06
-2.09733e+06
-9.02047e+06
-8.9911e+06
-1.78967e+06
-1.99817e+06
-1.97872e+06
-1.79626e+06
-805952
-715586
-612633
1.03431e+06
-1.74135e+06
-2.01471e+06
-1.3641e+06
-1.29954e+06
1.52937e+06
689174
-70179.5
-69994
-835990
-3.00376e+06
-2.98944e+06
-7.11742e+06
-7.08881e+06
-1.79508e+06
-8.4907e+06
-8.46148e+06
-1.09352e+07
-1.09752e+07
-73449.4
-73340.8
-1.62009e+06
-683491
-680931
-1.34844e+06
-1.29976e+06
-804965
-1.35538e+06
-1.68665e+06
-1.92998e+06
-1.05705e+06
-1.03583e+06
-3.77056e+06
-3.79542e+06
-1.40879e+06
-1.35656e+06
1.56677e+06
-977389
-1.60759e+06
-1.41651e+06
-1.40943e+06
4.15289e+06
-1.59572e+06
-1.78284e+06
-1.77559e+06
-1.02994e+06
536442
-1.1081e+06
-1.28903e+06
878406
2.49192e+06
-676488
-661587
797619
-1.38832e+06
26963.9
27387.8
-1.64404e+06
-1.50398e+06
-143884
-950530
-970061
-1.49332e+06
1.60338e+06
-743224
-4.04313e+06
-505223
-142704
-4.07038e+06
-1.55103e+06
-1.49234e+06
-115768
-1.20375e+06
877980
-1.74876e+06
-1.79173e+06
-1.90276e+06
-2.10049e+06
-1.86012e+06
-1.28249e+06
-717185
-1.54658e+06
-1.32954e+06
-1.31479e+06
-1.23697e+06
3.58754e+06
542397
1.54067e+06
-1.1449e+06
-3.4978e+06
-760307
1954.26
-1.49261e+06
-1.71521e+06
-3.52572e+06
-1.96144e+06
-1.73678e+06
-1.7321e+06
-1.98837e+06
-447567
-461430
-1.61324e+06
-149787
-148915
-925914
-6.5666e+06
-6.5952e+06
866067
-5.73288e+06
-5.70584e+06
3.8721e+06
-7.49034e+06
-7.45718e+06
-1.31567e+06
-1.07721e+06
-1.06929e+06
-28532.1
-23582
-2.07967e+06
-1.07368e+06
-624489
-1.52243e+06
-6.71242e+06
-6.68431e+06
-2.73812e+06
594927
1.13118e+06
-1.14725e+06
-1.47446e+06
-1.44864e+06
-35463.3
-34976.5
949151
-1.66847e+06
-1.08971e+07
-1.08518e+07
-3.0686e+06
-3.04805e+06
-898657
-1.52542e+06
-1.22698e+06
-3.19619e+06
-3.17187e+06
-2.0724e+06
-141981
-142628
-1.14347e+06
-1.13448e+06
-2.99713e+06
-3.01445e+06
-794811
-998539
-993830
-6.60822e+06
-6.58054e+06
-1.59865e+06
-1.64619e+06
-159016
-724873
1.37566e+06
738351
-712414
169971
-18559.2
-1.65102e+06
-1.77714e+06
-1.60369e+06
-1.16385e+06
-1.15842e+06
-199161
-1.11376e+07
-1.11775e+07
-3.87892e+06
-3.86063e+06
1.18477e+06
-1.91327e+06
-1.93529e+06
-1.21479e+06
-1.1901e+06
-1.47047e+06
-1.15892e+06
-1.13248e+06
-1.97001e+06
-392119
-392937
-1.7889e+06
-1.32102e+06
-1.45591e+06
3.98435e+06
310798
358347
-1.66057e+06
-1.40573e+06
1.81984e+06
-1.91651e+06
1434.93
1318.44
-3.82896e+06
-3.84386e+06
-1.34191e+06
-1.4011e+06
-9.47067e+06
-9.44042e+06
-1.57662e+06
-631465
-2.03139e+06
-73978.3
-199927
830197
671322
-1.13557e+06
-1.96374e+06
-8.20218e+06
-8.23003e+06
-1.43465e+06
-1.4542e+06
-1.74081e+06
-1.75531e+06
-658556
-651474
-1.88843e+06
-1.17121e+06
-1.39824e+06
-1.80779e+06
-599910
3.26266e+06
-1.01763e+06
-1.01424e+06
-1.75637e+06
-1.44111e+06
-1.65042e+06
-4.50648e+06
-4.53481e+06
1.99583e+06
-1.76119e+06
-1.04998e+06
-2.03984e+06
-2.02143e+06
47926.9
4.27143e+06
-1.6001e+06
-1.61754e+06
2.27021e+06
-1.97209e+06
-1.99664e+06
-1.23532e+06
-1.08058e+06
409814
-1.1023e+06
-820226
-795143
-564723
-945410
-7.90063e+06
-7.86558e+06
-1.82684e+06
-8.28009e+06
-8.24236e+06
761314
-2.41267e+06
-2.3939e+06
-7.74091e+06
-7.77686e+06
-1.71545e+06
-2.81059e+06
-2.83481e+06
-1.47884e+06
-1.49228e+06
-1.01799e+06
649553
-1.10295e+06
-9.46507e+06
-9.42361e+06
-1.16741e+06
-1.54895e+06
-265567
-282318
-2.11154e+06
-1.20222e+07
-1.19842e+07
911773
-1.66759e+06
-892375
-890460
-162909
-162584
-2.40634e+06
-3.16851e+06
-3.14774e+06
-977036
-1.08206e+06
-1.05797e+06
-1.84607e+06
-1.83787e+06
2.58259e+06
-806095
-1.16194e+07
-1.15821e+07
-4.77268e+06
-4.78971e+06
767950
2.27719e+06
-3.18457e+06
-3.19707e+06
-1.45848e+06
-62204.8
-61264.7
-602582
-602824
1.71945e+06
-4.5162e+06
-4.4976e+06
-1.12823e+06
-2.74437e+06
-2.7625e+06
-172608
3.5529e+06
-1.50751e+06
-1.5145e+06
-8.75714e+06
-8.78796e+06
-1.20906e+06
3.39776e+06
-1.00228e+06
2.3397e+06
-1.60236e+06
52775.1
1.78747e+06
1.11709e+06
-1.81789e+06
-1.82793e+06
-1.71999e+06
-1.73091e+06
-883392
-879638
-1.05334e+06
-1.74857e+06
-2.19379e+06
4.26765e+06
-445697
-1.66234e+06
-1.24237e+06
-1.11367e+06
-1.52238e+06
-1.75884e+06
-1.73929e+06
-8.96701e+06
-9.00762e+06
791891
-2.03802e+06
-777102
2.53527e+06
3.64295e+06
-1.46244e+06
410555
-980307
-1.42348e+06
-1.39517e+06
1.76942e+06
-1.09763e+06
-1.11847e+06
-744703
-1.14364e+07
-1.14716e+07
-6.13677e+06
-6.16298e+06
2.80853e+06
-2.29485e+06
-2.318e+06
-3.91491e+06
-3.90255e+06
-3.13688e+06
-3.11242e+06
-1.08765e+07
-1.08302e+07
-901123
-496717
-1.42434e+06
-1.72184e+06
-7.61272e+06
-7.64891e+06
-2.3885e+06
-2.41195e+06
-949891
-988743
-181508
-515366
-513454
-1.81241e+06
-1.37259e+06
-1.29824e+06
1.16238e+06
-1.70608e+06
-1.41516e+06
-1.32481e+06
-442453
-412389
-1.73949e+06
-1.63166e+06
-1.57665e+06
-829620
-827617
-752994
-1.60373e+06
1.07391e+06
-1.59652e+06
-1.38766e+06
-931891
-1.67007e+06
-5.43296e+06
-5.40838e+06
-1.95636e+06
-1.94523e+06
-8.17533e+06
-8.13817e+06
-1.56525e+06
-2.00804e+06
-898409
1.8809e+06
503320
-1.06401e+06
-1.18739e+06
-1.9722e+06
-701153
-214215
-214332
-1.34369e+06
-1.33929e+06
-1.45884e+06
1.58694e+06
-1.74852e+06
-1.78392e+06
-1.17025e+07
-1.16532e+07
-472122
-468475
-678194
-819282
-847554
-263932
280138
174568
-1.04936e+06
-1.05489e+06
-1.7984e+06
-1.64988e+06
-5.80079e+06
-5.77321e+06
-753308
-757428
-1.59648e+06
-2.11499e+06
-1.81272e+06
-1.43081e+06
665169
692376
-9.74056e+06
-9.70069e+06
-1.45343e+06
-1.79281e+06
-1.78385e+06
-6.85655e+06
-6.82784e+06
-498269
133510
169217
-5.66314e+06
-5.69347e+06
903893
-1.20854e+06
-297107
-1.01814e+06
-1.04352e+06
-3.15672e+06
-3.16914e+06
4.43482e+06
-409951
-1.61575e+06
-1.63795e+06
-1.25747e+06
-1.49924e+06
-4.39352e+06
-4.41093e+06
-1.94689e+06
-1.11855e+06
-1.03438e+06
-1.81521e+06
-3.18733e+06
-2.51439e+06
-2.53562e+06
1.31517e+06
-2.67666e+06
-2.65696e+06
3.72761e+06
-719527
-3.21227e+06
-1.51845e+06
-1.53884e+06
-1.38573e+06
-825770
354215
-1.7832e+06
-1.77614e+06
988942
-1.29689e+06
-1.56046e+06
-1.54228e+06
-812717
-1.53895e+06
-1.54698e+06
-2.41689e+06
-1.09071e+06
-1.07197e+06
-1.5917e+06
-1.57371e+06
3.37036e+06
-1.10023e+06
-1.47103e+06
-1.05741e+06
-1.62788e+06
14096
-613390
-2.0905e+06
1.57813e+06
-925699
-1.192e+06
-1.03839e+07
-1.03484e+07
-2.94635e+06
-956889
-953991
-5.17072e+06
-5.1442e+06
-830058
-6.47059e+06
-6.49833e+06
-1.42635e+06
-374384
-2.08832e+06
-252657
-253200
1.35975e+06
-1.95397e+06
-1.96847e+06
-212250
-1.59496e+06
-57834.9
3.99178e+06
-1.04844e+06
-1.84374e+06
-2.61757e+06
-2.64127e+06
-9.58357e+06
-9.54194e+06
-1.64564e+06
-2.08228e+06
-1.89411e+06
-3.44689e+06
-3.47176e+06
-1.9501e+06
-2.08851e+06
-2.0775e+06
-1.29526e+06
-1.04402e+06
-1.04669e+06
-1.95613e+06
47441.5
-1.858e+06
-1.43075e+06
-1.4415e+06
-1.28852e+06
-1.26052e+06
-791489
-1.92176e+06
-1.46056e+06
-1.41251e+06
-1.60056e+06
-1.77448e+06
-1.58135e+06
-1.77914e+06
-1.0233e+06
3.34347e+06
-1.32274e+06
-1.29851e+06
1.14932e+06
-5.32397e+06
-5.29927e+06
-1.03939e+06
-1.01868e+06
-1.168e+06
-246376
-1.45138e+06
153310
800920
757940
-628894
-1.33852e+06
-1.51581e+06
1.09073e+06
-1.72287e+06
-1.97509e+06
-1.7534e+06
-1.77884e+06
-1.79357e+06
-652114
-633473
-313015
-292992
2.41877e+06
-1.52711e+06
-1.55313e+06
-1.79925e+06
-1.57465e+06
-1.06693e+06
-2.70771e+06
-2.72815e+06
-404549
-1.56994e+06
-1.58905e+06
-1.8701e+06
-846598
-6080.73
-6319.44
-1.16377e+06
-2.21242e+06
-1.42947e+06
-175868
-1.41132e+06
-4.09118e+06
-4.06531e+06
-2.2309e+06
-2.25699e+06
1.58728e+06
-991977
-852926
-849607
-1.54847e+06
-1.57395e+06
-1.5853e+06
2.61608e+06
-1.99164e+06
-1.62703e+06
-1.63827e+06
-1.49962e+06
-1.48853e+06
-1.07837e+06
-1.14016e+06
-1.10045e+07
-1.10515e+07
-1.61694e+06
-7.52439e+06
-7.48941e+06
-1.05028e+06
-1.02516e+06
-458459
-838162
-838954
179995
3.24001e+06
-1.97767e+06
2.8513e+06
-626187
-2.36054e+06
-2.35081e+06
533698
-655937
-1.78342e+06
-1.80047e+06
-1.0997e+06
-2.00174e+06
-1.36135e+06
-1.74909e+06
-8.56956e+06
-8.5304e+06
-1.23741e+06
-7.24887e+06
-7.27661e+06
-254291
-1.81961e+06
-48823.7
-1.24419e+06
-1.43929e+06
-1.41887e+06
-1.1963e+06
-1.16344e+06
-1.75156e+06
-955299
-966694
-1.6642e+06
-1.67227e+06
580718
632150
-1.56991e+06
3.02377e+06
-1.72312e+06
-1.92382e+06
-1.71283e+06
-1.7639e+06
-1.24292e+06
-2.10222e+06
-2.13303e+06
-2.1576e+06
-1.98609e+06
-84824.3
-2.19293e+06
-2.21449e+06
-1.44031e+06
-218614
-1.33663e+06
1.48907e+06
-224422
-807271
-816294
-1.54423e+06
-703782
-2.76932e+06
-2.79575e+06
1.03526e+06
-1.46945e+06
-1.60459e+06
-28612.3
-28387.6
448811
-6.21916e+06
-6.19182e+06
-1.90643e+06
1.77416e+06
-1.42029e+06
-1.02729e+06
-1.06625e+06
-335353
-85254.3
-172015
-172109
-2.18337e+06
-1.79141e+06
-1.49848e+06
-157019
-156454
127787
-1.68016e+06
-1.69975e+06
-7.23184e+06
-7.20574e+06
-1.07607e+07
-1.08069e+07
-1.80469e+06
-861219
-854756
-1.85086e+06
-2.19225e+06
2.5143e+06
-1.54861e+06
986017
1.59292e+06
-957078
-930240
-2.11786e+06
-2.13273e+06
-1.753e+06
1.25082e+06
-89919.3
-1.04818e+06
-1.45725e+06
-651892
-1.14396e+06
-1.7861e+06
-1.08677e+07
-1.08348e+07
-1.12194e+06
-1.77152e+06
-1.78252e+06
-1.80046e+06
-1.64726e+06
-1.00141e+06
-244767
-1.94079e+06
3693.19
3511.1
-1.85e+06
-2.28521e+06
-2.2722e+06
1.2859e+06
-5.2545e+06
-5.28004e+06
-942087
-558103
-1.69451e+06
-575718
-218097
-208553
-1.37155e+06
2.62719e+06
-1.17377e+06
-1.94894e+06
-5.49067e+06
-5.51673e+06
-718241
-584719
67333.4
-1.08177e+06
-7.02896e+06
-7.0522e+06
-8.19574e+06
-8.1597e+06
-912543
-1.10598e+06
-1.74707e+06
-1.15716e+06
-1.18161e+06
-459592
-458165
-1.64004e+06
-2.18305e+06
-1.85642e+06
-430529
-943590
-1.1891e+06
-1.98853e+06
-2.00948e+06
-1.00093e+06
-1.49239e+06
467940
-937377
-993230
643584
-1.86985e+06
-1.85324e+06
-1.00647e+06
-1.10896e+06
-1.1124e+06
-229973
-227095
-1.40522e+06
987729
-468097
-1.61342e+06
-1.42102e+06
-1.45996e+06
-1.47598e+06
-2.98142e+06
-840589
1.28696e+06
-1.9403e+06
-1.39877e+06
-1.40465e+06
-1.0257e+06
-1.28396e+07
-1.28904e+07
-6.3949e+06
-6.41728e+06
-470675
-55988.4
-55117
-1.31501e+06
-898857
-901204
-1.56111e+06
-1.57962e+06
-2.96392e+06
-2.97505e+06
-1.72096e+06
957433
-1.65156e+06
-1.64042e+06
-1.85387e+06
-1.9282e+06
-2.02533e+06
-2.00547e+06
-1.60978e+06
-1.13622e+06
-3.45566e+06
-3.43281e+06
-1.85359e+06
-3.39489e+06
-3.37836e+06
-1.13538e+06
1.97988e+06
-1.64738e+06
-1.02311e+07
-1.01996e+07
-579290
-1.70971e+06
-1.69103e+06
-4.54817e+06
-4.57571e+06
-1.92677e+06
-1.91808e+06
1.3762e+06
-1.43084e+06
-2.2e+06
-2.21138e+06
-1.86641e+06
-1.88243e+06
-465503
-2.36377e+06
2.0773e+06
-1.51632e+06
-716326
-248591
-1.06715e+07
-1.06348e+07
-2.48543e+06
-2.46775e+06
-6.33163e+06
-6.35161e+06
-1.87778e+06
-1.36757e+06
-1.32463e+06
-2.28498e+06
-2.27015e+06
529483
-302628
-306353
-1.99359e+06
-1.24926e+06
-1.51125e+06
-1.49053e+06
147254
-1.41726e+06
-1.51538e+06
-725411
-726460
-1.66889e+06
218173
211547
-1.75437e+06
-1.53014e+06
-1.52208e+06
-1.28503e+06
-6.57552e+06
-6.6034e+06
-1.53915e+06
781303
-110514
-9.38797e+06
-9.42868e+06
-1.67709e+06
-2.27524e+06
-2.25763e+06
-2.09885e+06
1.60236e+06
-1.68072e+06
-1.50701e+06
1.75594e+06
-1.97823e+06
-1.44865e+06
-1.46296e+06
-1.43104e+06
-1.40948e+06
-878002
-2.69966e+06
-2.71174e+06
-1.74848e+06
-1.31008e+06
-1.76149e+06
-3.22794e+06
-3.25373e+06
-1.18297e+06
2.1213e+06
-2.01669e+06
-715048
-2.38581e+06
2.85213e+06
-1.07231e+06
-1.05075e+06
3.11804e+06
-176506
-1.46172e+06
-1.1983e+06
-788752
-1.11374e+06
-1.02869e+06
3.52556e+06
-1.44576e+06
-1.99399e+06
-2.62246e+06
-2.63385e+06
-1.3014e+06
-1.30632e+06
-1.55626e+06
-903585
-898122
-1.58545e+06
3.09495e+06
-2.40998e+06
-381384
1.21952e+06
-1.1764e+06
187639
-1.16451e+06
-1.67024e+06
-1.67621e+06
3.02332e+06
4.16474e+06
-251465
-8.87485e+06
-8.83566e+06
-1.19807e+06
-344953
-1.44477e+06
-1.634e+06
-1.57757e+06
-618802
1.00582e+06
-1.48988e+06
2.03341e+06
4.44955e+06
-756413
-758456
-984164
-984451
-1.6546e+06
-1.26744e+06
-3.33858e+06
-3.31609e+06
-915790
3.58279e+06
2.89302e+06
-1.87493e+06
-1.8926e+06
-1.08478e+06
-1.65316e+06
-609508
-1.17134e+06
1.10364e+06
-1.15454e+06
1.87407e+06
-1.51043e+06
-1.46596e+06
-1.46804e+06
-1.59624e+06
-1.72606e+06
-740883
-1.57509e+06
-76207.7
-77316
-1.43675e+06
-1.45444e+06
-690995
-665550
-2.22254e+06
-1.34361e+06
-1.63437e+06
-6.57129e+06
-6.60414e+06
-713312
-1.61759e+06
-1.49564e+06
-258311
576608
534662
-2.10294e+06
-868243
-870748
-1.00293e+06
-1.0287e+06
-2.24166e+06
-2.25116e+06
-1.10748e+06
-1.95567e+06
2.53067e+06
3.74221e+06
-1.36774e+06
1.40166e+06
-891483
-794682
-1.00439e+06
-1.7211e+06
-1.92071e+06
1.96914e+06
-972179
-494557
-1.10506e+06
-1.11432e+06
-1.80293e+06
3.09715e+06
-131954
-1.59185e+06
-1.58129e+06
-2.30513e+06
-2.28752e+06
-857363
-1.4916e+06
-1.79416e+06
-1.24962e+06
-1.27474e+06
-1.00805e+06
-1.87742e+06
-1.64312e+06
-1.82743e+06
-1.53672e+06
-1.50916e+06
-1.47697e+06
3.88645e+06
-603155
-593611
-1.70075e+06
-411804
-1.1241e+06
-1.77511e+06
-346874
-361253
-192669
-1.35995e+06
-1.34131e+06
-407644
-402469
-1.94425e+06
-2.2797e+06
-2.2609e+06
-1.88848e+06
-1.59832e+06
4.32524e+06
2.17804e+06
-453062
-442281
-1.82983e+06
-1.8493e+06
-2.04907e+06
867460
-476674
-7.30199e+06
-7.27364e+06
-2.69267e+06
-2.66854e+06
1.20096e+06
-631921
-652618
-888418
-1.18941e+06
-1.80782e+06
-1.81669e+06
-328096
-1.59876e+06
-1.90988e+06
176119
-2728.65
-2773.27
-1.54115e+06
-1.55943e+06
-1.46965e+06
-1.4936e+06
-1.96431e+06
-1.95607e+06
-1.5378e+06
-873552
-871448
-1.06261e+06
-537745
-1.96078e+06
-1.5721e+06
-1.55333e+06
-1.1732e+06
-1.51075e+06
267272
3.62588e+06
-1.41879e+06
-9.99529e+06
-1.00383e+07
-1.53305e+06
-1.91153e+06
-1.21523e+06
-8.38432e+06
-8.41377e+06
-1.46793e+06
-1.11341e+06
-1.09128e+06
-933678
-915522
-852.267
-829.208
-609304
1.12911e+06
651166
165912
828630
-1.36232e+06
-576501
-1.01933e+06
-1.89952e+06
-1.89201e+06
4.15303e+06
-1.03511e+06
-1.02542e+06
-1.29549e+06
-1.47051e+06
-1.4846e+06
-589758
-1.20536e+06
-2.85827e+06
-2.8785e+06
-580059
-1.46951e+06
-793870
2.48903e+06
-1.128e+06
-1.94839e+06
-1.96754e+06
-1.85624e+06
-1.83694e+06
3.377e+06
-1.73017e+06
-910290
-2.02785e+06
-1.5524e+06
-1.66459e+06
-1.70113e+06
1.61297e+06
-667807
-670495
-2.61984e+06
-2.6412e+06
-1.83374e+06
-444839
-449528
-166606
-1.34666e+06
-1.47021e+06
-1.68788e+06
-808222
-1.04046e+06
-339258
-1.82375e+06
-984908
3.84834e+06
781313
-1.15235e+06
-1.64731e+06
-1.62978e+06
-539959
-7.04478e+06
-7.06787e+06
-1.44448e+06
-1.42039e+06
884470
-1.7378e+06
-866980
-2.39488e+06
-1.40707e+06
-1.43066e+06
-1.42303e+06
-1.47127e+06
-1.45721e+06
2.27388e+06
-1.55493e+06
-165833
-164757
-637138
-1.45596e+06
-1.79268e+06
-1.76677e+06
-6.77091e+06
-6.80253e+06
-3.27061e+06
-3.29502e+06
-2.81808e+06
-1.77713e+06
-1.69375e+06
-2.84305e+06
-1.7837e+06
-383643
-366171
-1.70201e+06
-5.00659e+06
-5.03585e+06
243737
-1.29454e+06
-1.30823e+06
-1.84519e+06
2.28651e+06
-579357
650871
3.52199e+06
222825
1.25661e+06
-1.25695e+06
-1.26212e+06
-3.62171e+06
-5.17904e+06
-5.2085e+06
-3.54536e+06
-3.55833e+06
-1.44535e+06
593888
-2.21851e+06
-2.24479e+06
-1.99428e+06
-1.20783e+06
821157
1.05694e+06
1.75756e+06
-1.29453e+06
-6.36468e+06
-6.33266e+06
-1.68196e+06
-2.57551e+06
-2.56652e+06
-275653
-276173
-3.58264e+06
-326202
-2.04144e+06
1.02168e+06
-339670
-1.56935e+06
-141823
-142027
-2.236e+06
-2.21704e+06
-1.41456e+06
1.65729e+06
-901687
-836360
-978529
-71226.5
-70184.6
-853614
-456599
-1.74306e+06
-1.77436e+06
-718116
-1.31806e+06
-1.34234e+06
-2.17459e+06
-889846
-892684
266330
-2.12675e+06
-2.11477e+06
-1.97813e+06
-504615
-1.37374e+06
-9.20031e+06
-9.15915e+06
-799786
-838975
-587952
-1.98228e+06
-1.34369e+06
-1.68679e+06
-1.99354e+06
643185
-7.32577e+06
-7.35366e+06
-2.21674e+06
-1.95054e+06
-1.94736e+06
-1.80195e+06
814919
-645577
-594805
-988264
-5.05251e+06
-5.07503e+06
-1.55545e+06
-1.65453e+06
-1.58631e+06
3.21208e+06
-1.06251e+07
-1.05795e+07
-2.16224e+06
-1.67712e+06
-1.8843e+06
-1.70607e+06