/*--------------------------------*- C++ -*----------------------------------*\
| =========                 |                                                 |
| \\      /  F ield         | OpenFOAM: The Open Source CFD Toolbox           |
|  \\    /   O peration     | Version:  v3.0+                                 |
|   \\  /    A nd           | Web:      www.OpenFOAM.com                      |
|    \\/     M anipulation  |                                                 |
\*---------------------------------------------------------------------------*/
FoamFile
{
    version     2.0;
    format      ascii;
    class       volScalarField;
    location    "1000";
    object      sigmaEq;
}
// * * * * * * * * * * * * * * * * * * * * * * * * * * * * * * * * * * * * * //

dimensions      [1 -1 -2 0 0 0 0];

internalField   nonuniform List<scalar> 
27023
(
1.26073e+07
1.26659e+07
9.40439e+06
9.36174e+06
1.20915e+07
1.21491e+07
3.80817e+07
3.79659e+07
5.20066e+06
5.17918e+06
2.73999e+07
2.7303e+07
1.39576e+06
1.39139e+06
1.10912e+07
7.02199e+06
6.63917e+06
2.31693e+07
2.33023e+07
1.68146e+07
1.66947e+07
3.78354e+07
3.77192e+07
1.73111e+07
1.72227e+07
3.31366e+06
1.19978e+07
2.38291e+06
1.16596e+07
1.32139e+07
6.31911e+06
1.688e+07
1.67614e+07
1.75757e+07
1.07975e+07
1.37808e+07
1.478e+07
1.46543e+07
5.13093e+06
5.10967e+06
9.39687e+06
9.43971e+06
9.07215e+06
1.21574e+07
1.22155e+07
2.3007e+07
2.28748e+07
1.6777e+07
1.66712e+07
1.24775e+07
1.6179e+07
1.60717e+07
1.71782e+07
445885
441971
1.93599e+07
8.10382e+06
1.37765e+07
7.25106e+06
9.76795e+06
9.72523e+06
1.18052e+07
3.38685e+06
2.65136e+06
9.11457e+06
5.55025e+06
1.51774e+07
3.8301e+06
1.24681e+07
8.7168e+06
1.41e+07
1.39733e+07
2.46676e+07
2.45701e+07
3.49824e+07
3.48631e+07
587219
583005
4.10717e+07
4.11936e+07
9.04117e+06
2.64404e+07
2.63441e+07
2.39303e+07
2.38329e+07
3.70292e+07
3.71487e+07
1.50178e+07
3.33501e+06
7.28156e+06
7.03531e+06
1.29767e+07
1.29138e+07
8.5221e+06
3.625e+06
1.73474e+07
1.74346e+07
8.98381e+06
7.53892e+06
3.80298e+06
1.13035e+07
6.91819e+06
7.04564e+06
2.97469e+07
2.9644e+07
3.13293e+06
3.37942e+07
3.36836e+07
1.90662e+07
1.27939e+07
8.7824e+06
3.36644e+07
3.35543e+07
1.72066e+07
1.71206e+07
3.52814e+07
3.51619e+07
9.11342e+06
1.31598e+07
9.85266e+06
8.84256e+06
2.65372e+06
3.31991e+07
3.33055e+07
4.17224e+07
4.15997e+07
1.26002e+07
1.25375e+07
3.01964e+07
3.00935e+07
6.62314e+06
1.38794e+06
1.40595e+06
5.90832e+06
7.93549e+06
3.70916e+07
3.72117e+07
3.45237e+06
2.37802e+07
2.36513e+07
3.55928e+07
3.5704e+07
2.47934e+06
3.67393e+07
3.66261e+07
5.89465e+06
6.88575e+06
1.57736e+07
1.55326e+07
2.03614e+07
2.02738e+07
2.12827e+07
2.11965e+07
1.08601e+07
1.06352e+07
1.10667e+07
1.10444e+07
1.11182e+07
2.34948e+07
2.3367e+07
2.14006e+07
9.24902e+06
1.78974e+07
3.83114e+06
2.45302e+07
2.46218e+07
3.2184e+07
3.22896e+07
6.43007e+06
932149
4.21966e+06
4.1341e+07
4.14622e+07
7.88807e+06
7.63294e+06
1.14457e+07
2.95093e+06
2.14851e+06
8.10167e+06
3.78e+06
1.5462e+07
3.40506e+07
3.41597e+07
1.18776e+07
2.14077e+07
2.27143e+07
1.62785e+07
1.63625e+07
1.88002e+07
7.47372e+06
3.22167e+07
3.23222e+07
8.71169e+06
3.72129e+06
4.15835e+07
4.14619e+07
2.36237e+07
3.15247e+07
3.16283e+07
1.22423e+07
1.18598e+07
1.25486e+07
3.42853e+07
3.4162e+07
1.15309e+07
1.15872e+07
8.20662e+06
2.35497e+07
3.41915e+07
3.40679e+07
182491
179992
8.95472e+06
8.82501e+06
5.61281e+06
5.63927e+06
1.02285e+07
1.32881e+06
4.29358e+06
3.64589e+07
3.65772e+07
6.49467e+06
3.32903e+07
3.33959e+07
1.09534e+07
3.18191e+07
3.17014e+07
2.48459e+07
2.47495e+07
2.75166e+06
2.74094e+06
3.54805e+06
3.28398e+07
3.2721e+07
2.17359e+07
3.21017e+07
3.19806e+07
3.51876e+07
1.35112e+07
4.06198e+07
4.07402e+07
1.26231e+07
2.20665e+07
2.25052e+07
1.79508e+07
9.29761e+06
3.92608e+06
1.1177e+07
1.85561e+07
1.75734e+07
3.74601e+07
3.75772e+07
8.73944e+06
6.80908e+06
2.33783e+07
2.3922e+07
2.91269e+07
2.18835e+07
1.90229e+07
1.88965e+07
8.58722e+06
3.23202e+06
1.95411e+07
3.29853e+07
3.28643e+07
3.65825e+07
3.6469e+07
3.81054e+06
6.66037e+06
3.16206e+07
3.15181e+07
1.36418e+07
8.35226e+06
1.54735e+07
4.3022e+06
3.89014e+06
2.46245e+07
2.47158e+07
1.89785e+07
1.91202e+07
1.60314e+07
2.00025e+07
5.10449e+06
4.84039e+06
406117
411072
8.69063e+06
1.04859e+07
8.39614e+06
1.56056e+07
2.25205e+06
8.51117e+06
3.05851e+07
3.0699e+07
3.65244e+07
3.66427e+07
1.75332e+07
2.35879e+07
3.41985e+07
3.43168e+07
1.5266e+06
7.03047e+06
3.11256e+07
3.123e+07
5.83851e+06
7.2859e+06
7.24472e+06
1.02308e+07
1.22684e+07
4.57271e+06
2.48154e+06
293105
289629
3.34389e+06
3.33337e+06
1.59859e+07
1.70195e+07
1.71389e+07
1.39009e+06
1.21015e+07
2.08265e+06
2.08088e+06
1.26467e+07
1.03491e+07
8.68069e+06
1.25423e+07
2.73522e+07
4.90366e+06
1.47219e+07
1.80366e+07
6.6175e+06
1.81345e+07
3.11752e+07
3.65756e+06
1.34759e+07
1.8094e+07
1.81746e+07
6.14345e+06
7.09772e+06
2.87383e+07
2.86358e+07
2.24363e+07
2.26178e+07
171139
168808
1.16671e+07
1.41504e+07
1.40874e+07
9.85362e+06
5.23318e+06
1.73632e+07
1.73998e+07
3.38654e+07
3.37467e+07
247904
245082
8.26876e+06
3.92511e+07
3.93704e+07
3.4858e+06
1.45658e+07
3.30446e+07
3.31631e+07
3.65759e+07
3.66882e+07
7.27502e+06
1.44677e+07
6.60234e+06
1.50322e+07
1.51022e+07
3.90958e+07
3.92148e+07
8.38121e+06
2.2094e+07
8.67942e+06
2.24351e+07
2.23016e+07
1.17376e+07
1.41347e+07
1.36519e+07
1.15902e+07
1.35216e+07
3.86677e+07
3.85504e+07
1.06387e+07
4.12742e+06
6.60684e+06
2.26953e+07
1.66217e+07
3.13844e+06
1.0903e+07
5.14466e+06
1.46311e+07
4.03521e+06
6.99024e+06
4.97937e+06
1.44611e+07
7.81756e+06
3.23009e+07
1.54079e+07
2.45695e+07
2.44732e+07
1.02943e+07
8.27572e+06
5.00245e+06
1.51067e+07
1.51776e+07
651157
8.20202e+06
1.56707e+07
1.94447e+06
1.57196e+07
512645
506276
6.97323e+06
1.90888e+07
1.38097e+07
2.34123e+07
1.28735e+07
1.64835e+07
6.48426e+06
2.05431e+07
7.52386e+06
2.63129e+06
2.7237e+06
3.09119e+07
3.31758e+07
3.32929e+07
2.82145e+07
4.50915e+06
2.16625e+07
9.7167e+06
3.20924e+07
3.19723e+07
2.13053e+07
2.14022e+07
2.32488e+07
3.94317e+06
6.83707e+06
6.81047e+06
2.82991e+07
2.82938e+07
1.99687e+07
1.98481e+07
249636
253054
6.43832e+06
5.96581e+06
1.85043e+07
7.05921e+06
7.6013e+06
3.28493e+07
3.2954e+07
3.27382e+07
3.28434e+07
2.03954e+07
2.02703e+07
2.21721e+07
2.20808e+07
4.31712e+06
1.48061e+06
4.80036e+06
1.78163e+07
7.46462e+06
2.09487e+07
7.98242e+06
4.05608e+07
4.06819e+07
1.94571e+07
9.79631e+06
5.62134e+06
2.61847e+07
2.26059e+07
1.36106e+07
5.38364e+06
3.09406e+07
3.08292e+07
8.71669e+06
8.64084e+06
8.23998e+06
8.19921e+06
3.24783e+07
3.23596e+07
2.42739e+06
4.99288e+06
5.17816e+06
8.48023e+06
3.09191e+07
4.71681e+06
2.76708e+07
2.77679e+07
1.28905e+07
1.50544e+07
2.18944e+06
1.72017e+07
1.73218e+07
1.53913e+07
1.53211e+07
1.1025e+07
2.65758e+07
1.59292e+07
1.20686e+07
1.21323e+07
1.70956e+07
6.89263e+06
1.47177e+07
1.45993e+07
1.19155e+07
3.94079e+07
3.929e+07
2.81391e+07
2.80412e+07
1.62105e+07
2.94371e+07
2.95395e+07
9.39951e+06
1.29273e+07
3.02956e+07
3.01737e+07
2.33077e+07
3.35953e+07
3.37132e+07
1.91037e+07
2.90266e+07
2.91331e+07
1.90412e+07
1.91836e+07
4.76326e+06
2.71656e+07
2.70612e+07
1.49147e+07
4.25537e+06
4.14886e+06
4.52743e+06
2.04197e+07
2.03289e+07
3.73714e+07
3.74885e+07
1.44478e+07
2.34926e+07
1.18291e+07
2.68263e+06
1.43651e+07
1.31637e+07
8.47455e+06
6.78562e+06
6.81228e+06
2.71095e+07
3.67051e+07
3.68238e+07
1.38847e+07
2.40868e+06
2.90672e+07
2.91702e+07
1.40622e+07
1.81355e+07
1.81491e+07
528734
4.13021e+06
6.16501e+06
1.12876e+07
1.23907e+07
1.42769e+07
1.41582e+07
1.66354e+07
7.39158e+06
2.64648e+07
2.63432e+07
7.01171e+06
1.65432e+07
1.6659e+07
5.50357e+06
1.77752e+07
1.76967e+07
3.03739e+07
3.04761e+07
2.0503e+07
2.05912e+07
1.87298e+07
1.08747e+07
1.09501e+07
1.83142e+07
2.1003e+07
2.10926e+07
1.32001e+07
7.4042e+06
6.29208e+06
1.96426e+07
7.31861e+06
4.20993e+06
9.03349e+06
3.07339e+07
1.61366e+07
1.60506e+07
1.40793e+07
1.65118e+07
1.6426e+07
1.32726e+07
2.34233e+07
2.35189e+07
5.40364e+06
3.78694e+06
1.67852e+07
1.69058e+07
3.15026e+07
3.13813e+07
2.39662e+07
7.98304e+06
1.2715e+07
2.52399e+07
2.51317e+07
3.56137e+07
3.54945e+07
1.1687e+07
9.4387e+06
4.72265e+06
4.85924e+06
1.16957e+07
1.15573e+07
1.36898e+07
115877
210683
213425
117325
9.14155e+06
1.26481e+06
1.26064e+06
1.94785e+07
1.95634e+07
1.23962e+07
1.2457e+07
1.80825e+07
1.80028e+07
4.43294e+06
2.09622e+07
2.08714e+07
1.8547e+07
9.16409e+06
1.94793e+07
1.95697e+07
1.13536e+07
2.35363e+07
2.34334e+07
1.47047e+07
1.07355e+07
2.272e+07
1.96721e+07
1.97575e+07
2.24289e+07
3.99682e+06
939281
1.09181e+07
2.99505e+07
3.00582e+07
8.19978e+06
1.60615e+07
3.90022e+07
3.91214e+07
261520
265018
2.01324e+07
2.00085e+07
1.68275e+07
3.66658e+06
3.98979e+07
3.97804e+07
1.02075e+07
1.61615e+07
5.79329e+06
8.19004e+06
1.40893e+07
1.31214e+07
7.78548e+06
1.52042e+06
4.60686e+06
2.16417e+07
1.32499e+07
2.05606e+07
1.93774e+07
1.01977e+07
8.6166e+06
361085
357591
2.34214e+07
2.33247e+07
1.39767e+07
1.25015e+06
9.29337e+06
3.67575e+06
1.71485e+07
1.93575e+07
1.60516e+07
3.24928e+06
1.17516e+07
1.29676e+07
4.36645e+06
1.12591e+07
1.12014e+07
1.43819e+07
2.46494e+07
4.19984e+06
1.23978e+07
3.0907e+07
3.07952e+07
3.44864e+07
3.46077e+07
283128
279299
2.96605e+06
6.09204e+06
1.00009e+07
2.57103e+06
1.4734e+07
1.48178e+07
1.05657e+07
5.54034e+06
5.51952e+06
3.65283e+07
3.66477e+07
2.80432e+07
2.69288e+07
2.68253e+07
8.05441e+06
2.28805e+07
1.4463e+07
9.00492e+06
2.25845e+07
3.86614e+06
3.00262e+07
2.99047e+07
1.17374e+07
3.03024e+06
3.65504e+07
3.64377e+07
1.20842e+07
3.23236e+07
8.66097e+06
3.24197e+07
9.22534e+06
9.1746e+06
1.65108e+07
1.17107e+07
1.71589e+07
7.19946e+06
1.72531e+07
7.03895e+06
2.91956e+07
5.37272e+06
1.15881e+07
1.15277e+07
3.43839e+07
3.45028e+07
9.36557e+06
3.44679e+06
2.92648e+07
2.93736e+07
1.89443e+07
1.57054e+07
1.25078e+07
6.20594e+06
1.41562e+07
1.41652e+07
1.41019e+07
5.63155e+06
1.53824e+07
1.52918e+07
3.39842e+07
3.41043e+07
2.31912e+06
1.32467e+07
3.11257e+06
2.915e+07
2.5342e+07
2.52471e+07
1.32075e+07
3.13811e+06
9.69447e+06
2.02838e+07
8.60992e+06
1.09061e+07
4.53451e+06
1.17661e+07
1.46917e+07
3.47735e+07
3.46537e+07
2.85625e+07
2.84642e+07
2.18143e+07
2.13516e+07
5.16512e+06
6.14081e+06
3.36996e+07
3.35793e+07
2.36155e+07
2.14236e+07
2.62501e+06
9.00247e+06
3.45354e+06
2.76358e+06
2.74975e+06
9.1777e+06
4.33124e+06
3.71924e+07
3.70779e+07
974417
1.00507e+07
4.21125e+06
4.07464e+07
4.06262e+07
1.24211e+07
1.24866e+07
1.2826e+07
1.07085e+07
1.07641e+07
5.36933e+06
3.60442e+06
3.6148e+06
4.42335e+06
3.14183e+07
3.12974e+07
5.82723e+06
1.69865e+07
1.71056e+07
3.53256e+07
3.52012e+07
1.04459e+07
1.03997e+07
2.27357e+07
2.26429e+07
3.60067e+07
3.61189e+07
4.27557e+06
2.18746e+07
3.70959e+07
3.69818e+07
2.27111e+07
1.58924e+06
2.04627e+07
2.03768e+07
2.78297e+07
2.77058e+07
1.83941e+07
3.01752e+07
3.02843e+07
3.85829e+07
3.87e+07
1.8473e+07
1.00455e+07
1.39027e+07
6.44621e+06
2.44107e+07
2.42809e+07
3.08803e+07
2.20702e+06
3.15014e+06
3.09774e+07
8.79182e+06
1.40558e+07
1.39971e+07
1.53474e+07
1.52561e+07
1.4479e+06
4.12575e+06
1.67296e+07
2.38367e+07
2.38437e+07
1.02325e+07
1.48494e+06
441137
438084
1.11458e+07
1.26018e+07
1.17778e+07
3.63763e+07
3.62635e+07
1.92589e+07
1.63164e+07
1.9031e+07
1.06127e+07
2.28331e+07
2.27391e+07
2.18468e+07
7.74927e+06
1.93584e+07
1.2147e+07
1.24495e+07
1.91112e+07
2.03647e+07
2.06721e+07
2.05865e+07
3.06845e+07
3.08033e+07
2.00407e+07
6.29637e+06
1.3199e+07
2.91546e+07
2.90551e+07
2.74288e+07
2.75466e+07
5.66992e+06
1.07875e+07
2.4575e+07
2.44447e+07
1.44892e+07
4.97465e+06
4.95094e+06
1.15321e+07
1.16066e+07
3.09558e+07
1.8621e+07
1.96746e+07
2.28824e+07
1.26859e+07
1.33443e+07
5.29116e+06
3.55576e+07
3.54387e+07
3.89809e+06
4.51469e+06
6.25643e+06
1.38299e+07
6.92503e+06
7.8707e+06
1.6258e+06
1.33137e+07
1.08924e+07
6.13901e+06
4.99286e+06
1.12167e+07
9.13141e+06
2.7671e+07
8.02895e+06
7.79116e+06
7.0801e+06
7.10787e+06
1.10529e+07
5.40856e+06
5.43523e+06
9.89645e+06
5.23558e+06
2.10439e+07
2.09537e+07
1.20051e+07
4.19557e+06
4.17287e+06
9.71897e+06
6.48101e+06
1.16621e+07
1.46583e+07
1.55263e+07
1.03786e+07
3.2684e+07
1.19975e+07
1.14584e+07
1.87038e+07
1.36219e+07
1.35583e+07
5.252e+06
4.48797e+06
1.62481e+06
1.61924e+06
1.67142e+07
2.821e+06
1.29881e+07
1.05345e+07
1.291e+07
1.30321e+07
2.27927e+07
3.76234e+06
1.16432e+07
953608
957492
1.24595e+07
8.86011e+06
6.4226e+06
3.19181e+06
6.92879e+06
2.24965e+07
1.06517e+07
1.67209e+07
1.34122e+07
1.35314e+07
2.60974e+07
2.04901e+07
4.26262e+06
4.85842e+06
1.49474e+07
2.44287e+07
2.45222e+07
1.85177e+06
1.00625e+07
2.50308e+07
7.33393e+06
7.36272e+06
1.36448e+07
8.46812e+06
1.39953e+07
3.08566e+07
3.09718e+07
5.79587e+06
1.47652e+07
1.48325e+07
2.24901e+07
2.24039e+07
1.01687e+07
1.36049e+07
577702
574471
9.78872e+06
1.37243e+06
5.01887e+06
3.44512e+07
3.43307e+07
4.75349e+06
4.01581e+07
4.00387e+07
4.12817e+06
1.64602e+07
5.43854e+06
2.38608e+07
8.95335e+06
5.00784e+06
2.39556e+07
2.43851e+07
3.05637e+06
1.00546e+07
1.40589e+07
1.41759e+07
1.30966e+07
1.3344e+07
2.21856e+07
9.73364e+06
1.52852e+07
3.86163e+06
4.57098e+06
5.92194e+06
7.31335e+06
3.5418e+06
4.78019e+06
8.40111e+06
3.01278e+06
3.80525e+06
1.39721e+07
8.5718e+06
1.84939e+07
1.36502e+07
7.36801e+06
2.30439e+07
2.15821e+07
2.74536e+07
2.75583e+07
7.41869e+06
4.18116e+06
1.26547e+07
1.27827e+07
2.65278e+07
2.64059e+07
8.82036e+06
4.71478e+06
1.83597e+07
3.50545e+06
3.52446e+06
3.35369e+07
3.34173e+07
4.15474e+06
6.20892e+06
1.21746e+07
6.25966e+06
3.75647e+06
7.67713e+06
2.97244e+06
3.48836e+06
2.28781e+07
2.03304e+07
2.02408e+07
1.1494e+07
1.14366e+07
5.81806e+06
5.98882e+06
3.3566e+07
3.34459e+07
6.50134e+06
5.43946e+06
1.19543e+07
5.71688e+06
2.0839e+07
9.43177e+06
8.01681e+06
7.1594e+06
2.47888e+07
4.79548e+06
8.40528e+06
2.9383e+07
2.12224e+07
2.11307e+07
2.60206e+07
4.47977e+06
1.39678e+07
1.08967e+07
1.12366e+07
2.81556e+07
2.81098e+07
1.06016e+07
3.00266e+07
4.35241e+06
4.37053e+06
5.33459e+06
5.31166e+06
9.81329e+06
1.2075e+07
1.11107e+07
3.42933e+07
3.33576e+07
3.3463e+07
6.89874e+06
6.86158e+06
8.43706e+06
3.55674e+07
3.54475e+07
1.3693e+07
1.36095e+07
3.9059e+06
199450
196655
1.08375e+07
6.14669e+06
2.73419e+07
7.48889e+06
3.21895e+07
3.22953e+07
1.1426e+07
2.58911e+07
2.56233e+07
1.06288e+07
7.4233e+06
2.17575e+06
1.1835e+07
1.17593e+07
3.3259e+07
3.33798e+07
6.05545e+06
1.38051e+07
1.38808e+07
3.06867e+07
3.08024e+07
6.50865e+06
1.69852e+07
1.399e+07
6.31262e+06
1.31242e+07
1.30566e+07
1.08009e+07
7.85031e+06
2.37783e+07
3.23705e+06
1.50209e+07
1.50914e+07
1.44881e+07
7.0359e+06
2.88306e+07
2.86282e+07
2.85098e+07
2.17722e+07
2.38841e+06
1.12055e+07
1.10011e+07
3.80716e+07
3.79561e+07
1.56289e+07
2.30594e+07
2.29587e+07
1.52606e+07
2.35398e+07
1.85879e+07
1.85163e+07
1.15634e+07
9.21177e+06
3.55823e+06
2.49912e+06
1.78546e+07
5.7356e+06
4.11106e+06
396490
392765
2.34945e+07
5.47017e+06
5.44473e+06
2.9229e+07
2.91296e+07
3.12019e+06
3.6324e+07
3.62121e+07
2.77876e+07
2.78866e+07
3.79331e+07
3.80496e+07
1.02446e+07
3.50152e+07
3.48952e+07
3.62473e+06
1.17885e+07
1.52079e+06
1.06838e+07
8.12099e+06
1.04299e+07
2.73058e+07
2.71909e+07
8.92736e+06
8.97925e+06
7.32514e+06
2.51355e+06
2.77086e+06
2.18777e+07
4.87122e+06
1.63185e+07
2.40005e+07
8.17059e+06
5.52477e+06
3.53606e+06
3.52148e+06
2.22911e+07
1.38398e+07
2.20002e+07
1.43239e+07
6.23624e+06
5.67583e+06
1.33196e+07
1.32125e+07
1.31891e+07
8.33247e+06
1.24054e+07
1.26535e+07
6.05166e+06
1.73074e+07
3.37913e+07
1.62513e+07
1.63388e+07
2.3642e+07
1.1394e+07
1.29928e+07
1.50401e+07
1.6171e+07
3.38948e+07
1.51147e+07
1.90896e+07
1.56617e+07
8.22004e+06
1.35447e+07
4.23265e+06
1.24978e+07
9.81241e+06
7.82536e+06
4.19825e+06
8.24265e+06
1.28906e+07
1.28585e+07
8.89814e+06
2.76736e+07
2.75505e+07
1.98529e+07
8.0669e+06
4.50207e+06
5.8337e+06
2.35867e+07
2.15345e+07
2.85181e+06
2.73844e+07
9.99664e+06
5.16385e+06
2.1631e+07
1.22931e+07
1.83583e+07
8.17712e+06
4.68955e+06
2.06846e+07
2.02864e+07
1.48806e+07
546050
541389
2.30857e+07
2.64848e+07
2.6581e+07
1.92784e+06
2.95019e+07
2.94003e+07
7.48931e+06
1.35632e+07
1.35034e+07
1.57246e+07
1.86958e+06
4.28748e+06
3.66011e+07
3.64736e+07
4.04014e+06
2.75718e+07
3.04919e+07
1.13145e+07
2.9063e+07
2.89634e+07
1.52974e+07
4.17682e+06
3.10412e+06
2.5766e+07
1.32167e+07
1.3097e+07
295548
291618
2.31831e+06
9.06847e+06
2.24459e+07
2.2353e+07
2.96503e+07
2.95455e+07
2.55543e+07
6.14449e+06
1.11461e+07
2.70254e+07
2.69264e+07
3.90203e+06
470422
475572
2.60416e+07
2.60407e+07
2.96467e+07
2.97536e+07
2.85015e+07
3.33891e+07
3.3268e+07
2.22762e+07
2.21901e+07
1.55776e+07
7.51964e+06
3.01942e+07
3.05464e+07
1.20122e+07
1.46377e+06
3.04409e+07
4.97546e+06
1.44121e+07
1.70148e+07
1.85023e+07
1.09302e+07
3.19431e+07
3.18236e+07
7.37855e+06
2.85979e+07
2.86981e+07
3.37248e+07
3.36137e+07
1.17816e+07
2.12765e+07
2.13704e+07
1.32495e+07
1.31354e+07
1.35826e+07
1.25893e+07
1.24738e+07
1.37635e+07
3.449e+07
3.4609e+07
9.27536e+06
6.33637e+06
1.39056e+07
7.39226e+06
1.04678e+07
1.0337e+07
5.99205e+06
1.33777e+07
7.88133e+06
1.07184e+07
159749
162428
3.73492e+07
3.74654e+07
5.65746e+06
9.75878e+06
3.83701e+07
3.82547e+07
1.47167e+07
1.15066e+07
7.60639e+06
2.12986e+07
2.15559e+07
1.22567e+07
1.34912e+06
2.34967e+07
4.60799e+06
3.72384e+07
3.73523e+07
1.44138e+07
1.4531e+07
2.14901e+07
2.1621e+07
1.2024e+06
1.1896e+06
6.96645e+06
2.14482e+07
4.85639e+06
1.24328e+07
1.13669e+07
6.0989e+06
2.38515e+06
2.37614e+06
6.84144e+06
2.60087e+06
1.17283e+07
1.43816e+07
1.44539e+07
1.02833e+07
3.18558e+06
1.62329e+07
2.26284e+07
2.25257e+07
1.27965e+07
7.78082e+06
2.40195e+07
2.41507e+07
9.87687e+06
2.23203e+07
2.24128e+07
1.96781e+07
1.03525e+07
1.1975e+07
7.04691e+06
8.73135e+06
8.67579e+06
3.07623e+07
6.68473e+06
2.03971e+07
2.03134e+07
3.29561e+06
1.80567e+07
1.79755e+07
2.48757e+06
2.51833e+07
2.5081e+07
1.43158e+07
1.4382e+07
3.28759e+06
9.06201e+06
9.11894e+06
2.64531e+07
2.65798e+07
1.60695e+07
8.46009e+06
1.59556e+07
1.93902e+07
1.93056e+07
1.5882e+07
5.90545e+06
1.29859e+07
1.30942e+07
5.11079e+06
3.50608e+07
3.4953e+07
4.08473e+06
2.10173e+07
3.38782e+07
3.37591e+07
537867
541536
4.87444e+06
2.86212e+07
2.85176e+07
3.9755e+06
1.32642e+07
1.31457e+07
3.33126e+06
3.31647e+06
4.49991e+06
1.25691e+07
3.48543e+07
3.47471e+07
3.90805e+07
3.91993e+07
1.2141e+07
4.20264e+06
6.41946e+06
6.44424e+06
9.2371e+06
151030
148814
3.61116e+07
3.62302e+07
9.08678e+06
8.45203e+06
8.41737e+06
4.53588e+06
2.9563e+07
2.96695e+07
7.10117e+06
7.26821e+06
3.37382e+07
3.38581e+07
3.24404e+07
3.25445e+07
9.13609e+06
5.93558e+06
2.23668e+07
1.04676e+07
7.38657e+06
3.14861e+06
1.11145e+07
1.1672e+07
1.44968e+07
1.46376e+07
2.71102e+07
2.72324e+07
3.38913e+07
3.37705e+07
2.62657e+07
1.44548e+07
4.90988e+06
7.47652e+06
3.11585e+07
1.39684e+07
2.21694e+07
2.0468e+07
2.21939e+07
1.8094e+07
1.7975e+07
1.71618e+07
1.72395e+07
2.84555e+06
5.17849e+06
1.24338e+07
4.45554e+06
6.44955e+06
1.12865e+07
1.18216e+07
5.09089e+06
1.42381e+07
1.41174e+07
3.07844e+06
1.5402e+07
1.55209e+07
6.35627e+06
3.84691e+07
3.85848e+07
3.25746e+07
3.26813e+07
6.42123e+06
2.27734e+07
2.28689e+07
4.1574e+07
4.14524e+07
2.58498e+07
2.57519e+07
2.07649e+07
2.06762e+07
2.99535e+07
6.82441e+06
9.52975e+06
5.21317e+06
1.55034e+07
1.55762e+07
2.31704e+07
2.32654e+07
8.497e+06
8.49945e+06
6.60734e+06
3.91799e+07
3.90612e+07
1.45502e+07
1.92137e+07
1.91927e+07
1.09928e+07
1.43468e+07
2.0059e+07
6.34186e+06
1.20339e+07
1.18931e+07
3.53108e+06
1.41008e+07
1.30328e+07
1.86019e+06
1.85343e+06
2.53853e+07
5.79025e+06
5.04967e+06
7.62389e+06
1.80872e+07
2.92144e+07
7.70724e+06
9.87786e+06
9.83347e+06
2.89542e+07
2.88346e+07
1.8446e+07
1.83641e+07
8.54829e+06
7.68693e+06
7.04256e+06
4.68189e+06
6.29751e+06
2.48846e+07
9.08675e+06
1.02709e+07
4.31271e+06
2.70301e+07
2.70225e+07
3.44884e+06
3.43774e+06
7.98842e+06
6.16939e+06
1.92574e+07
1.94001e+07
2.20453e+07
2.19523e+07
3.61914e+07
3.60635e+07
8.59946e+06
4.89422e+06
4.93736e+06
2.2456e+06
2.50603e+07
2.54477e+07
3.219e+07
3.23117e+07
1.48331e+07
2.89974e+06
2.43305e+07
2.42366e+07
1.50094e+07
1.50628e+07
1.17493e+07
5.77436e+06
1.51589e+07
7.68342e+06
1.09922e+07
1.08733e+07
2.30273e+07
2.29364e+07
2.17764e+07
3.18135e+07
3.16943e+07
2.80057e+07
2.79084e+07
2.95314e+07
1.12566e+07
1.11512e+07
1.12597e+07
1.13181e+07
5.6216e+06
8.36887e+06
1.54429e+07
1.26003e+07
1.27264e+07
6.3795e+06
6.40438e+06
7.71895e+06
1.528e+07
2.03982e+07
2.04911e+07
1.75202e+07
7.71596e+06
3.84478e+07
3.85656e+07
8.19814e+06
2.06096e+07
2.59479e+07
8.27812e+06
2.18124e+07
2.52625e+07
2.5362e+07
8.53995e+06
2.72191e+07
2.71164e+07
8.17521e+06
8.72631e+06
2.19022e+07
1.90327e+07
1.91286e+07
1.0363e+07
1.04816e+07
618764
3.31515e+07
3.3032e+07
3.22973e+06
6.09896e+06
1.80756e+07
1.79628e+07
1.16275e+07
1.20727e+07
1.21131e+07
4.89255e+06
1.97119e+06
1.93182e+06
1.78985e+07
1.77776e+07
6.76318e+06
5.57481e+06
1.25948e+07
2.28499e+07
3.33633e+06
5.64613e+06
2.38653e+06
3.71987e+06
1.12987e+07
2.74697e+07
9.39996e+06
3.00919e+07
2.99917e+07
1.27308e+07
2.27427e+06
2.26661e+06
2.8422e+07
2.83222e+07
9.36295e+06
3.07248e+07
3.08276e+07
1.23963e+07
2.72616e+07
5.33937e+06
1.25626e+06
1.26021e+06
2.95403e+06
2.3968e+07
2.40817e+07
1.47268e+07
3.24334e+06
1.49551e+07
6.91451e+06
2.62597e+07
1.29665e+07
9.50519e+06
9.56213e+06
2.00074e+07
1.99209e+07
1.43935e+07
7.13014e+06
1.20877e+07
2.64909e+07
2.65894e+07
4.48027e+06
3.787e+06
3.76792e+06
2.28486e+06
3.39243e+07
3.4044e+07
5.73161e+06
7.44094e+06
1.14663e+07
1.04474e+07
1.02489e+07
1.50029e+07
1.48825e+07
1.03534e+07
1.24929e+07
1.60582e+07
1.59968e+07
2.01949e+07
1.38045e+07
2.07107e+07
3.5695e+06
2.53729e+07
7.60098e+06
1.24882e+07
1.23703e+07
2.03386e+06
9.69559e+06
9.65105e+06
2.76537e+07
2.75463e+07
2.27929e+07
3.08537e+07
3.21211e+06
6.05617e+06
1.18298e+07
1.72369e+06
2.5652e+07
2.4807e+07
1.73482e+07
1.06054e+07
1.44681e+07
5.60241e+06
1.4356e+07
1.74848e+07
1.76057e+07
1.63763e+07
1.62906e+07
2.11366e+07
2.15681e+07
1.03326e+07
1.62014e+07
1.6323e+07
3.60205e+06
1.90095e+07
1.84451e+07
2.66881e+07
2.67897e+07
6.53257e+06
1.89147e+07
4.86252e+06
1.43726e+07
2.49778e+07
163766
166600
1.19842e+07
7.45607e+06
8.37102e+06
6.28936e+06
4.34089e+06
1.38185e+07
1.3749e+07
2.151e+07
2.16029e+07
1.20597e+07
2.68755e+07
3.48721e+07
3.47521e+07
1.87985e+07
1.8889e+07
1.14583e+07
8.3391e+06
9.57634e+06
1.1544e+07
1.90191e+07
1.90402e+07
8.22959e+06
1.72319e+07
1.73207e+07
2.05179e+07
2.06059e+07
1.90737e+07
1.38395e+07
1.37755e+07
1.24883e+07
1.23695e+07
1.56369e+07
9.76769e+06
9.86939e+06
5.52546e+06
7.4998e+06
3.4941e+06
8.054e+06
1.15339e+07
4.63617e+06
4.61791e+06
9.40897e+06
1.16709e+07
2.10722e+07
2.11911e+07
8.35835e+06
1.15739e+07
1.21861e+07
1.41949e+07
1.70856e+07
1.70078e+07
1.46761e+07
3.42245e+07
3.43336e+07
1.34013e+07
1.45324e+07
6.19905e+06
2.21765e+07
1.81125e+07
1.8021e+07
6.94431e+06
1.6481e+07
1.36137e+07
3.10073e+07
3.11264e+07
1.99104e+07
1.99125e+07
9.22157e+06
9.66986e+06
9.14739e+06
5.6394e+06
9.62502e+06
8.85011e+06
1.11717e+07
1.0562e+07
2.44094e+06
3.88866e+06
2.16995e+07
2.17921e+07
4.49318e+06
3.53968e+07
2.39397e+07
2.4038e+07
2.29212e+07
1.42985e+07
1.34865e+07
1.09271e+07
1.43813e+07
3.28661e+07
3.29839e+07
5.35884e+06
1.5489e+07
2.27805e+07
2.2874e+07
1.27837e+07
1.22219e+07
1.96979e+07
187889
185501
1.15914e+07
2.93998e+07
2.92989e+07
1.17485e+07
3.17372e+06
1.00888e+07
2.30795e+07
1.84769e+07
894069
3.52905e+07
864884
860389
8.52847e+06
1.68616e+07
5.84877e+06
592264
588530
1.37855e+07
2.07472e+07
2.08465e+07
3.72558e+07
3.7142e+07
1.99754e+07
2.00614e+07
1.37501e+07
1.56725e+06
1.56001e+06
1.39072e+07
7.66963e+06
9.81108e+06
2.93773e+06
1.15099e+07
1.05891e+07
2.61854e+07
2.61007e+07
2.39817e+07
2.40957e+07
4.2508e+06
1.16289e+07
3.13648e+07
8.00177e+06
1.57682e+07
1.18656e+06
1.47941e+07
1.58506e+07
3.95321e+07
3.94145e+07
2.49346e+07
9.18326e+06
1.89178e+07
1.90573e+07
4.77767e+06
2.01081e+06
631835
1.16655e+07
74677.9
73140
6.76806e+06
4.72963e+06
4.70722e+06
2.22973e+06
3.15762e+07
3.1681e+07
5.40765e+06
1.24771e+07
1.85099e+07
1.25902e+07
2.50903e+07
2.51065e+07
6.37185e+06
7.96413e+06
1.24392e+07
3.83664e+06
3.14648e+07
3.15693e+07
1.61883e+07
1.61596e+07
3.17834e+07
5.40227e+06
3.95227e+07
3.96412e+07
1.48298e+07
1.47647e+07
1.13298e+07
2.57032e+07
4.44551e+06
1.88048e+07
1.88941e+07
3.53152e+07
3.51938e+07
2.8552e+06
4.19656e+06
1.43072e+07
3.03456e+07
1.14637e+07
7.63317e+06
2.22528e+07
2.23495e+07
5.7624e+06
1.00875e+07
1.34386e+07
2.22804e+07
5.68949e+06
1.325e+07
2.10585e+07
2.09377e+07
2.84691e+07
3.47645e+07
3.48842e+07
421164
415915
1.69239e+07
1.22698e+07
3.55808e+07
1.53609e+07
1.88904e+07
1.90258e+07
1.92102e+07
1.28106e+07
2.64433e+07
1.10243e+07
6.91176e+06
3.69955e+07
3.71144e+07
2.41288e+07
2.59913e+07
2.60939e+07
3.96863e+07
3.98056e+07
3.5473e+07
177651
175051
1.17096e+07
3.83994e+07
3.85173e+07
1.93123e+07
1.94275e+07
6.1551e+06
6.17819e+06
1.90035e+07
5.78322e+06
2.76805e+07
2.75552e+07
6.00535e+06
8.20021e+06
2.19651e+07
2.18663e+07
1.42703e+07
1.03727e+07
2.83379e+07
2.82362e+07
1.19873e+07
6.23598e+06
6.20646e+06
2.00025e+07
3.42979e+06
1.05299e+07
4.02719e+07
4.01524e+07
2.66132e+07
1.81965e+07
1.8076e+07
1.45295e+07
1.46022e+07
3.49629e+06
3.48026e+06
6.03102e+06
2.39459e+07
4.07932e+06
4.09901e+06
2.09216e+07
2.10413e+07
6.70603e+06
4.8945e+06
1.00099e+07
1.93384e+07
5.65391e+06
3.95603e+06
3.02062e+07
3.01056e+07
2.57429e+07
2.56384e+07
4.17381e+07
4.186e+07
1.1344e+07
1.23236e+07
1.23797e+07
2.52414e+07
2.5129e+07
8.94653e+06
559832
566755
6.36788e+06
2.0156e+07
1.30928e+07
1.29745e+07
3.04871e+07
8.30869e+06
1.65521e+07
3.46207e+07
3.47393e+07
1.10233e+07
1.17104e+07
1.18092e+07
3.12357e+06
9.85232e+06
2.70555e+06
1.95091e+07
2.46202e+07
2.47133e+07
4.0058e+06
9.67331e+06
3.39109e+07
2.04921e+07
2.05793e+07
6.97987e+06
2.583e+07
2.57256e+07
3.67179e+06
7.59297e+06
8.49492e+06
3.45844e+06
5.82936e+06
4.26661e+06
2.67954e+07
2.69223e+07
2.60762e+07
2.59526e+07
4.79582e+06
3.24654e+07
3.25787e+07
3.54227e+06
6.11301e+06
3.56214e+06
1.10244e+07
1.10853e+07
1.14263e+07
1.06453e+07
7.02895e+06
2.6266e+06
1.15754e+07
9.68814e+06
2.59824e+07
2.58597e+07
8.72201e+06
1.05711e+07
2.15029e+07
8.49521e+06
2.93209e+07
2.36524e+07
8.17795e+06
8.0315e+06
3.42722e+06
5.94732e+06
3.57502e+07
3.5866e+07
3.53195e+07
3.54389e+07
2.88337e+06
1.66244e+06
1.65456e+06
1.47129e+07
8.06367e+06
1.16464e+07
1.47136e+06
3.33781e+06
2.66726e+07
2.28367e+06
2.22033e+06
3.60787e+07
3.6197e+07
8.79098e+06
7.63512e+06
2.78028e+07
1.60148e+07
1.59441e+07
2.44561e+07
2.92891e+07
7.09775e+06
2.09507e+07
8.5958e+06
1.76154e+07
2.65761e+06
3.40586e+06
7.01797e+06
7.70944e+06
3.76279e+07
3.77459e+07
1.82452e+06
1.82201e+06
1.02263e+07
2.71584e+06
1.8296e+07
1.82098e+07
8.07534e+06
9.19844e+06
9.37999e+06
2.02803e+07
2.03844e+07
2.85146e+07
3.59805e+06
1.58646e+07
1.13336e+07
1.94459e+06
2.28987e+07
3.31513e+06
1.37854e+07
2.5519e+06
2.81321e+06
9.79244e+06
3.14036e+06
8.24577e+06
1.70096e+07
3.59426e+07
3.5819e+07
1.56693e+07
1.57863e+07
9.85349e+06
9.77878e+06
5.31512e+06
1.98252e+07
1.41408e+07
1.43916e+07
1.44608e+07
2.77712e+07
1.14525e+07
2.75647e+06
1.40223e+07
1.22821e+07
7.80709e+06
6.18613e+06
1.62226e+06
1.6303e+06
1.33251e+07
1.3453e+07
4.41799e+06
4.4363e+06
2.10649e+07
1.77393e+07
1.01302e+07
8.47108e+06
1.12003e+07
8.1734e+06
1.58378e+06
1.69068e+06
2.59898e+06
1.01581e+07
1.76982e+07
3.47686e+06
4.46969e+06
1.57434e+07
2.49426e+07
2.49296e+07
1.64089e+07
5.54176e+06
3.55152e+06
2.73972e+07
2.72714e+07
2.38397e+07
2.37359e+07
1.16586e+07
5.84906e+06
9.76962e+06
1.11721e+07
1.13635e+07
1.05293e+07
1.10302e+07
4.07764e+06
1.06096e+07
6.97342e+06
6.9313e+06
4.23214e+06
7.24833e+06
1.08701e+06
1.07061e+06
5.30774e+06
1.54957e+07
2.19037e+07
5.83761e+06
1.51214e+07
1.51971e+07
3.08148e+07
1.77993e+07
1.76889e+07
713376
704419
1.22083e+07
2.55414e+07
2.54382e+07
3.27399e+06
1.37755e+07
7.50278e+06
3.97441e+06
7.07791e+06
7.10344e+06
2.16184e+07
2.17186e+07
7.98498e+06
2.40636e+06
1.55509e+07
3.23271e+07
3.22218e+07
2.56752e+07
2.5578e+07
2.3411e+06
1.53892e+07
1.54717e+07
1.17952e+07
1.03475e+07
3.02044e+07
3.03251e+07
5.76607e+06
1.10186e+07
1.27532e+07
3.90257e+06
167615
165815
1.94521e+07
1.95565e+07
1.67551e+07
1.68746e+07
3.84479e+06
3.82839e+06
9.24621e+06
1.94222e+06
1.93542e+06
1.85672e+07
2.573e+07
1.23019e+07
1.82884e+07
1.81771e+07
2.95201e+06
2.16052e+07
1.90493e+06
6.54871e+06
2.39311e+07
2.06174e+07
2.07057e+07
1.08197e+07
7.17035e+06
2.3799e+07
3.55178e+07
3.56283e+07
2.18213e+07
2.53646e+07
2.52428e+07
1.5636e+07
1.55281e+07
109311
107531
1.04619e+07
1.25237e+07
6.70856e+06
3.36998e+07
1.13191e+07
1.29746e+07
1.03298e+07
1.04718e+07
3.35607e+07
3.34425e+07
7.32934e+06
3.03117e+07
3.01908e+07
1.36402e+07
1.63631e+07
1.64806e+07
2.9162e+07
1.31365e+07
2.78855e+07
2.79881e+07
2.61085e+07
1.28336e+07
1.73172e+07
9.80981e+06
1.0457e+07
2.1923e+07
2.20234e+07
1.07066e+07
1.06466e+07
7.68128e+06
3.12678e+06
2.84089e+07
1.12224e+07
3.75143e+06
1.52118e+07
1.53391e+07
5.24848e+06
3.86764e+07
3.8795e+07
2.67507e+07
2.68515e+07
4.11426e+06
5.66026e+06
5.70734e+06
3.3534e+07
2.35611e+07
1.64051e+07
3.94209e+06
3.01683e+07
1.15164e+07
3.21296e+07
3.2375e+06
3.63679e+06
6.89206e+06
9.30301e+06
1.73568e+07
1.80415e+07
1.79314e+07
2.59228e+06
4.04116e+07
4.05322e+07
2.04487e+07
2.03104e+07
1.20556e+07
9.38256e+06
4.95718e+06
5.33795e+06
1.99195e+07
3.17607e+07
3.16391e+07
2.08732e+07
7.57195e+06
5.53469e+06
5.27545e+06
601570
596705
3.26393e+07
2.58796e+06
2.14029e+07
2.13113e+07
1.22829e+07
1.23399e+07
8.3845e+06
8.43651e+06
1.75676e+07
1.77858e+07
3.04453e+06
1.76586e+07
4.29037e+06
1.24756e+07
1.23881e+07
1.75892e+07
1.24681e+07
1.25325e+07
1.345e+07
2.3997e+07
2.39981e+07
5.49032e+06
7.65975e+06
7.82922e+06
9.67707e+06
6.37867e+06
3.66821e+06
1.08702e+07
3.34345e+07
3.35551e+07
1.53026e+07
1.52771e+07
1.5352e+07
4.06909e+07
4.08121e+07
1.40731e+07
8.36239e+06
2.15612e+07
2.16527e+07
8.14248e+06
1.35745e+07
5.34194e+06
1.23604e+07
6.45565e+06
2.34126e+07
1.45601e+07
1.44903e+07
5.31592e+06
5.87308e+06
5.85278e+06
3.84907e+07
3.86068e+07
1.52274e+07
1.56362e+07
1.06006e+07
1.06091e+07
1.57181e+07
1.46031e+07
777546
773115