/*--------------------------------*- C++ -*----------------------------------*\
| =========                 |                                                 |
| \\      /  F ield         | OpenFOAM: The Open Source CFD Toolbox           |
|  \\    /   O peration     | Version:  v3.0+                                 |
|   \\  /    A nd           | Web:      www.OpenFOAM.com                      |
|    \\/     M anipulation  |                                                 |
\*---------------------------------------------------------------------------*/
FoamFile
{
    version     2.0;
    format      ascii;
    class       volScalarField;
    location    "1000";
    object      sigmaxz;
}
// * * * * * * * * * * * * * * * * * * * * * * * * * * * * * * * * * * * * * //

dimensions      [1 -1 -2 0 0 0 0];

internalField   nonuniform List<scalar> 
27023
(
6.23187e-14
4.93441e-14
2.89444e-13
2.20726e-13
0
-2.18584e-13
1.82307e-12
-4.50158e-13
-4.40048e-14
-2.05483e-13
-2.56686e-13
-4.022e-13
-2.77776e-14
1.51393e-14
3.25216e-13
4.06088e-13
-3.67246e-13
0
1.3388e-12
0
-3.08451e-14
-2.21134e-14
-1.04058e-12
-3.79714e-13
9.61105e-13
1.52098e-12
7.13984e-13
3.23421e-12
-5.61283e-13
-2.01978e-12
3.92614e-12
1.62297e-13
2.0223e-12
-1.97925e-13
3.96272e-13
-4.30132e-12
6.92197e-13
1.38334e-12
8.11144e-14
-1.16545e-13
-8.76149e-14
-3.48634e-14
-4.32209e-12
-5.00923e-14
5.00952e-14
2.06959e-12
-1.49066e-12
-1.9466e-12
1.94656e-12
-1.29973e-12
1.46984e-12
-5.74627e-13
3.40315e-12
1.66005e-15
4.53971e-14
7.14618e-13
1.13963e-12
5.22068e-12
-9.62153e-13
-4.5296e-13
-2.99194e-13
-7.75929e-12
3.16355e-12
1.75441e-12
-4.61702e-12
-9.24861e-13
4.7978e-13
-2.08575e-12
4.71887e-13
-4.54984e-12
0
-1.39406e-12
-1.22877e-13
-8.16138e-13
-8.06912e-13
-5.38569e-13
4.38154e-15
-2.78829e-14
3.13815e-12
-1.41555e-12
4.95588e-13
1.74256e-12
-1.37105e-12
-2.45958e-13
6.1086e-13
-2.02227e-12
-1.0828e-12
1.17022e-12
2.14054e-12
-1.84595e-12
1.08599e-12
5.10651e-14
-1.15456e-13
-1.59322e-13
-3.8173e-14
-1.53717e-12
-1.63049e-12
1.46013e-12
-2.31168e-12
1.25494e-12
-8.51258e-13
-3.51992e-12
-1.35163e-12
2.14396e-15
8.80094e-13
5.46417e-12
-5.51001e-13
4.12832e-13
-2.04031e-12
1.09985e-11
-5.07529e-12
-2.01032e-14
4.25667e-13
-1.95664e-12
2.9228e-13
9.12438e-13
2.13244e-12
-1.42364e-13
-6.64594e-13
9.92852e-13
-5.54249e-12
3.2875e-12
-3.09708e-13
8.71994e-13
-1.57456e-12
7.55494e-13
-3.02261e-14
1.37915e-13
1.47782e-13
9.57134e-13
-4.40195e-13
1.15975e-14
-5.76945e-15
5.82007e-14
-3.97779e-12
-3.08896e-12
-6.43762e-14
9.68471e-13
1.00265e-12
1.24202e-13
-2.69761e-13
-2.3047e-12
-9.83814e-13
-9.53469e-13
-6.72326e-13
7.37325e-13
-3.66637e-12
-1.329e-12
4.79759e-13
6.84545e-14
-1.21626e-13
4.86661e-13
-2.59559e-13
1.1767e-12
1.15894e-12
8.0925e-12
-3.44566e-12
2.40681e-12
2.50224e-12
-1.09917e-12
1.76753e-12
-3.91111e-12
3.72645e-12
4.04492e-12
-2.13222e-13
-2.17884e-13
-1.51541e-13
8.70697e-13
-1.35067e-13
-6.67582e-13
5.68055e-13
2.8424e-12
1.07804e-13
-8.97452e-13
0
4.91082e-12
5.25494e-12
-1.31417e-12
-9.44706e-13
1.54375e-13
4.0652e-13
-1.62583e-12
-1.03596e-12
-1.17049e-12
-2.74621e-12
7.77306e-13
7.31089e-13
-4.9424e-13
-2.60726e-12
1.80688e-12
-1.25605e-12
6.28118e-14
-3.44995e-13
-9.34757e-13
7.39704e-13
1.20901e-12
-4.6821e-12
4.59639e-13
2.72875e-13
2.57818e-13
2.0875e-12
4.84855e-13
1.54669e-12
2.95896e-12
0
-3.05637e-13
1.13058e-12
-6.74817e-13
1.33477e-12
1.64946e-12
0
6.6144e-16
-2.89476e-13
1.11792e-12
-1.32431e-13
7.65529e-14
-6.84643e-13
7.17381e-13
1.33625e-12
1.0769e-12
1.45785e-12
4.54124e-12
4.31277e-13
3.78592e-14
-1.21159e-12
-8.90521e-13
1.92816e-12
-3.09918e-13
-1.11056e-12
1.2325e-14
7.69389e-14
-3.36126e-12
-6.28638e-13
-9.92552e-13
-1.29484e-12
1.67605e-12
-7.26613e-13
2.53777e-12
1.15833e-13
2.02294e-12
-2.02726e-12
1.31057e-12
-1.38264e-13
-4.69625e-12
-4.40161e-13
5.15236e-13
4.33503e-12
4.1467e-13
-3.00744e-13
3.07728e-13
-1.24808e-12
1.88252e-12
-3.08447e-12
-4.94469e-13
1.2363e-12
-3.14793e-12
0
-2.64175e-12
-2.63523e-12
1.00177e-12
3.34255e-13
-8.50018e-13
-3.84576e-12
1.24529e-12
-2.37741e-12
-2.26581e-12
-8.10227e-14
-4.29241e-13
-1.93483e-12
-7.34209e-14
-1.88335e-14
8.8529e-12
3.3941e-12
4.48684e-13
-2.33122e-12
-8.72782e-13
-3.94266e-14
-2.78024e-14
-2.84832e-12
4.62033e-13
-8.77801e-12
9.08206e-13
1.16882e-11
-1.76301e-12
-9.35867e-15
-9.91509e-15
-2.40866e-12
5.73115e-12
-1.21942e-12
-1.89485e-14
-3.37471e-12
1.55276e-12
-2.22725e-13
1.12203e-12
0
-6.07152e-13
-2.06659e-12
1.17892e-12
1.26252e-12
0
-5.43713e-14
-5.22853e-13
4.01288e-13
0
-8.08009e-14
1.5469e-14
-5.47025e-16
-1.99202e-12
-3.96458e-12
-1.56489e-12
1.04596e-11
2.34324e-14
-2.33213e-14
7.03817e-14
1.7433e-13
1.9235e-12
-7.4767e-13
2.21224e-13
-2.15542e-12
8.47314e-13
-2.33441e-14
-3.69649e-14
4.3114e-13
4.45396e-13
-3.02754e-13
-3.72839e-13
2.34392e-12
-6.27369e-13
-1.6014e-12
2.28512e-13
-5.31798e-14
-1.08913e-12
-2.90615e-12
-1.43018e-13
-3.91297e-12
-2.20017e-13
-3.77583e-13
2.98623e-13
-8.47435e-13
-4.44388e-14
-6.53605e-13
9.99506e-12
-5.41768e-12
0
1.16653e-15
-8.63855e-13
-2.41004e-13
5.20267e-13
-1.23272e-12
1.1925e-12
1.51359e-12
-2.24327e-13
1.65723e-13
-1.08755e-12
1.29075e-14
-9.34464e-15
-3.16715e-13
2.03058e-12
-2.16944e-12
3.49156e-13
6.34007e-13
6.59255e-13
-1.96091e-12
4.09497e-14
8.57868e-13
-3.61443e-12
1.6715e-12
4.78333e-13
-2.24147e-13
2.25611e-13
-1.46446e-12
-9.42942e-13
-7.60034e-13
0
-7.58724e-14
3.80667e-12
-2.41532e-12
-9.22937e-13
2.7863e-12
1.60513e-12
1.73225e-12
1.20989e-12
1.37091e-12
6.29174e-13
-1.60869e-13
-6.64909e-13
-5.03099e-13
2.37898e-12
-5.96709e-13
5.88738e-14
-7.15855e-13
9.87804e-12
2.66075e-13
-2.61641e-12
-2.83999e-13
4.87477e-13
2.56606e-13
-6.06414e-12
-3.84707e-12
0
3.1275e-13
-3.6567e-13
-2.93488e-13
-7.6023e-13
-9.28937e-12
1.49907e-13
-3.61309e-13
6.88576e-13
4.08645e-12
8.27588e-13
1.48702e-12
-1.19624e-12
3.78724e-15
-5.15225e-15
2.28472e-12
1.28415e-13
-1.93282e-13
-2.61134e-12
2.18358e-12
-3.04322e-12
0
-3.18233e-12
1.43011e-13
-1.56902e-12
4.28845e-12
-2.82577e-12
0
-1.31314e-13
3.71767e-12
1.08501e-13
4.18662e-12
0
9.13224e-13
-1.86458e-12
-6.55892e-13
1.30181e-12
-5.90407e-13
4.03588e-14
6.35687e-14
-1.34355e-13
-3.48487e-12
-9.22721e-12
-1.53634e-13
-2.1643e-12
8.96047e-16
4.62239e-17
-2.61788e-13
2.22422e-12
3.18457e-13
4.09514e-16
1.59955e-13
1.14496e-13
-1.11988e-13
-2.64342e-13
5.53529e-13
-1.15109e-12
-2.2803e-12
5.11924e-13
6.92335e-13
8.87971e-13
1.32525e-12
-5.8912e-13
-1.85556e-12
-1.78586e-12
-2.14677e-12
-3.63578e-12
-1.75247e-12
8.90542e-13
-3.84379e-15
4.50508e-12
1.0361e-11
0
5.05634e-13
-5.29976e-13
5.5753e-13
0
-6.56213e-13
2.81769e-12
4.80682e-12
-1.89301e-13
2.88407e-13
-1.97222e-12
9.06634e-13
-1.02539e-12
1.81918e-12
1.2115e-12
-3.44996e-13
-3.69648e-12
-1.19561e-11
-2.35885e-12
1.09499e-12
1.63998e-12
1.79872e-13
-1.83892e-12
-1.67405e-13
-2.43634e-13
-8.6256e-13
-6.95557e-14
-6.17804e-13
3.90714e-12
8.54016e-13
9.77561e-15
-4.88868e-15
-2.78188e-12
2.63502e-13
1.06747e-12
7.74748e-13
4.96597e-14
5.73406e-13
9.0425e-13
-7.46735e-13
-1.18103e-12
-5.5547e-13
7.31479e-14
6.10033e-13
1.2377e-12
-1.09818e-12
-2.055e-12
2.10747e-12
-2.30538e-13
-2.56732e-12
1.28215e-12
1.26692e-12
-3.89751e-13
9.56892e-13
-4.09022e-12
-2.00283e-12
2.46286e-12
-1.18578e-12
8.98522e-14
3.72938e-12
-6.52719e-13
2.23967e-14
1.25728e-13
1.72793e-13
-1.72519e-13
-2.10925e-12
-1.95276e-12
-3.34228e-13
1.98041e-12
8.39269e-13
4.20351e-12
1.36482e-12
-1.03516e-13
4.5024e-12
1.63504e-13
2.31004e-13
8.47308e-14
-3.75098e-13
-4.3782e-12
-5.39567e-12
2.31552e-12
-3.66582e-13
-6.0769e-13
-6.05462e-13
2.81317e-12
4.71958e-12
1.60172e-12
-1.12083e-13
-4.50361e-12
6.42452e-13
2.65532e-12
9.37047e-13
-2.11551e-12
3.30596e-12
4.28552e-13
0
0
2.35181e-12
2.45903e-12
1.31702e-12
4.60202e-13
5.18154e-14
0
7.11695e-13
4.56418e-13
-1.26677e-13
-2.76816e-13
8.26528e-13
4.87724e-13
-4.97604e-13
-2.3791e-12
4.29173e-13
0
-2.42417e-12
8.24935e-13
3.12793e-14
-2.55823e-12
3.97946e-13
-1.12613e-13
0
-2.65538e-12
5.00933e-13
-1.1404e-12
-2.47571e-12
1.34434e-12
-1.27768e-12
-5.29822e-12
-1.10985e-12
6.99059e-13
-1.6268e-12
1.80811e-12
-9.79964e-13
1.3903e-12
4.83984e-13
4.95046e-15
-2.32672e-12
1.87646e-12
-4.04248e-13
1.73981e-12
-1.74138e-12
-2.66702e-12
1.38469e-13
-3.28296e-12
-2.17747e-13
-7.20201e-12
-1.16956e-11
-9.30839e-13
-1.14502e-12
-1.62701e-11
-5.67034e-15
-3.88031e-15
4.85648e-16
4.02449e-16
-2.28338e-12
-2.88662e-14
3.81333e-14
0
-3.8849e-13
-1.87633e-14
1.83482e-14
1.2579e-13
-1.02744e-13
3.23939e-13
-5.1735e-13
1.28145e-12
-4.42483e-13
5.91952e-13
8.37024e-13
-2.06006e-12
-9.50657e-13
-1.02069e-12
-1.32321e-12
1.33506e-12
8.66362e-13
2.06071e-12
-7.19305e-13
-4.04314e-13
1.05628e-12
0
1.57417e-12
-5.3761e-13
1.34811e-12
0
1.65159e-13
6.25269e-13
-1.51066e-12
-1.20323e-12
-9.41327e-16
1.2458e-15
-2.12379e-12
-1.15374e-12
-3.61381e-12
-2.6832e-12
3.80052e-13
3.83093e-12
-8.62701e-13
-2.40263e-13
0
-1.96056e-12
7.59996e-14
-1.92985e-12
-3.81505e-12
-3.12445e-14
2.5624e-12
-4.43529e-12
-6.76591e-13
-4.9111e-12
1.05401e-12
0
2.15772e-12
1.44881e-14
3.99746e-15
-1.55648e-13
1.33884e-12
9.31495e-13
1.04453e-12
-9.18155e-13
-2.47235e-12
1.04243e-11
-1.75981e-12
-3.37647e-13
3.99407e-12
1.37802e-12
-2.65801e-12
-1.85322e-12
-4.23291e-14
-1.90549e-14
-6.61836e-13
-7.36767e-13
5.883e-15
-4.68991e-12
6.94629e-13
3.45255e-13
1.3731e-12
9.19644e-13
-7.65404e-16
3.6456e-15
-8.67316e-13
8.66111e-16
-2.36457e-12
2.36202e-13
8.89169e-13
-4.20167e-13
-4.38206e-12
1.60134e-13
4.22183e-14
0
1.94861e-12
-4.87248e-14
-8.55921e-14
9.28862e-13
-1.07764e-13
-4.33435e-12
-3.31431e-13
-2.58151e-12
-8.66546e-13
-1.71204e-12
0
1.23739e-12
-3.93985e-12
3.3263e-13
-1.07687e-12
3.3921e-13
2.54237e-12
-2.99986e-13
-5.82167e-13
2.99197e-13
-2.84777e-13
-1.67005e-13
7.53014e-13
1.78293e-13
8.52718e-13
6.37892e-13
-1.61455e-12
6.86289e-13
1.56001e-12
5.01352e-13
2.28402e-13
-3.35876e-13
-1.63012e-12
-2.79533e-13
-1.90802e-12
2.08801e-13
3.07491e-12
0
3.12209e-12
2.53074e-13
5.51022e-12
1.11312e-12
1.47662e-12
-4.35285e-13
-1.91793e-13
3.21454e-12
-7.0654e-13
-3.4474e-13
-1.77731e-12
-1.19048e-12
-3.96081e-13
1.02607e-12
-2.72676e-14
-1.94773e-12
4.87774e-13
2.34841e-14
-2.84796e-12
1.41939e-12
4.23839e-13
-2.34104e-12
-1.84969e-12
0
6.73321e-14
-3.25621e-13
-3.78946e-12
0
1.13786e-12
2.56875e-13
-1.64231e-12
-3.72031e-12
9.8355e-13
2.11303e-12
-9.22751e-14
0
0
3.29318e-12
-5.24928e-13
1.63647e-12
4.73602e-12
-3.96651e-12
4.22595e-15
0
3.81939e-12
3.67788e-12
8.74338e-14
-2.56403e-13
-5.1922e-13
-2.55399e-13
1.20851e-13
7.55095e-13
2.62078e-12
1.57643e-13
2.05101e-13
3.12204e-14
-4.72197e-14
-1.39324e-13
8.46051e-12
1.98891e-12
-4.33178e-12
-7.1611e-12
-8.76811e-14
-5.28206e-13
-6.26357e-12
-9.3486e-15
-5.41469e-13
0
-4.52578e-12
1.17666e-12
-9.816e-13
-1.45109e-14
-3.08205e-13
-2.4433e-12
-4.46612e-13
-2.21947e-12
1.23389e-12
-3.21708e-13
1.43749e-12
4.99705e-12
-7.72316e-14
-3.00942e-14
1.41187e-13
-1.03074e-12
7.32373e-13
5.59535e-13
3.42558e-12
0
-2.90526e-12
1.42216e-12
-5.21248e-13
4.90954e-12
-9.90944e-13
-1.86939e-12
2.13147e-13
3.14498e-13
1.85686e-12
-1.08306e-12
4.15633e-15
3.90019e-14
-1.2143e-12
1.43038e-12
-5.39643e-13
-1.00417e-12
4.36513e-13
-6.04868e-13
0
3.82171e-12
3.3555e-12
3.6574e-12
2.36695e-12
-1.95787e-13
1.56516e-14
-1.14923e-14
2.48437e-13
5.32308e-13
3.75296e-12
-4.17463e-13
7.16027e-13
-6.96247e-14
-2.15608e-12
3.45508e-13
3.14273e-12
-1.20493e-13
4.24956e-14
-1.24769e-12
-1.38143e-12
1.88882e-13
1.04717e-11
1.60116e-11
3.2017e-13
1.17628e-12
-5.66498e-14
-5.20802e-13
0
6.55843e-13
4.26592e-12
-2.57486e-13
1.24879e-12
5.55679e-14
-2.35136e-13
-5.33008e-13
3.53841e-13
3.55594e-13
2.03663e-12
1.24953e-12
2.64665e-12
-9.73789e-13
8.2585e-14
-2.40546e-14
1.68885e-12
-1.34157e-13
-2.09115e-13
-1.80716e-12
7.03619e-14
-1.91654e-12
-2.05995e-12
7.5206e-13
-2.34182e-13
6.84101e-13
-6.93986e-13
-9.41457e-12
2.39777e-13
-8.26719e-13
0
-2.52054e-12
1.61413e-13
-1.36078e-12
3.14479e-12
-8.69945e-13
6.36493e-13
1.01752e-12
5.84695e-14
-2.05778e-12
4.55078e-12
-3.06363e-12
-3.68745e-12
0
-8.47807e-14
-5.09287e-13
-1.22706e-13
1.35646e-13
-9.0364e-13
3.12903e-12
2.17802e-13
-6.02814e-13
0
1.51361e-13
3.20208e-14
8.71213e-13
4.00728e-12
6.2438e-14
0
1.48595e-12
6.66109e-14
9.15172e-13
7.04631e-13
-7.53185e-13
1.49709e-12
8.36953e-13
-6.57121e-13
1.43393e-12
7.72005e-13
-1.09769e-13
-1.84188e-15
3.17627e-13
1.59809e-12
5.51653e-12
6.31007e-13
1.33551e-12
-1.6531e-12
-7.56013e-13
1.95776e-12
5.03339e-12
4.37342e-14
-6.3415e-14
0
1.81015e-13
-2.78243e-13
2.34076e-13
1.62631e-12
-1.45597e-12
2.23653e-14
3.85779e-12
6.37906e-13
1.01295e-12
-6.06898e-13
6.25438e-13
1.62956e-12
-7.21596e-15
1.70515e-12
-2.21692e-13
-1.57511e-13
8.40036e-13
-9.52019e-13
2.54452e-12
-3.8914e-13
-7.36056e-14
2.99186e-12
-3.5132e-13
-3.24739e-13
0
1.26972e-12
-7.42821e-13
1.25236e-12
-1.22174e-12
3.91364e-13
5.46092e-14
5.04085e-12
-3.48779e-13
3.03383e-14
-3.8041e-15
-6.47693e-13
-5.05911e-15
-1.48179e-12
9.88597e-13
-4.7963e-13
-3.19917e-12
-4.31323e-13
8.13979e-13
2.1793e-13
-2.5401e-12
9.5322e-13
0
-1.30385e-13
-7.53292e-14
6.56871e-14
-4.30675e-12
-5.18203e-13
-1.44296e-12
-4.06207e-13
9.13192e-13
-1.16081e-13
-8.75175e-13
-7.13003e-13
5.49299e-13
1.42699e-14
-5.23675e-15
8.11461e-14
-8.53483e-13
-2.3164e-13
5.79498e-13
-9.87432e-13
-2.37178e-13
1.70264e-12
7.88839e-13
-1.28797e-13
-2.05176e-13
2.32496e-12
-3.95064e-12
-2.63538e-14
-1.23357e-12
1.4656e-12
4.25591e-13
7.88216e-14
-1.17504e-12
-2.0557e-12
-4.69475e-14
-9.53727e-13
-1.91235e-12
6.45552e-13
5.61132e-13
-2.94473e-12
4.68353e-13
7.26331e-14
-3.36605e-14
-2.81261e-12
2.69528e-12
2.70007e-13
3.75439e-13
-4.74479e-12
4.31412e-13
1.9646e-12
-5.80763e-13
9.57785e-13
1.06783e-13
-1.3887e-12
-1.38541e-12
1.09569e-12
-3.07921e-13
-2.54633e-12
-5.69646e-13
-1.05442e-12
2.63603e-12
-3.71616e-12
4.87396e-13
1.11939e-12
-2.52016e-13
1.96969e-12
3.88354e-13
-1.69564e-12
-3.67402e-12
1.05356e-13
8.62243e-13
2.42029e-12
3.73768e-12
8.85048e-13
1.71881e-12
-3.75643e-13
-4.3123e-12
-6.52517e-13
1.53867e-13
6.5316e-13
1.11347e-14
-2.46415e-12
-2.46487e-12
4.09186e-13
-7.19987e-13
9.49808e-14
-1.81217e-13
3.66238e-14
1.15438e-13
4.47037e-14
-9.08404e-12
-9.64986e-12
1.35379e-12
-1.54909e-13
8.15084e-13
-4.63859e-14
-1.06372e-13
2.20833e-13
9.29251e-13
-1.74757e-12
1.78773e-12
-7.99133e-12
2.4303e-13
-1.09434e-15
6.24582e-16
1.71711e-13
1.69577e-12
2.5374e-12
9.655e-12
1.2343e-12
-1.25397e-12
6.30123e-13
7.00172e-12
4.07022e-12
-1.63797e-12
-2.45122e-12
8.19563e-13
1.0098e-13
-7.62188e-13
-3.0142e-12
-7.4992e-13
4.6129e-13
3.65565e-13
0
1.15226e-12
-8.89583e-13
-3.37287e-13
8.61367e-13
2.22464e-12
-2.91269e-13
3.56374e-13
4.1821e-13
-1.17387e-13
3.6968e-14
3.5614e-13
-4.50555e-13
-1.36479e-13
-1.37843e-13
-5.65297e-12
-5.00573e-13
3.03387e-12
-1.08384e-12
9.09055e-13
4.39851e-12
-5.94364e-13
-8.69334e-14
-7.3012e-12
-6.96543e-13
6.72008e-13
3.66532e-12
6.31244e-13
-1.42263e-13
2.36044e-13
2.24675e-12
-1.43004e-11
-5.46188e-13
5.23251e-13
1.35419e-12
4.31867e-12
3.22863e-12
-8.13039e-13
1.16087e-12
-7.439e-14
4.51007e-14
-4.48486e-14
-3.76304e-12
-1.01095e-13
-2.84839e-13
1.04361e-13
-4.07121e-13
1.45607e-11
-7.7806e-13
1.0961e-12
-3.97176e-13
6.91759e-13
-1.05989e-12
4.33108e-14
-9.61118e-14
1.40053e-12
-1.11019e-12
2.28181e-12
-1.90313e-12
8.46883e-14
1.78919e-12
3.09984e-13
-3.56488e-12
6.70092e-13
-2.44599e-12
4.06315e-14
-4.59569e-13
8.05254e-13
3.4645e-13
-1.16585e-12
3.15039e-13
-2.1862e-12
1.58555e-13
1.9087e-13
-8.96957e-14
-1.69571e-12
-9.18407e-14
9.62978e-14
3.88598e-13
2.63722e-13
-2.95053e-13
1.45225e-12
-4.67875e-13
-6.70823e-14
5.86318e-13
-6.10019e-14
-1.52225e-12
-7.36521e-12
1.8742e-11
-1.30454e-11
-8.36474e-13
-1.63395e-12
-1.63753e-12
5.69476e-13
-9.61837e-13
7.01785e-12
-3.30885e-13
-1.4085e-12
-4.2124e-13
-9.3138e-13
4.68751e-12
-2.2211e-13
-1.56875e-12
2.24641e-12
-5.26298e-13
-3.6478e-13
4.09669e-13
3.57347e-12
1.03096e-12
-2.58281e-12
3.81448e-12
7.58139e-14
-2.55066e-12
8.13556e-13
8.39001e-13
2.24745e-12
-1.42756e-12
3.40497e-13
0
-6.85728e-13
1.06027e-13
8.66916e-13
1.66087e-13
-2.31451e-12
4.17737e-12
-6.22717e-13
-9.34319e-13
1.5236e-13
1.10397e-12
-5.64417e-12
2.21211e-15
0
-8.46208e-12
0
1.21516e-12
7.23069e-15
-3.78167e-14
-1.33678e-12
1.01021e-13
1.48886e-12
2.62719e-12
-1.51291e-13
0
0
3.46552e-13
-2.31221e-13
7.30084e-13
8.39427e-13
-6.73563e-12
-1.31469e-12
1.82427e-12
-8.85867e-12
-3.01324e-12
-4.09293e-12
3.56409e-13
3.19192e-13
-8.91445e-13
5.35333e-13
0
3.88943e-13
-9.95896e-13
1.22547e-12
0
-3.49161e-15
5.01343e-15
-1.77535e-12
5.23583e-13
2.83324e-13
1.08446e-13
-1.55199e-12
1.19535e-12
8.41641e-13
1.48415e-12
-9.55887e-13
1.70605e-13
8.36395e-13
-5.23656e-12
2.08177e-14
-1.82883e-14
0
3.32028e-15
1.61959e-13
-2.09432e-12
0
-8.00032e-13
-1.3254e-12
-3.35844e-13
5.44956e-13
-3.02685e-13
2.67071e-13
-4.23366e-12
-6.77881e-13
6.68844e-13
6.41247e-13
6.8742e-14
7.19654e-13
5.28019e-13
0
-1.08082e-12
3.43691e-12
8.45175e-13
-3.91901e-13
-1.1903e-12
4.26883e-13
-6.66193e-13
1.81727e-12
3.19672e-12
2.1593e-13
-5.55332e-13
-5.60253e-13
-1.32392e-12
1.09244e-12
8.76989e-13
-1.12802e-12
-1.11963e-12
0
5.64944e-13
2.36916e-12
1.73808e-12
2.39883e-12
-7.5478e-13
-3.09862e-14
-1.53072e-12
2.42198e-13
1.27522e-12
2.63462e-12
4.06262e-13
-1.9794e-12
-9.34662e-16
-6.64735e-16
-1.0403e-13
-5.89508e-13
-3.99932e-12
1.33642e-12
4.05955e-13
1.90424e-14
2.1414e-12
-1.90494e-14
1.28182e-13
-2.0013e-12
-4.3611e-12
-1.06295e-13
7.05492e-14
2.1343e-12
-5.71298e-12
-1.75335e-12
5.6215e-13
2.48693e-13
-2.18746e-13
2.16385e-12
-6.14704e-14
6.21318e-15
1.01408e-14
2.00075e-12
4.53671e-13
3.3327e-12
-8.6158e-13
-6.48587e-13
2.08989e-13
-7.75923e-14
-4.7942e-14
3.91036e-12
2.13338e-12
-2.02634e-12
3.5207e-13
-4.59134e-13
2.75372e-13
3.73555e-12
1.18439e-12
1.49086e-13
6.22524e-13
1.31811e-13
-3.16995e-13
-6.22218e-13
-1.51947e-12
1.01423e-12
-6.38864e-13
-4.40968e-13
-2.81295e-12
6.88306e-13
4.9787e-13
6.20106e-12
3.49109e-13
1.09425e-13
1.29641e-12
-1.91491e-13
7.02422e-13
0
-1.17165e-12
6.13649e-13
-6.07849e-13
-2.55329e-13
9.99841e-13
8.05875e-13
-1.8415e-13
-9.38517e-14
1.58731e-12
-1.0107e-13
8.42948e-14
-6.1849e-13
-3.83342e-12
6.91145e-13
-1.11977e-12
-1.88884e-12
2.28821e-13
-1.3649e-13
-3.45812e-12
2.07547e-12
0
-1.38899e-13
-1.60986e-12
-5.34759e-14
5.30107e-13
-8.13227e-13
-5.10577e-13
-2.25646e-12
2.97452e-12
-1.27301e-14
0
1.26106e-13
-3.25435e-14
3.40171e-13
-1.9084e-12
-4.20973e-12
1.76972e-12
2.89111e-13
-1.48501e-13
6.77873e-14
-2.01941e-12
7.5873e-13
-1.67054e-13
6.97257e-13
9.43346e-13
-3.7968e-14
1.3902e-12
2.68595e-14
1.33702e-13
1.2479e-12
4.72072e-17
-7.14543e-16
1.8109e-12
-1.03587e-12
1.12004e-12
0
-4.3881e-14
-4.81412e-12
-3.99222e-13
-9.48158e-14
2.87882e-13
4.63302e-13
7.28618e-13
1.46206e-12
-9.87383e-14
-1.00912e-13
0
-8.42492e-14
-1.58656e-13
5.34839e-13
1.4803e-12
2.65076e-12
5.0895e-14
-1.21171e-13
-6.33535e-12
4.31421e-12
-1.2843e-12
6.65473e-13
1.64869e-12
1.64729e-12
4.5138e-12
2.11932e-12
2.43125e-12
-9.31965e-13
-9.30629e-14
-4.38165e-12
1.57181e-12
-3.21034e-12
-1.99225e-12
-5.14981e-13
1.11452e-12
-1.6909e-13
4.20156e-13
0
-1.19362e-12
-1.00889e-12
5.93753e-13
1.84381e-13
-7.36553e-13
9.84176e-13
-2.57102e-12
1.78137e-12
-2.33069e-12
1.04472e-12
-1.21183e-12
2.34189e-13
-1.01268e-13
1.10448e-14
-9.3153e-14
1.01861e-12
9.66381e-13
1.22647e-12
-5.60648e-13
-3.90983e-13
-1.48898e-12
-3.21792e-13
-1.57083e-12
7.33362e-13
7.11339e-13
-6.19975e-15
6.08876e-13
6.44175e-14
1.20325e-12
-1.58967e-12
-1.76135e-13
3.47305e-13
-1.20213e-12
-6.25076e-13
3.54587e-12
-3.67467e-12
0
-7.9791e-13
-7.97478e-13
-1.51476e-12
-3.20888e-12
2.86276e-12
-2.62572e-13
8.74064e-13
1.76296e-12
-3.41177e-12
-2.49788e-13
2.18008e-13
-2.06132e-12
-5.77342e-12
3.19082e-12
1.73325e-13
-6.40325e-15
9.1857e-13
1.02087e-13
-3.99735e-13
0
3.91409e-12
-1.15851e-12
-2.17543e-12
-1.16779e-13
2.42624e-13
8.03364e-13
6.49808e-13
2.60977e-13
-5.1956e-13
1.15359e-12
-2.32985e-12
-1.44021e-14
-8.47296e-13
-2.72609e-13
7.75001e-13
8.03523e-12
1.79737e-12
1.10668e-12
-2.25861e-12
2.25884e-12
1.07745e-13
-1.22259e-13
-1.22945e-12
-1.07425e-12
-5.77251e-13
2.44841e-12
-3.96317e-13
-8.09468e-14
9.08183e-13
-9.24459e-14
-1.57075e-13
-9.2511e-12
5.89841e-12
2.1297e-12
9.20353e-12
5.13819e-12
-4.65647e-12
3.31461e-12
4.01104e-13
-3.75252e-12
-5.84561e-14
5.64254e-14
1.38695e-13
0
-1.34484e-12
-8.67252e-13
8.34492e-13
-6.6354e-12
-4.55806e-13
1.67159e-12
2.16929e-13
-3.59252e-13
-3.21676e-13
1.64671e-12
-5.0097e-13
-6.85579e-14
2.74684e-14
-9.7854e-13
-8.04876e-13
4.44925e-13
3.43486e-13
-3.68983e-13
-9.53909e-14
5.16054e-12
5.14609e-13
-1.55141e-12
-9.31286e-13
4.24353e-14
1.38845e-13
4.21349e-13
-2.32898e-13
-1.37193e-12
0
-1.87423e-12
-7.9946e-12
5.21844e-13
4.62382e-13
2.2514e-12
3.41347e-13
1.45677e-13
-3.31187e-12
-1.30924e-13
1.10208e-12
-3.74219e-13
-5.67576e-13
-3.65366e-14
1.65599e-12
-4.67666e-14
1.46571e-12
2.71518e-13
4.83503e-13
5.78853e-13
3.50808e-13
-1.08675e-12
5.11769e-13
0
1.08797e-12
-7.06939e-13
-2.07579e-13
1.5742e-12
-5.6185e-13
-3.10473e-12
-6.32733e-13
1.00586e-12
-1.81342e-14
2.67512e-14
-6.93603e-14
1.42931e-12
1.50307e-12
-4.53942e-13
-5.69568e-13
2.30301e-12
-7.45516e-13
-7.41852e-14
-4.30917e-13
-5.15748e-12
-1.29429e-12
-6.65918e-13
-3.19913e-12
4.67722e-13
-1.82455e-13
8.31642e-13
-3.23442e-13
9.73981e-14
-5.18106e-14
1.00141e-12
-2.16251e-13
-5.28317e-12
-3.8379e-13
-2.84839e-13
2.27444e-12
-4.28259e-12
4.26466e-12
-1.12723e-13
1.42205e-13
-7.4957e-13
-2.71213e-13
1.14126e-12
-9.46816e-13
-4.51959e-12
6.10263e-13
1.34716e-13
1.2581e-12
4.8192e-12
-4.82834e-13
1.89429e-13
-6.27682e-14
4.71926e-13
-2.37446e-12
3.91953e-16
-2.84236e-13
-1.07506e-12
1.45762e-12
3.48272e-12
-2.48854e-15
1.24037e-13
9.84875e-13
1.66807e-12
8.5957e-13
-9.57926e-13
5.98091e-13
0
1.64296e-11
8.45287e-13
1.16632e-12
-1.17056e-12
-1.10872e-12
0
-4.63214e-12
-9.22214e-13
-4.0046e-12
-1.10888e-12
-1.62767e-12
-3.75052e-12
-1.97129e-12
-8.2858e-13
1.2322e-12
-5.28408e-13
-6.72415e-13
2.27798e-13
-1.08469e-13
1.52354e-12
2.12913e-12
1.21683e-12
2.76109e-12
-3.70276e-12
-1.45781e-13
-2.11696e-13
2.74774e-13
0
-2.55681e-13
-3.94821e-12
-1.90183e-13
3.14188e-12
0
2.56008e-12
-1.86976e-12
-1.88099e-12
-8.81998e-13
1.52124e-13
2.41835e-12
2.24098e-12
2.18082e-13
-8.0467e-13
2.99443e-14
-8.1542e-12
4.57175e-12
0
-1.87365e-12
-9.26655e-13
-4.44511e-13
4.9856e-12
-1.32215e-12
4.18918e-13
-2.70855e-12
-8.77124e-16
1.14523e-15
1.15549e-12
6.2873e-12
1.21471e-12
-1.74581e-12
-2.40134e-12
-1.98229e-13
-6.67506e-13
-4.88235e-13
-8.12492e-13
9.59774e-13
2.32128e-13
-1.15747e-13
1.10538e-12
0
-9.11628e-13
4.33437e-13
-6.6469e-13
-1.02662e-12
2.01836e-13
-1.90854e-12
5.78137e-12
8.5236e-13
3.24882e-12
1.42175e-12
4.73914e-13
-2.15732e-13
1.73531e-12
6.46574e-13
-1.86251e-13
1.36998e-13
0
2.88662e-13
2.46654e-12
1.06939e-11
-9.67129e-13
-1.52004e-12
-2.37022e-13
6.6624e-13
-2.58465e-12
0
0
2.48257e-13
1.35e-12
8.25136e-13
1.77703e-12
1.6412e-12
-2.81165e-12
6.13695e-13
1.28093e-12
-3.61168e-13
4.46501e-13
-1.33605e-12
1.82321e-12
-1.82607e-12
-3.30868e-13
-3.42899e-12
7.05572e-13
6.38947e-12
-1.37078e-15
-3.07962e-13
2.07841e-13
-2.92991e-12
-9.26756e-12
-3.30239e-14
5.02374e-13
1.25311e-12
-2.93698e-12
1.41175e-12
-1.26331e-12
-6.37415e-12
-5.12369e-13
0
9.81956e-13
-4.26307e-12
-7.89916e-13
3.40848e-12
-3.11917e-12
-2.12401e-13
2.57386e-13
2.57653e-12
3.08833e-12
-1.803e-13
0
2.96118e-12
-1.19781e-12
1.42207e-12
-5.92569e-14
6.75774e-13
-6.70878e-13
8.77722e-13
1.45871e-12
-2.40823e-13
0
3.03762e-13
-9.51031e-13
1.8928e-12
-2.88992e-13
-8.9936e-14
-5.36228e-15
-5.21009e-14
1.56469e-13
-1.56832e-13
1.62091e-12
-4.46462e-13
-3.21893e-12
6.01219e-14
-6.72876e-12
-2.08718e-12
9.15077e-13
1.02512e-13
7.86733e-16
-6.85069e-13
-1.98513e-12
-2.62819e-12
-5.0367e-14
6.62338e-14
4.54132e-13
-8.10729e-13
1.71202e-13
6.17809e-13
6.14615e-14
-1.94284e-13
-4.33942e-13
-1.93759e-12
-4.65456e-14
-3.94319e-14
-1.5034e-12
3.58943e-12
-8.55096e-13
4.46496e-12
-3.64962e-13
-1.2135e-12
-1.88329e-12
0
1.36116e-12
-9.466e-13
-1.34408e-11
3.97303e-13
-1.06115e-12
6.17746e-13
-5.96337e-13
1.88956e-12
3.0362e-12
-2.44865e-12
2.83702e-13
-7.12389e-13
-3.91828e-12
6.89544e-12
5.39204e-13
-1.47329e-12
4.61738e-12
-1.39116e-13
-5.46786e-13
2.20044e-12
7.94552e-15
-3.58758e-14
-2.5728e-12
2.59694e-14
-7.51489e-14
1.39897e-12
0
0
-7.63035e-13
-1.33731e-12
3.56751e-13
0
3.51066e-12
-6.37689e-13
-4.51362e-13
9.63554e-13
8.10458e-12
-3.13369e-12
3.10394e-14
-4.79333e-13
3.63658e-13
-7.97048e-12
2.01875e-12
8.83783e-13
-7.96318e-14
7.30824e-13
-2.39773e-13
7.62501e-14
1.4069e-12
3.05807e-12
6.56494e-12
0
-5.75923e-13
-2.05803e-12
-5.53178e-13
-1.54335e-12
5.95234e-13
3.70017e-13
-1.13353e-12
-6.58115e-14
-8.33314e-13
7.80403e-14
1.33117e-12
-6.67443e-13
-2.30248e-12
1.55391e-13
3.75998e-12
-2.08112e-12
5.51925e-14
1.15238e-12
7.89835e-14
2.23783e-12
2.08704e-12
-4.03861e-13
0
3.75247e-16
1.17497e-12
-6.34411e-13
3.65185e-12
3.89552e-13
1.25338e-12
9.23549e-13
2.03575e-14
-2.11764e-13
-2.3038e-13
-8.5626e-13
2.88182e-12
6.0589e-13
1.12452e-12
-1.37822e-12
-2.98657e-13
4.60127e-14
1.77208e-12
-1.3278e-12
-2.43291e-14
1.41245e-15
-1.97996e-15
-2.04195e-12
-3.25776e-12
3.01852e-13
-4.87017e-13
5.62168e-13
1.4666e-13
5.23513e-14
0
1.27501e-12
-1.04678e-12
-1.06152e-12
2.17928e-13
-3.64765e-12
6.49136e-13
-7.12885e-13
-1.26895e-13
3.44849e-13
-1.05024e-12
2.95289e-13
-2.17657e-13
-1.6479e-13
-8.64033e-14
-4.19654e-13
8.98122e-13
4.58745e-14
1.25118e-12
-4.74749e-13
-4.87826e-13
-1.37674e-12
-3.20628e-13
1.73177e-13
-6.50043e-14
9.85973e-14
-1.95797e-13
0
1.15043e-12
6.3103e-14
-1.57149e-13
-2.0417e-12
1.3397e-12
0
0
-4.10578e-13
-1.80793e-12
8.03017e-12
1.24033e-12
-3.60859e-13
3.60665e-13
9.14407e-13
-5.53902e-13
-2.52398e-13
1.69503e-12
2.22283e-12
2.1857e-12
1.43531e-12
-4.43068e-13
1.88931e-12
2.5314e-13
8.56003e-16
9.18068e-16
-1.62806e-12
-6.92998e-14
-1.17368e-12
-1.18561e-12
-9.82247e-13
2.8857e-12
-1.08631e-12
2.34936e-12
2.77593e-13
-1.42362e-12
-2.23217e-13
-1.14726e-13
-5.69767e-12
3.34094e-13
1.82524e-11
-4.57913e-12
-3.29253e-13
7.32615e-13
2.60483e-12
6.2635e-13
-3.02221e-12
-4.01528e-13
8.17743e-14
-1.48197e-12
-2.70176e-13
-5.31717e-13
-3.45047e-12
3.27829e-13
1.54753e-12
-1.9803e-12
7.48293e-13
-3.39323e-12
-5.09621e-14
1.01805e-12
1.5784e-12
9.04151e-13
1.2205e-11
1.30848e-12
1.49329e-12
1.62165e-14
-2.05249e-14
8.53241e-14
8.56591e-15
-1.23269e-13
1.22254e-12
3.61911e-13
1.06453e-12
1.66804e-11
1.48204e-13
-8.133e-13
1.75574e-12
3.99523e-12
3.39261e-13
-8.15822e-13
-2.6118e-12
3.92462e-13
1.22119e-12
-4.60402e-13
5.54443e-12
-8.56847e-13
3.51065e-12
1.13652e-12
-1.69974e-12
3.83538e-13
2.55511e-12
-5.18069e-13
-3.64193e-12
-9.74809e-15
1.67002e-14
-6.22908e-13
6.82082e-13
-3.42622e-13
-1.40754e-12
1.05938e-12
1.57718e-13
-1.16987e-12
-7.75533e-12
0
7.69443e-13
5.64009e-13
5.00802e-14
4.1359e-12
0
-7.80102e-13
-2.96651e-15
-6.51154e-13
-9.05398e-13
1.55824e-12
1.42018e-12
3.10825e-12
-8.47017e-13
-2.50503e-12
-1.69564e-12
4.71292e-13
9.87121e-13
-9.06585e-13
7.43775e-14
4.58416e-14
2.96021e-13
-2.51186e-12
4.80358e-14
6.29241e-13
-5.85508e-13
1.77727e-13
-5.00289e-13
9.13826e-13
1.94956e-12
4.90179e-12
-1.70948e-12
5.1364e-13
-7.34522e-13
-1.18379e-12
-3.71444e-12
-1.13386e-12
-9.55506e-14
1.79948e-12
-2.32635e-12
0
2.67709e-12
-7.51254e-14
-8.39575e-13
-2.67312e-12
-7.78465e-14
2.99463e-12
1.02847e-12
7.14934e-12
5.72823e-12
1.53353e-12
-3.27406e-12
-1.61342e-13
3.40038e-13
-1.48544e-14
2.14299e-12
1.36692e-12
2.71241e-13
-5.38421e-13
6.10364e-14
1.71646e-12
-4.59024e-13
2.12282e-14
-2.50319e-14
-8.77432e-13
2.08409e-12
-7.22113e-14
3.83341e-14
-1.31007e-12
3.50793e-13
6.83775e-13
5.70287e-13
-1.4971e-12
-9.69595e-14
1.11028e-12
-6.99114e-13
6.99739e-13
2.09024e-12
4.20993e-13
-6.81939e-13
9.37124e-13
-1.32131e-12
-2.7304e-12
-2.97732e-12
1.90896e-12
-1.1473e-13
1.14895e-12
-1.38598e-12
0
3.0512e-13
-1.55478e-12
7.45624e-13
-6.57158e-12
-1.73288e-12
0
1.25403e-12
-1.41778e-12
1.62294e-12
-1.7595e-12
5.74074e-13
1.40262e-11
1.45458e-11
2.88717e-12
3.0119e-13
1.09762e-14
-8.18661e-15
-2.9608e-12
-3.5979e-13
6.48224e-13
-6.28237e-13
-3.8502e-13
3.07348e-13
7.39913e-13
1.04152e-12
3.56968e-13
0
1.4915e-15
2.43568e-12
1.50683e-12
1.58552e-13
2.80833e-12
8.02562e-13
1.21284e-13
-7.77903e-14
-4.5387e-12
-8.70077e-12
2.00597e-12
-1.24219e-12
9.58043e-13
-1.46283e-12
-3.17001e-13
-6.26747e-13
-4.25584e-13
-1.89516e-14
-5.44351e-13
-6.8382e-13
9.60894e-13
3.70764e-13
6.8695e-13
5.06474e-12
1.0665e-12
-9.73926e-14
6.98397e-14
7.95117e-13
-2.06699e-13
5.62119e-13
-5.9934e-15
-4.98557e-15
2.26849e-12
-1.81165e-12
-4.72463e-13
-1.27665e-12
4.83396e-14
-9.75994e-14
1.17928e-12
-2.60532e-14
7.62866e-14
-1.97827e-12
-1.08634e-12
3.63308e-13
2.84226e-12
0
8.42499e-13
-2.90685e-12
1.3217e-13
9.6793e-13
3.15416e-12
9.99932e-14
8.77008e-14
-1.84821e-12
1.03173e-11
-2.39602e-12
-2.23883e-12
2.07362e-12
1.07131e-12
7.53732e-13
-6.91987e-13
-1.45528e-12
7.07813e-13
2.4252e-15
3.97686e-15
-2.28935e-13
-8.66275e-14
4.93827e-13
2.88121e-12
-7.55876e-14
2.12433e-13
-1.78835e-12
-9.00405e-13
1.86743e-12
1.91599e-12
-1.22201e-12
1.84195e-12
-1.4107e-12
8.4883e-13
-8.96983e-13
-1.09258e-12
-3.59416e-12
-2.83008e-12
-1.79786e-12
1.43205e-12
-4.45616e-12
-7.96055e-13
1.09719e-12
2.58272e-13
-8.32542e-12
1.48946e-12
-8.78359e-14
2.17299e-13
-1.26913e-13
1.06543e-12
-2.7003e-13
-2.34191e-12
-1.62791e-12
-8.53011e-13
2.53619e-12
4.95365e-12
2.38696e-12
-1.95541e-12
1.204e-12
-9.07105e-13
0
4.63632e-12
8.18756e-12
0
-2.3088e-12
6.33385e-13
9.382e-13
8.59045e-13
1.54695e-13
4.95254e-12
-5.87684e-13
7.73914e-13
3.82573e-16
8.50671e-14
-3.46726e-13
3.06535e-15
1.9038e-13
-1.02678e-13
4.39492e-15
-8.08133e-13
1.85076e-13
-2.50704e-12
9.2087e-13
-1.23039e-13
1.96833e-12
6.28886e-13
8.31611e-13
-2.33944e-12
-9.98805e-13
-5.57667e-13
4.62524e-12
-6.05448e-13
-1.04924e-13
1.71182e-12
-5.51295e-14
4.31174e-14
-3.96624e-12
1.01822e-11
0
-1.2959e-12
2.92114e-14
-2.91231e-14
-1.31421e-14
1.2298e-14
-4.4337e-14
4.25332e-12
-5.8731e-12
0
0
-1.67411e-13
-7.75278e-13
-9.01088e-12
7.96668e-14