/*--------------------------------*- C++ -*----------------------------------*\
| =========                 |                                                 |
| \\      /  F ield         | OpenFOAM: The Open Source CFD Toolbox           |
|  \\    /   O peration     | Version:  v3.0+                                 |
|   \\  /    A nd           | Web:      www.OpenFOAM.com                      |
|    \\/     M anipulation  |                                                 |
\*---------------------------------------------------------------------------*/
FoamFile
{
    version     2.0;
    format      ascii;
    class       volSymmTensorField;
    location    "1000";
    object      sigma;
}
// * * * * * * * * * * * * * * * * * * * * * * * * * * * * * * * * * * * * * //

dimensions      [1 -1 -2 0 0 0 0];

internalField   nonuniform List<symmTensor> 
27023
(
(-8.26979e+06 -6.90212e+06 6.23187e-14 -6.80885e+06 -1.75268e-14 -3.74132e+06)
(8.30579e+06 -6.93442e+06 4.93441e-14 6.83831e+06 -9.60171e-14 3.75756e+06)
(5.41369e+06 -5.19013e+06 2.89444e-13 5.54379e+06 -9.25776e-14 2.71877e+06)
(-5.39195e+06 -5.16642e+06 2.20726e-13 -5.52011e+06 7.24027e-14 -2.7075e+06)
(-8.32698e+06 -6.57479e+06 0 -6.42299e+06 0 -3.65977e+06)
(8.36334e+06 -6.60639e+06 -2.18584e-13 6.45094e+06 7.49052e-14 3.67572e+06)
(4.24283e+07 -6.19183e+06 1.82307e-12 2.28967e+06 -1.77926e-12 1.10954e+07)
(-4.2301e+07 -6.1694e+06 -4.50158e-13 -2.28228e+06 -4.2869e-13 -1.1062e+07)
(2.08617e+06 -2.6932e+06 -4.40048e-14 4.05151e+06 2.84069e-14 1.52288e+06)
(-2.07786e+06 -2.68158e+06 -2.05483e-13 -4.0371e+06 -6.81416e-14 -1.51725e+06)
(3.09364e+07 -6.26271e+06 -2.56686e-13 3.68317e+06 5.2024e-13 8.58981e+06)
(-3.0831e+07 -6.2347e+06 -4.022e-13 -3.669e+06 -2.25223e-13 -8.56014e+06)
(396819 -666294 -2.77776e-14 1.17893e+06 -4.92378e-14 390976)
(-403978 -667374 1.51393e-14 -1.17189e+06 -1.23576e-14 -391004)
(-1.208e+07 -1.79974e+06 3.25216e-13 -331365 1.37944e-12 -3.07952e+06)
(1.04391e+06 4.02097e+06 4.06088e-13 59687.6 -3.29876e-13 273824)
(731258 3.82196e+06 -3.67246e-13 215433 -1.68231e-13 234893)
(-2.59901e+07 -1.60302e+06 0 -578249 0 -6.59216e+06)
(2.61304e+07 -1.62087e+06 1.3388e-12 573268 -7.76498e-13 6.62573e+06)
(1.91692e+07 -1.54426e+06 0 912136 0 4.9826e+06)
(-1.90352e+07 -1.52555e+06 -3.08451e-14 -905956 4.21143e-13 -4.94781e+06)
(4.22058e+07 -5.58395e+06 -2.21134e-14 1.97033e+06 -4.50916e-13 1.0961e+07)
(-4.20778e+07 -5.56262e+06 -1.04058e-12 -1.96371e+06 -1.32121e-12 -1.09276e+07)
(2.14975e+07 -1.17446e+06 -3.79714e-13 2.96579e+06 -6.20369e-13 6.06983e+06)
(-2.13928e+07 -1.15128e+06 9.61105e-13 -2.95215e+06 -1.10238e-13 -6.04047e+06)
(3.44564e+06 -957101 1.52098e-12 318736 -2.25386e-13 934019)
(-1.49694e+07 914616 7.13984e-13 -2.17389e+06 1.14214e-13 -4.25359e+06)
(1.55244e+06 -1.12299e+06 3.23421e-12 31115.4 8.43613e-12 392912)
(-1.47802e+07 792268 -5.61283e-13 -2.37647e+06 3.13077e-13 -4.25692e+06)
(1.41056e+07 -1.9207e+06 -2.01978e-12 -86915 2.56299e-12 3.47832e+06)
(7.04478e+06 -1.11284e+06 3.92614e-12 446209 -2.16958e-12 1.85867e+06)
(1.91757e+07 -1.71849e+06 1.62297e-13 899775 -8.59822e-13 4.98113e+06)
(-1.90446e+07 -1.70171e+06 2.0223e-12 -895869 1.69996e-12 -4.94763e+06)
(-1.9314e+07 -1.55259e+06 -1.97925e-13 -66623.4 9.25198e-13 -4.80872e+06)
(-1.19581e+07 -1.42895e+06 3.96272e-13 -363461 1.68942e-12 -3.05724e+06)
(1.50418e+07 -1.48607e+06 -4.30132e-12 36874.4 8.29032e-13 3.74132e+06)
(1.7507e+07 -1.17934e+06 6.92197e-13 1.53766e+06 -6.05048e-13 4.72536e+06)
(-1.7363e+07 -1.1539e+06 1.38334e-12 -1.5256e+06 1.20968e-12 -4.68665e+06)
(2.01008e+06 -2.69434e+06 8.11144e-14 3.80102e+06 -6.78043e-14 1.44185e+06)
(-2.0036e+06 -2.68313e+06 -1.16545e-13 -3.78652e+06 -5.47432e-14 -1.43664e+06)
(-5.36496e+06 -5.1698e+06 -8.76149e-14 -5.83334e+06 -5.06707e-14 -2.77852e+06)
(5.3873e+06 -5.19354e+06 -3.48634e-14 5.85828e+06 -7.55722e-15 2.79026e+06)
(-9.65323e+06 -1.54134e+06 -4.32209e-12 -47195.3 -2.18668e-12 -2.40687e+06)
(-7.95141e+06 -6.65485e+06 -5.00923e-14 -6.28507e+06 -7.56635e-14 -3.53236e+06)
(7.98647e+06 -6.68694e+06 5.00952e-14 6.31308e+06 -7.52087e-14 3.54801e+06)
(2.57871e+07 -1.57699e+06 2.06959e-12 545049 -5.911e-13 6.53355e+06)
(-2.56461e+07 -1.55903e+06 -1.49066e-12 -548057 -9.06125e-13 -6.49931e+06)
(2.03068e+07 -1.33257e+06 -1.9466e-12 2.27795e+06 7.52408e-13 5.60374e+06)
(-2.01778e+07 -1.31424e+06 1.94656e-12 -2.25924e+06 7.51548e-13 -5.5671e+06)
(1.331e+07 -1.81934e+06 -1.29973e-12 -90047.4 4.90708e-13 3.28013e+06)
(1.96175e+07 -1.00503e+06 1.46984e-12 2.15711e+06 -4.48336e-13 5.40272e+06)
(-1.94868e+07 -985738 -5.74627e-13 -2.13884e+06 -7.43255e-14 -5.36576e+06)
(-1.88368e+07 -1.62246e+06 3.40315e-12 -55633.6 4.33792e-13 -4.68761e+06)
(532.665 -48222 1.66005e-15 486076 1.02061e-14 120738)
(-556.055 -48134.1 4.53971e-14 -481710 4.02998e-14 -119660)
(2.13054e+07 -1.52131e+06 7.14618e-13 47089.8 1.45508e-12 5.29798e+06)
(8.69054e+06 -1.36625e+06 1.13963e-12 115187 3.08179e-12 2.18488e+06)
(1.50834e+07 -1.064e+06 5.22068e-12 -64110.5 1.29722e-12 3.72658e+06)
(-7.09795e+06 -1.95203e+06 -9.62153e-13 16869 8.10692e-13 -1.75696e+06)
(5.18161e+06 -5.37786e+06 -4.5296e-13 6.07903e+06 1.7034e-13 2.79399e+06)
(-5.16104e+06 -5.35422e+06 -2.99194e-13 -6.0538e+06 -9.2655e-14 -2.78263e+06)
(1.28347e+07 -1.36971e+06 -7.75929e-12 15037.4 2.82964e-12 3.18828e+06)
(2.08397e+06 -1.65857e+06 3.16355e-12 113600 -7.17074e-13 545261)
(2.26897e+06 -963729 1.75441e-12 -17756.8 8.8459e-12 558573)
(-9.35439e+06 -2.0082e+06 -4.61702e-12 -15850.6 -6.94845e-12 -2.32495e+06)
(6.25874e+06 -960784 -9.24861e-13 466003 4.28705e-13 1.66855e+06)
(1.70686e+07 -1.47813e+06 4.7978e-13 574158 -2.28671e-12 4.37752e+06)
(4.25629e+06 -795412 -2.08575e-12 353566 8.02629e-14 1.1438e+06)
(-1.52475e+07 1.09367e+06 4.71887e-13 -1.92286e+06 -4.1327e-13 -4.26032e+06)
(-9.01965e+06 -1.9085e+06 -4.54984e-12 -91102.9 -9.86089e-13 -2.26056e+06)
(1.67643e+07 -1.33162e+06 0 1.61823e+06 0 4.56108e+06)
(-1.66199e+07 -1.30622e+06 -1.39406e-12 -1.60611e+06 -2.09645e-12 -4.52224e+06)
(2.93089e+07 -2.2817e+06 -1.22877e-13 2.78815e+06 1.15843e-12 7.96392e+06)
(-2.91936e+07 -2.25927e+06 -8.16138e-13 -2.77271e+06 1.55241e-12 -7.9315e+06)
(3.88033e+07 -820656 -8.06912e-13 57304.2 3.0051e-12 9.6421e+06)
(-3.86712e+07 -819297 -5.38569e-13 -57549 1.47608e-12 -9.60939e+06)
(86618.7 -193556 4.38154e-15 605633 2.70522e-14 171762)
(-85787.8 -192389 -2.78829e-14 -600821 2.13623e-14 -170362)
(-4.58394e+07 -2.53148e+06 3.13815e-12 -666487 2.87118e-12 -1.15391e+07)
(4.59749e+07 -2.54031e+06 -1.41555e-12 668118 1.91353e-12 1.15731e+07)
(-1.12893e+07 -142505 4.95588e-13 -1.54367e+06 7.76411e-13 -3.18413e+06)
(2.9878e+07 -5.96127e+06 1.74256e-12 3.5013e+06 -1.1922e-12 8.28208e+06)
(-2.97732e+07 -5.93348e+06 -1.37105e-12 -3.48743e+06 -9.34822e-13 -8.25265e+06)
(2.85353e+07 -2.4723e+06 -2.45958e-13 2.93619e+06 4.83084e-13 7.8087e+06)
(-2.84203e+07 -2.44988e+06 6.1086e-13 -2.92037e+06 1.62013e-12 -7.77627e+06)
(-4.10451e+07 -404043 -2.02227e-12 4671.74 -6.88304e-13 -1.0183e+07)
(4.11779e+07 -403517 -1.0828e-12 -4321.04 5.88573e-13 1.0216e+07)
(-1.68961e+07 -1.45405e+06 1.17022e-12 -573050 -2.37631e-13 -4.33445e+06)
(1.61834e+06 -1.75287e+06 2.14054e-12 105722 -1.66069e-13 427774)
(-7.44377e+06 -1.64424e+06 -1.84595e-12 -15876.3 1.06371e-12 -1.85089e+06)
(7.19901e+06 -1.65851e+06 1.08599e-12 93139.3 1.76914e-11 1.80933e+06)
(1.02698e+07 -6.74616e+06 5.10651e-14 5.69566e+06 6.59392e-14 3.96136e+06)
(-1.02235e+07 -6.71289e+06 -1.15456e-13 -5.66984e+06 -7.72323e-14 -3.94345e+06)
(8.58369e+06 2.85785e+06 -1.59322e-13 1.08294e+06 3.03662e-13 2.39849e+06)
(-3.72557e+06 -1.03144e+06 -3.8173e-14 -274178 -5.21547e-14 -992418)
(-2.14868e+07 -781602 -1.53717e-12 -2.80881e+06 -1.28335e-12 -6.02824e+06)
(2.15895e+07 -803697 -1.63049e-12 2.81979e+06 2.47109e-13 6.05644e+06)
(-1.12682e+07 98064.1 1.46013e-12 -1.59469e+06 3.00931e-13 -3.19155e+06)
(-7.41252e+06 -2.05541e+06 -2.31168e-12 -52674.7 -1.54781e-12 -1.85227e+06)
(429179 -2.18235e+06 1.25494e-12 -39984.1 2.8235e-12 96567.2)
(-1.22094e+07 -1.43216e+06 -8.51258e-13 21277.9 -2.97824e-12 -3.02411e+06)
(-7.68681e+06 -546201 -3.51992e-12 -104834 7.31667e-12 -1.93327e+06)
(7.92645e+06 -608299 -1.35163e-12 241079 1.35333e-11 2.02653e+06)
(3.44364e+07 -4.12002e+06 2.14396e-15 2.9093e+06 6.4257e-13 9.26624e+06)
(-3.43211e+07 -4.09636e+06 8.80094e-13 -2.89844e+06 4.72145e-13 -9.23493e+06)
(1.43963e+06 -1.62764e+06 5.46417e-12 -88680.5 -1.03539e-13 335198)
(3.84585e+07 -4.11934e+06 -5.51001e-13 2.19476e+06 7.06704e-16 1.00869e+07)
(-3.83347e+07 -4.09922e+06 4.12832e-13 -2.18683e+06 -5.20122e-13 -1.00542e+07)
(2.10332e+07 -1.55807e+06 -2.04031e-12 126053 -6.82577e-13 5.25004e+06)
(1.41045e+07 -1.14768e+06 1.09985e-11 108488 -3.41403e-12 3.52653e+06)
(8.801e+06 -2.10599e+06 -5.07529e-12 -67346.3 -1.72808e-12 2.167e+06)
(3.85354e+07 -4.31532e+06 -2.01032e-14 2.56804e+06 6.86134e-13 1.01986e+07)
(-3.84118e+07 -4.29475e+06 4.25667e-13 -2.55919e+06 1.56627e-13 -1.01657e+07)
(2.12798e+07 -804061 -1.95664e-12 2.75094e+06 2.17118e-12 5.96252e+06)
(-2.11772e+07 -783032 2.9228e-13 -2.73861e+06 9.24855e-13 -5.934e+06)
(3.91701e+07 -589396 9.12438e-13 80605.9 1.1842e-12 9.7389e+06)
(-3.90372e+07 -587713 2.13244e-12 -80066.3 1.84755e-12 -9.70579e+06)
(9.67548e+06 915232 -1.42364e-13 -324086 9.91894e-14 2.32027e+06)
(-1.5663e+07 -210118 -6.64594e-13 -1.29631e+06 6.93525e-14 -4.20794e+06)
(-1.14541e+07 -1.27485e+06 9.92852e-13 -972220 -3.08348e-13 -3.08323e+06)
(9.40694e+06 -1.65488e+06 -5.54249e-12 156932 -2.36424e-13 2.37299e+06)
(1.03605e+06 -1.43778e+06 3.2875e-12 23171 -6.01687e-13 262814)
(-3.24458e+07 -1.23937e+07 -3.09708e-13 -5.34717e+06 -3.26415e-13 -9.37721e+06)
(3.25488e+07 -1.24341e+07 8.71994e-13 5.36456e+06 -9.99209e-13 9.40708e+06)
(4.57151e+07 -5.84054e+06 -1.57456e-12 993596 1.32082e-12 1.15894e+07)
(-4.5581e+07 -5.82195e+06 7.55494e-13 -990316 2.52499e-13 -1.15553e+07)
(1.00732e+07 -6.50529e+06 -3.02261e-14 5.35302e+06 1.18659e-13 3.82757e+06)
(-1.0027e+07 -6.47226e+06 1.37915e-13 -5.32801e+06 1.32253e-13 -3.80988e+06)
(3.49862e+07 -4.43486e+06 1.47782e-13 3.14095e+06 2.16299e-13 9.46012e+06)
(-3.48709e+07 -4.41058e+06 9.57134e-13 -3.12925e+06 1.19972e-12 -9.4286e+06)
(-6.82306e+06 -1.47439e+06 -4.40195e-13 -56263.8 3.64786e-12 -1.7069e+06)
(-949999 -745776 1.15975e-14 -562272 3.01596e-14 -375225)
(969446 -749379 -5.76945e-15 520529 1.65626e-14 369693)
(-6.49578e+06 -1.27155e+06 5.82007e-14 -501145 -6.10398e-14 -1.73608e+06)
(8.13123e+06 -1.83991e+06 -3.97779e-12 87093 -1.76833e-12 2.03913e+06)
(-4.12105e+07 -78421.1 -3.08896e-12 -100990 -4.46178e-12 -1.02502e+07)
(4.13437e+07 -77896.6 -6.43762e-14 101071 1.02001e-12 1.02833e+07)
(4.04889e+06 708119 9.68471e-13 573448 7.1769e-13 1.1469e+06)
(2.6852e+07 -1.75199e+06 1.00265e-12 835181 -2.3484e-12 6.86974e+06)
(-2.67119e+07 -1.73799e+06 1.24202e-13 -835914 -1.50126e-12 -6.83518e+06)
(-3.9662e+07 -6.87528e+06 -2.69761e-13 -2.96991e+06 -5.99133e-13 -1.05778e+07)
(3.97831e+07 -6.90176e+06 -2.3047e-12 2.97991e+06 1.4652e-12 1.06104e+07)
(-2.69939e+06 671882 -9.83814e-13 -329968 -9.59354e-13 -751645)
(4.10584e+07 -6.08359e+06 -9.53469e-13 2.43679e+06 1.0314e-12 1.0792e+07)
(-4.0934e+07 -6.06018e+06 -6.72326e-13 -2.42864e+06 -2.30268e-13 -1.07592e+07)
(-6.53097e+06 -1.04008e+06 7.37325e-13 -368561 1.79785e-12 -1.71191e+06)
(-7.00651e+06 -1.55384e+06 -3.66637e-12 24614.3 -5.25905e-13 -1.73235e+06)
(1.96404e+07 -500731 -1.329e-12 2.64889e+06 1.54903e-12 5.53043e+06)
(1.73703e+07 -1.7622e+06 4.79759e-13 577074 1.30438e-12 4.45311e+06)
(1.7163e+07 -1.00465e+07 6.84545e-14 7.22636e+06 1.89762e-13 6.05149e+06)
(-1.70891e+07 -1.00032e+07 -1.21626e-13 -7.19494e+06 -6.83425e-14 -6.02536e+06)
(2.1212e+07 -8.54483e+06 4.86661e-13 5.32822e+06 -5.3098e-13 6.58517e+06)
(-2.11275e+07 -8.50812e+06 -2.59559e-13 -5.30317e+06 -1.84036e-13 -6.55799e+06)
(-1.14362e+07 -1.98012e+06 1.1767e-12 -13277.7 -2.14924e-12 -2.84084e+06)
(-1.23647e+07 -1.1157e+06 1.15894e-12 -923786 -2.58114e-13 -3.29713e+06)
(-1.23501e+07 -708419 8.0925e-12 -184683 3.70057e-13 -3.11014e+06)
(1.23567e+07 -717004 -3.44566e-12 224316 3.30147e-12 3.12159e+06)
(1.22395e+07 -1.61465e+06 2.40681e-12 367406 -2.15729e-12 3.12802e+06)
(2.65304e+07 -1.7806e+06 2.50224e-12 840914 -3.75157e-12 6.79139e+06)
(-2.63907e+07 -1.7672e+06 -1.09917e-12 -840687 -1.02571e-12 -6.75666e+06)
(-2.35358e+07 -1.24488e+06 1.76753e-12 84682.6 1.63657e-12 -5.8187e+06)
(-9.60557e+06 -1.85595e+06 -3.91111e-12 11865.9 -5.7937e-13 -2.38039e+06)
(-1.97617e+07 -1.02591e+06 3.72645e-12 -18812.5 1.38382e-12 -4.90794e+06)
(1.44903e+06 -2.10373e+06 4.04492e-12 165746 -4.55951e-12 400660)
(-2.50859e+07 -8.92251e+06 -2.13222e-13 -4.89066e+06 -2.10601e-13 -7.4378e+06)
(2.51799e+07 -8.95716e+06 -2.17884e-13 4.91194e+06 1.96954e-13 7.4664e+06)
(-3.60709e+07 -6.25416e+06 -1.51541e-13 -2.96967e+06 -3.44566e-13 -9.68675e+06)
(3.61857e+07 -6.28128e+06 8.70697e-13 2.9806e+06 -9.53838e-13 9.71796e+06)
(-8.04387e+06 262555 -1.35067e-13 -1.13561e+06 -7.00132e-13 -2.27762e+06)
(925094 319255 -6.67582e-13 112874 1.29478e-12 257541)
(2.21897e+06 -2.16665e+06 5.68055e-13 95275.3 1.88047e-11 574212)
(-4.60685e+07 -3.13849e+06 2.8424e-12 -747868 2.49847e-12 -1.16161e+07)
(4.62033e+07 -3.14838e+06 1.07804e-13 749841 1.91644e-13 1.165e+07)
(-8.10318e+06 -1.62485e+06 -8.97452e-13 79459.6 1.60636e-11 -1.99085e+06)
(8.00254e+06 -1.57323e+06 0 115358 0 2.01421e+06)
(-1.24725e+07 -1.5572e+06 4.91082e-12 -165511 1.32742e-12 -3.13575e+06)
(1.07355e+06 -1.61761e+06 5.25494e-12 55647.9 -3.89406e-12 280177)
(-2.51903e+06 577314 -1.31417e-12 -507340 -7.17836e-13 -750903)
(-8.19888e+06 -1.83449e+06 -9.44706e-13 75966.9 2.71207e-12 -2.01546e+06)
(4.25934e+06 1.08349e+06 1.54375e-13 763447 6.45775e-14 1.24625e+06)
(-1.73164e+07 -1.74464e+06 4.0652e-13 -599989 1.34566e-12 -4.44542e+06)
(-3.78572e+07 -6.43201e+06 -1.62583e-12 -2.61704e+06 -1.46094e-12 -1.00425e+07)
(3.79756e+07 -6.45809e+06 -1.03596e-12 2.62633e+06 1.14906e-12 1.00742e+07)
(-1.27429e+07 -1.53578e+06 -1.17049e-12 108778 -2.69155e-12 -3.13479e+06)
(-2.36465e+07 -1.44106e+06 -2.74621e-12 -85906.4 9.42567e-13 -5.8885e+06)
(-2.51887e+07 -1.27804e+06 7.77306e-13 -146936 -1.91284e-14 -6.28627e+06)
(-2.03403e+07 -776193 7.31089e-13 -2.86595e+06 9.48935e-13 -5.75795e+06)
(2.04397e+07 -797695 -4.9424e-13 2.87731e+06 1.27209e-12 5.78543e+06)
(-2.07519e+07 -1.10736e+06 -2.60726e-12 -18798.8 5.31561e-12 -5.15363e+06)
(-7.42466e+06 -1.91698e+06 1.80688e-12 -929.593 -2.82458e-12 -1.84244e+06)
(-3.60303e+07 -6.80613e+06 -1.25605e-12 -3.36009e+06 -1.46018e-12 -9.77354e+06)
(3.61445e+07 -6.83398e+06 6.28118e-14 3.3716e+06 -4.28021e-13 9.80473e+06)
(-1.08389e+07 605703 -3.44995e-13 -1.52237e+06 1.06804e-12 -3.06709e+06)
(1.86744e+06 -1.91147e+06 -9.34757e-13 -19416 -4.75241e-12 458533)
(4.59419e+07 -5.9528e+06 7.39704e-13 1.52019e+06 -5.0896e-13 1.17763e+07)
(-4.58083e+07 -5.93381e+06 1.20901e-12 -1.5158e+06 1.20858e-12 -1.17421e+07)
(-2.61841e+07 -663792 -4.6821e-12 -26224.4 4.03946e-14 -6.50331e+06)
(-3.49281e+07 -7.1085e+06 4.59639e-13 -3.31764e+06 3.8807e-13 -9.48954e+06)
(3.50396e+07 -7.13696e+06 2.72875e-13 3.32958e+06 -3.12887e-13 9.52017e+06)
(-1.46953e+07 -64016.2 2.57818e-13 -1.35247e+06 1.20008e-13 -3.98178e+06)
(1.29448e+07 -1.85349e+06 2.0875e-12 340535 1.62213e-12 3.29635e+06)
(-1.54581e+07 919714 4.84855e-13 -2.01367e+06 6.80454e-14 -4.33509e+06)
(3.79851e+07 -615480 1.54669e-12 -12638.4 -2.97961e-13 9.42173e+06)
(-3.78478e+07 -607588 2.95896e-12 13711.7 2.85168e-12 -9.38741e+06)
(-7.85987e+06 -6.26455e+06 0 -5.65858e+06 0 -3.3542e+06)
(7.89433e+06 -6.29555e+06 -3.05637e-13 5.6841e+06 1.10739e-13 3.36909e+06)
(-9.6962e+06 -752028 1.13058e-12 -858026 5.1007e-13 -2.61872e+06)
(-2.60361e+07 -1.23531e+06 -6.74817e-13 -39414 -1.39132e-12 -6.46987e+06)
(3.79392e+07 -395039 1.33477e-12 43479.3 -2.58684e-12 9.42427e+06)
(-3.7802e+07 -387961 1.64946e-12 -42992.6 2.13735e-12 -9.3901e+06)
(17006.8 -102579 0 59634.3 0 19016.2)
(-16763.4 -101173 6.6144e-16 -58825.3 7.79226e-16 -18755.1)
(8.34334e+06 3.28544e+06 -2.89476e-13 817336 2.12087e-14 2.27295e+06)
(-1.03425e+07 -1.0697e+06 1.11792e-12 -934747 -2.97626e-13 -2.79812e+06)
(-4.71893e+06 -2.51031e+06 -1.32431e-13 -969091 2.42194e-15 -1.41131e+06)
(4.74132e+06 -2.52387e+06 7.65529e-14 979153 3.61713e-14 1.41937e+06)
(-1.27366e+07 446084 -6.84643e-13 -1.73768e+06 -8.82499e-13 -3.59137e+06)
(1.06197e+06 615369 7.17381e-13 225717 -1.65711e-13 319501)
(2.65407e+06 -2.07206e+06 1.33625e-12 48672.9 1.24825e-12 670606)
(-4.05489e+07 -1.4833e+06 1.0769e-12 -267325 7.63163e-13 -1.01273e+07)
(4.06804e+07 -1.48802e+06 1.45785e-12 267961 -2.28821e-12 1.01601e+07)
(-6.75922e+06 -1.29646e+06 4.54124e-12 -2751.18 -2.18949e-12 -1.67778e+06)
(-3.26726e+07 -1.20531e+07 4.31277e-13 -4.7821e+06 5.12578e-13 -9.29326e+06)
(3.27753e+07 -1.20925e+07 3.78592e-14 4.79852e+06 -3.5846e-14 9.32282e+06)
(-1.19078e+07 -1.33796e+06 -1.21159e-12 -45121.7 -5.68174e-12 -2.96576e+06)
(3.5857e+07 -2.13659e+06 -8.90521e-13 972320 -7.49743e-13 9.1381e+06)
(-3.57248e+07 -2.12749e+06 1.92816e-12 -968957 1.63514e-12 -9.10446e+06)
(2.95799e+07 -2.49412e+06 -3.09918e-13 2.95959e+06 -1.1235e-12 8.07372e+06)
(-2.94674e+07 -2.47018e+06 -1.11056e-12 -2.94492e+06 -1.30204e-12 -8.04215e+06)
(871170 -1.32762e+06 1.2325e-14 2.34445e+06 -5.4776e-14 797860)
(-869829 -1.32274e+06 7.69389e-14 -2.33583e+06 5.67622e-14 -795389)
(1.91994e+06 -1.73072e+06 -3.36126e-12 -214877 -6.21736e-12 423061)
(3.6942e+07 -1.73133e+06 -6.28638e-13 812081 -2.26061e-12 9.36757e+06)
(-3.68094e+07 -1.72309e+06 -9.92552e-13 -809949 -3.94858e-13 -9.33412e+06)
(-2.40189e+07 -1.20628e+06 -1.29484e-12 -36281.8 -1.04333e-12 -5.96857e+06)
(3.57241e+07 -1.32302e+06 1.67605e-12 263328 1.69414e-12 8.92922e+06)
(-3.55904e+07 -1.31773e+06 -7.26613e-13 -263382 1.45015e-12 -8.89604e+06)
(3.90661e+07 -248528 2.53777e-12 64696.7 -4.83277e-12 9.70915e+06)
(1.47672e+07 -1.58109e+06 1.15833e-13 115571 -1.90987e-12 3.69271e+06)
(-4.45121e+07 -6.97494e+06 2.02294e-12 -1.8051e+06 2.08528e-12 -1.14922e+07)
(4.4643e+07 -6.99715e+06 -2.02726e-12 1.81031e+06 2.08685e-12 1.1526e+07)
(1.58363e+07 659165 1.31057e-12 2.31407e+06 -5.67693e-13 4.50348e+06)
(2.43588e+07 -1.28633e+06 -1.38264e-13 20643.7 8.60409e-13 6.04903e+06)
(2.48519e+07 -1.39469e+06 -4.69625e-12 51278.3 4.04653e-12 6.17898e+06)
(-1.98233e+07 -1.73601e+06 -4.40161e-13 -239199 7.07849e-13 -4.97791e+06)
(9.33683e+06 2.87534e+06 5.15236e-13 759696 -2.03748e-13 2.50515e+06)
(123919 -2.26529e+06 4.33503e-12 244398 -4.78668e-12 91386.9)
(-1.36636e+07 1.48304e+06 4.1467e-13 -1.95288e+06 -2.81433e-13 -3.87476e+06)
(2.04361e+07 -945289 -3.00744e-13 -68496.7 3.74915e-12 5.05361e+06)
(-1.94213e+07 -1.50996e+06 3.07728e-13 -182446 -1.34827e-12 -4.8641e+06)
(-4.24098e+07 -3.2326e+06 -1.24808e-12 -1.60088e+06 -9.80333e-13 -1.09199e+07)
(4.25416e+07 -3.2467e+06 1.88252e-12 1.60632e+06 -2.0694e-12 1.0954e+07)
(-8.89182e+06 -1.93866e+06 -3.08447e-12 64275.6 1.52336e-13 -2.19029e+06)
(-6.70705e+06 2.50814e+06 -4.94469e-13 -1.09393e+06 1.31365e-13 -1.93558e+06)
(-2.59162e+07 -587115 1.2363e-12 -23524.7 4.45059e-13 -6.43616e+06)
(-2.65216e+07 -960784 -3.14793e-12 -73698.4 -1.18188e-12 -6.59883e+06)
(3.22295e+07 -1.0344e+06 0 -4743.72 0 7.99561e+06)
(-2.42665e+07 -761720 -2.64175e-12 -55946.3 -1.79182e-12 -6.0349e+06)
(2.15242e+07 -1.8213e+06 -2.63523e-12 864455 -1.49395e-13 5.55508e+06)
(-2.13876e+07 -1.80597e+06 1.00177e-12 -865207 -9.1977e-13 -5.52137e+06)
(8.71546e+06 1.33216e+06 3.34255e-13 -534411 -1.67128e-13 2.02988e+06)
(1.52221e+06 1.75043e+06 -8.50018e-13 349355 4.22566e-13 464373)
(2.18244e+07 -168632 -3.84576e-12 190447 2.51964e-12 5.46233e+06)
(3.67503e+07 -1.037e+06 1.24529e-12 274987 -1.58664e-13 9.18672e+06)
(-3.6616e+07 -1.03193e+06 -2.37741e-12 -274535 -1.97893e-12 -9.15328e+06)
(4.07112e+07 -5.9753e+06 -2.26581e-12 2.16154e+06 2.7811e-12 1.06376e+07)
(-4.05867e+07 -5.95257e+06 -8.10227e-14 -2.15432e+06 -6.49862e-13 -1.06049e+07)
(3.09118e+06 -1.54108e+06 -4.29241e-13 90471 1.55718e-12 789433)
(-5.75441e+06 2.74622e+06 -1.93483e-12 -710064 -3.06834e-13 -1.60397e+06)
(3.21603e+07 -1.09817e+07 -7.34209e-14 5.0779e+06 7.51033e-14 9.23954e+06)
(-3.20568e+07 -1.0945e+07 -1.88335e-14 -5.06042e+06 -6.66297e-14 -9.20953e+06)
(1.52032e+07 -1.0661e+06 8.8529e-12 257760 -4.51628e-13 3.83617e+06)
(-9.12045e+06 -1.51775e+06 3.3941e-12 -394571 1.35019e-12 -2.36087e+06)
(-1.6944e+07 -1.31473e+06 4.48684e-13 30264.6 1.42599e-12 -4.19663e+06)
(3.91267e+06 -1.49233e+06 -2.33122e-12 118502 6.34776e-13 1.00022e+06)
(2.38844e+06 -1.85154e+06 -8.72782e-13 -62508.8 -4.16417e-12 577110)
(-2.54226e+07 -8.63277e+06 -3.94266e-14 -4.5846e+06 -5.71005e-14 -7.4454e+06)
(2.55171e+07 -8.66636e+06 -2.78024e-14 4.60502e+06 4.37465e-14 7.47391e+06)
(-2.13698e+07 -1.48668e+06 -2.84832e-12 -621393 -2.89901e-12 -5.45646e+06)
(2.15085e+07 -1.50459e+06 4.62033e-13 603280 -3.67584e-12 5.48637e+06)
(1.74116e+07 -1.5964e+06 -8.77801e-12 -114745 -1.53632e-12 4.29169e+06)
(-2.19979e+07 -1.51104e+06 9.08206e-13 -12541.5 1.96355e-12 -5.46123e+06)
(4.32062e+06 -1.83875e+06 1.16882e-11 -120648 -1.04218e-11 1.0421e+06)
(-4.20941e+06 -1.70705e+06 -1.76301e-12 47065.8 -2.86947e-13 -1.03276e+06)
(-15735.1 -64963.6 -9.35867e-15 -445855 -1.07155e-14 -114530)
(15559.2 -65157.2 -9.91509e-15 451319 1.0983e-14 115842)
(-9.07816e+06 -1.72383e+06 -2.40866e-12 -34252.6 -1.88077e-12 -2.26097e+06)
(-1.13125e+07 -1.54895e+06 5.73115e-12 -86822.1 4.28725e-12 -2.8284e+06)
(5.36436e+06 4.04092e+06 -1.21942e-12 265720 4.96963e-14 1.39694e+06)
(1.8635e+07 -2.23516e+06 -1.89485e-14 2.27186e+06 -1.16651e-13 5.18742e+06)
(1.16601e+06 -1.12004e+06 -3.37471e-12 -119168 -3.4905e-12 259743)
(-8.72926e+06 -1.96451e+06 1.55276e-12 -94228.3 -2.06772e-13 -2.18929e+06)
(-3.49593e+07 -2.49462e+06 -2.22725e-13 -1.65842e+06 -1.72425e-12 -9.0856e+06)
(3.50889e+07 -2.50641e+06 1.12203e-12 1.66477e+06 -6.04399e-13 9.11933e+06)
(-4.04849e+07 -596122 0 -5152.93 0 -1.00464e+07)
(4.06158e+07 -596762 -6.07152e-13 4875.68 1.36189e-12 1.00788e+07)
(-1.92041e+07 -1.47873e+06 -2.06659e-12 32524.6 2.71517e-12 -4.75685e+06)
(2.6039e+07 -1.39876e+06 1.17892e-12 28605.3 5.00738e-13 6.46791e+06)
(-3.78686e+07 -617114 1.26252e-12 36319 -1.47286e-13 -9.38696e+06)
(3.80022e+07 -619744 0 -33358.1 0 9.42083e+06)
(679098 -804985 -5.43713e-14 1.1584e+06 2.19664e-14 455921)
(3.45117e+06 3.69747e+06 -5.22853e-13 282773 -2.32551e-15 926467)
(-3.53131e+07 -5.4284e+06 4.01288e-13 -2.90452e+06 1.23322e-13 -9.48257e+06)
(3.54276e+07 -5.45403e+06 0 2.91505e+06 0 9.5136e+06)
(-5.60282e+06 -291417 -8.08009e-14 977574 1.12234e-15 -1.14762e+06)
(6.40293e+06 -3.18739e+06 1.5469e-14 1.40444e+06 -1.29483e-14 1.93717e+06)
(-6.37141e+06 -3.16689e+06 -5.47025e-16 -1.39528e+06 7.58097e-14 -1.92707e+06)
(1.29661e+07 264742 -1.99202e-12 1.99595e+06 9.45984e-13 3.71238e+06)
(1.32303e+07 -1.86564e+06 -3.96458e-12 128139 -2.8781e-13 3.31449e+06)
(-2.48843e+06 -2.25749e+06 -1.56489e-12 164432 -4.3077e-12 -576632)
(-116637 -1.42016e+06 1.04596e-11 259626 3.332e-12 35478.4)
(-596 -11122.1 2.34324e-14 323776 -3.02801e-14 80187.5)
(661.539 -11577.4 -2.33213e-14 -319799 -3.00418e-14 -79184.4)
(451424 -1.21456e+06 7.03817e-14 3.25276e+06 5.88163e-14 919083)
(-450482 -1.21073e+06 1.7433e-13 -3.24292e+06 9.19758e-14 -916408)
(1.74546e+07 -1.69683e+06 1.9235e-12 38106.7 -9.24113e-13 4.34028e+06)
(-1.98571e+07 -1.66057e+06 -7.4767e-13 -1.51138e+06 -2.77161e-12 -5.30194e+06)
(1.99936e+07 -1.68321e+06 2.21224e-13 1.52308e+06 3.7707e-14 5.33871e+06)
(629483 -742977 -2.15542e-12 56226.4 -1.85442e-12 170138)
(1.29117e+07 -1.94333e+06 8.47314e-13 27881.1 -2.01948e-12 3.21057e+06)
(880921 -1.12347e+06 -2.33441e-14 1.41728e+06 -7.44014e-15 570230)
(-879559 -1.12333e+06 -3.69649e-14 -1.41079e+06 -2.88604e-14 -568283)
(-1.61318e+07 305576 4.3114e-13 -2.59638e+06 -8.80755e-13 -4.64685e+06)
(-1.09859e+07 1.96977e+06 4.45396e-13 -181408 3.34232e-13 -2.77082e+06)
(-8.89873e+06 364767 -3.02754e-13 818100 -1.81721e-13 -2.00497e+06)
(1.33404e+07 -1.99566e+06 -3.72839e-13 -32477.5 5.86937e-13 3.30197e+06)
(-3.03601e+07 -524724 2.34392e-12 -59142.7 -3.00325e-13 -7.54762e+06)
(4.14949e+06 -1.82609e+06 -6.27369e-13 -6309.24 -3.07402e-12 1.02801e+06)
(1.82468e+07 100821 -1.6014e-12 2.33778e+06 1.6259e-12 5.10744e+06)
(-2.18761e+07 -1.88803e+06 2.28512e-13 -2.67996e+06 3.56909e-13 -6.09286e+06)
(-7.57551e+06 1.60553e+06 -5.31798e-14 -1.11931e+06 2.10645e-13 -2.15736e+06)
(2.19686e+07 -1.87293e+06 -1.08913e-12 2.65091e+06 8.40646e-13 6.1086e+06)
(-3.44107e+07 -615009 -2.90615e-12 159606 -6.32874e-14 -8.49838e+06)
(3.85839e+06 -1.0251e+06 -1.43018e-13 377619 9.12469e-14 1.05104e+06)
(1.47684e+07 -1.37322e+06 -3.91297e-12 72921.9 -1.27915e-12 3.68244e+06)
(-1.35958e+07 -9.54565e+06 -2.20017e-13 -7.83375e+06 -7.7247e-14 -5.31712e+06)
(1.36566e+07 -9.58806e+06 -3.77583e-13 7.86812e+06 2.43699e-13 5.34073e+06)
(-6.92976e+06 -1.14325e+06 2.98623e-13 -579605 1.15422e-12 -1.86323e+06)
(4.57523e+06 3.45551e+06 -8.47435e-13 415839 3.31746e-14 1.23839e+06)
(3.34614e+07 -3.46301e+06 -4.44388e-14 2.76618e+06 3.02882e-13 8.9888e+06)
(-3.3345e+07 -3.44073e+06 -6.53605e-13 -2.75503e+06 -3.3048e-13 -8.95716e+06)
(-2.46868e+07 -616650 9.99506e-12 191013 7.11014e-13 -6.07789e+06)
(2.48787e+07 -620803 -5.41768e-12 -201859 8.05e-12 6.12283e+06)
(37115.2 -96180.9 0 69957.5 0 26566.9)
(-36630.3 -94871.8 1.16653e-15 -69006.2 8.8031e-15 -26210.6)
(-1.41123e+07 1.43843e+06 -8.63855e-13 -1.79057e+06 -7.52814e-13 -3.94583e+06)
(8.17921e+06 -7.83236e+06 -2.41004e-13 7.72106e+06 1.18218e-13 3.94518e+06)
(-8.14314e+06 -7.7974e+06 5.20267e-13 -7.68762e+06 3.93146e-13 -3.92793e+06)
(-1.05762e+07 -1.119e+06 -1.23272e-12 160350 6.14848e-12 -2.58437e+06)
(5.21265e+06 -1.45602e+06 1.1925e-12 153051 2.78041e-12 1.33134e+06)
(-1.91589e+07 -1.54407e+06 1.51359e-12 -162576 -2.61415e-12 -4.79404e+06)
(1.91961e+07 -1.54858e+06 -2.24327e-13 159635 3.04231e-12 4.80254e+06)
(3.80094e+07 -1.83844e+06 1.65723e-13 745725 -7.84729e-13 9.61594e+06)
(-3.78765e+07 -1.83073e+06 -1.08755e-12 -743213 -4.38252e-13 -9.58234e+06)
(-15967.4 -4969.51 1.29075e-14 261090 -5.85563e-14 60819.8)
(15848.1 -4988.99 -9.34464e-15 -258058 -2.26826e-14 -60097.2)
(2.57371e+06 4.58158e+06 -3.16715e-13 -3281.7 -2.02343e-13 637775)
(-4.42398e+07 -2.81205e+06 2.03058e-12 -1.25769e+06 5.09359e-13 -1.12888e+07)
(4.4374e+07 -2.82286e+06 -2.16944e-12 1.26194e+06 3.9476e-12 1.13232e+07)
(-2.21543e+06 -1.66323e+06 3.49156e-13 -46847.2 -1.64661e-12 -561316)
(-1.752e+07 -504681 6.34007e-13 -1.68785e+06 3.78968e-13 -4.76585e+06)
(-3.67018e+07 -509350 6.59255e-13 -90574.2 1.21065e-12 -9.12893e+06)
(3.6836e+07 -515159 -1.96091e-12 94227.5 3.0253e-12 9.16315e+06)
(-3.92973e+07 -9.12322e+06 4.09497e-14 -3.27694e+06 -5.07242e-14 -1.05635e+07)
(3.94166e+07 -9.15335e+06 8.57868e-13 3.28756e+06 -5.4461e-13 1.05958e+07)
(7.05905e+06 -1.9114e+06 -3.61443e-12 -145910 8.33624e-12 1.71529e+06)
(-1.56297e+07 -1.80954e+06 1.6715e-12 36153.1 1.06779e-12 -3.86907e+06)
(-2.57933e+06 3.61288e+06 4.78333e-13 -296799 -2.28023e-13 -713625)
(-1.1786e+07 -7.76691e+06 -2.24147e-13 -6.02922e+06 -1.56236e-13 -4.42032e+06)
(1.18396e+07 -7.80346e+06 2.25611e-13 6.05784e+06 -1.56117e-13 4.44072e+06)
(-4.37257e+07 -2.56019e+06 -1.46446e-12 -781773 -1.17491e-12 -1.10432e+07)
(4.38587e+07 -2.5687e+06 -9.42942e-13 784056 2.4867e-13 1.10768e+07)
(-7.33277e+06 3.25184e+06 -7.60034e-13 -541875 -1.42633e-13 -1.95386e+06)
(-2.44699e+07 -1.50475e+06 0 -170812 0 -6.11385e+06)
(-9.27527e+06 440687 -7.58724e-14 365874 -3.94168e-14 -2.2106e+06)
(-2.47065e+07 -1.28099e+06 3.80667e-12 55213 -1.53121e-12 -6.11649e+06)
(-2.4723e+07 -1.34613e+06 -2.41532e-12 -155914 -3.52912e-12 -6.17297e+06)
(-1.48203e+07 -122676 -9.22937e-13 -2.20641e+06 -6.35166e-13 -4.22467e+06)
(-1.55915e+07 -758618 2.7863e-12 14968.4 -2.14755e-12 -3.86484e+06)
(1.64634e+07 -1.08217e+06 1.60513e-12 1.77778e+06 -1.16448e-12 4.526e+06)
(1.24946e+07 -1.57297e+06 1.73225e-12 4672.95 -2.1779e-12 3.10133e+06)
(-1.63118e+07 -1.05825e+06 1.20989e-12 -1.7632e+06 5.47134e-13 -4.48478e+06)
(4.32651e+07 -5.62126e+06 1.37091e-12 2.11959e+06 -8.48632e-13 1.12609e+07)
(-4.31355e+07 -5.60043e+06 6.29174e-13 -2.11278e+06 2.4592e-13 -1.1227e+07)
(-1.31609e+07 1.33076e+06 -1.60869e-13 -2.00933e+06 7.00367e-13 -3.76404e+06)
(5.23043e+06 264893 -6.64909e-13 834791 5.14962e-13 1.5049e+06)
(6.80544e+06 -1.45716e+06 -5.03099e-13 42253.1 8.78575e-12 1.69905e+06)
(-2.49933e+07 -1.43837e+06 2.37898e-12 21603.8 -1.35083e-12 -6.19598e+06)
(-2.064e+07 -854833 -5.96709e-13 -2.77764e+06 -3.47789e-13 -5.81039e+06)
(-1.48494e+06 1.52422e+06 5.88738e-14 451479 -2.25936e-14 -256424)
(-1.2912e+07 1.90133e+06 -7.15855e-13 -1.68645e+06 -1.68211e-13 -3.62217e+06)
(4.85456e+06 -1.54118e+06 9.87804e-12 -25659.5 -8.81612e-12 1.19815e+06)
(1.76577e+07 -536633 2.66075e-13 1.7726e+06 -5.86501e-13 4.82105e+06)
(1.88327e+06 -2.13757e+06 -2.61641e-12 124699 -8.00909e-12 498218)
(830592 4.01459e+06 -2.83999e-13 44009.6 2.35997e-13 217006)
(-3.69755e+06 -2.12902e+06 4.87477e-13 14663.5 -5.00091e-12 -913800)
(1.59199e+07 -1.49275e+06 2.56606e-13 171416 1.59007e-12 3.99258e+06)
(8.40065e+06 -1.3612e+06 -6.06414e-12 162210 -1.15129e-13 2.12462e+06)
(-3.57992e+07 -456035 -3.84707e-12 4699.99 -5.17007e-12 -8.88133e+06)
(-1.69903e+07 -1.37828e+06 0 -134113 0 -4.24892e+06)
(2.93215e+07 -2.72789e+06 3.1275e-13 3.1292e+06 -7.19812e-13 8.05168e+06)
(-2.92093e+07 -2.70362e+06 -3.6567e-13 -3.11398e+06 -6.2206e-13 -8.02007e+06)
(1.10465e+07 2.64139e+06 -2.93488e-13 990002 2.77332e-13 2.9865e+06)
(-1.0547e+07 596845 -7.6023e-13 -1.76853e+06 1.90706e-12 -3.05573e+06)
(4.90153e+06 -1.25201e+06 -9.28937e-12 -114166 -1.01925e-13 1.18784e+06)
(-1.22843e+07 -7.6203e+06 1.49907e-13 -5.57383e+06 4.69977e-14 -4.43096e+06)
(1.23408e+07 -7.65656e+06 -3.61309e-13 5.60107e+06 1.78159e-13 4.45173e+06)
(523292 -229922 6.88576e-13 -55846.7 -5.10048e-14 115983)
(8.61332e+06 -1.83219e+06 4.08645e-12 271087 -2.39065e-13 2.2044e+06)
(-1.95972e+07 -482147 8.27588e-13 -2.73573e+06 1.53244e-12 -5.54124e+06)