/*--------------------------------*- C++ -*----------------------------------*\
| =========                 |                                                 |
| \\      /  F ield         | OpenFOAM: The Open Source CFD Toolbox           |
|  \\    /   O peration     | Version:  v3.0+                                 |
|   \\  /    A nd           | Web:      www.OpenFOAM.com                      |
|    \\/     M anipulation  |                                                 |
\*---------------------------------------------------------------------------*/
FoamFile
{
    version     2.0;
    format      ascii;
    class       volScalarField;
    location    "1000";
    object      sigmazz;
}
// * * * * * * * * * * * * * * * * * * * * * * * * * * * * * * * * * * * * * //

dimensions      [1 -1 -2 0 0 0 0];

internalField   nonuniform List<scalar> 
27023
(
-3.74132e+06
3.75756e+06
2.71877e+06
-2.7075e+06
-3.65977e+06
3.67572e+06
1.10954e+07
-1.1062e+07
1.52288e+06
-1.51725e+06
8.58981e+06
-8.56014e+06
390976
-391004
-3.07952e+06
273824
234893
-6.59216e+06
6.62573e+06
4.9826e+06
-4.94781e+06
1.0961e+07
-1.09276e+07
6.06983e+06
-6.04047e+06
934019
-4.25359e+06
392912
-4.25692e+06
3.47832e+06
1.85867e+06
4.98113e+06
-4.94763e+06
-4.80872e+06
-3.05724e+06
3.74132e+06
4.72536e+06
-4.68665e+06
1.44185e+06
-1.43664e+06
-2.77852e+06
2.79026e+06
-2.40687e+06
-3.53236e+06
3.54801e+06
6.53355e+06
-6.49931e+06
5.60374e+06
-5.5671e+06
3.28013e+06
5.40272e+06
-5.36576e+06
-4.68761e+06
120738
-119660
5.29798e+06
2.18488e+06
3.72658e+06
-1.75696e+06
2.79399e+06
-2.78263e+06
3.18828e+06
545261
558573
-2.32495e+06
1.66855e+06
4.37752e+06
1.1438e+06
-4.26032e+06
-2.26056e+06
4.56108e+06
-4.52224e+06
7.96392e+06
-7.9315e+06
9.6421e+06
-9.60939e+06
171762
-170362
-1.15391e+07
1.15731e+07
-3.18413e+06
8.28208e+06
-8.25265e+06
7.8087e+06
-7.77627e+06
-1.0183e+07
1.0216e+07
-4.33445e+06
427774
-1.85089e+06
1.80933e+06
3.96136e+06
-3.94345e+06
2.39849e+06
-992418
-6.02824e+06
6.05644e+06
-3.19155e+06
-1.85227e+06
96567.2
-3.02411e+06
-1.93327e+06
2.02653e+06
9.26624e+06
-9.23493e+06
335198
1.00869e+07
-1.00542e+07
5.25004e+06
3.52653e+06
2.167e+06
1.01986e+07
-1.01657e+07
5.96252e+06
-5.934e+06
9.7389e+06
-9.70579e+06
2.32027e+06
-4.20794e+06
-3.08323e+06
2.37299e+06
262814
-9.37721e+06
9.40708e+06
1.15894e+07
-1.15553e+07
3.82757e+06
-3.80988e+06
9.46012e+06
-9.4286e+06
-1.7069e+06
-375225
369693
-1.73608e+06
2.03913e+06
-1.02502e+07
1.02833e+07
1.1469e+06
6.86974e+06
-6.83518e+06
-1.05778e+07
1.06104e+07
-751645
1.0792e+07
-1.07592e+07
-1.71191e+06
-1.73235e+06
5.53043e+06
4.45311e+06
6.05149e+06
-6.02536e+06
6.58517e+06
-6.55799e+06
-2.84084e+06
-3.29713e+06
-3.11014e+06
3.12159e+06
3.12802e+06
6.79139e+06
-6.75666e+06
-5.8187e+06
-2.38039e+06
-4.90794e+06
400660
-7.4378e+06
7.4664e+06
-9.68675e+06
9.71796e+06
-2.27762e+06
257541
574212
-1.16161e+07
1.165e+07
-1.99085e+06
2.01421e+06
-3.13575e+06
280177
-750903
-2.01546e+06
1.24625e+06
-4.44542e+06
-1.00425e+07
1.00742e+07
-3.13479e+06
-5.8885e+06
-6.28627e+06
-5.75795e+06
5.78543e+06
-5.15363e+06
-1.84244e+06
-9.77354e+06
9.80473e+06
-3.06709e+06
458533
1.17763e+07
-1.17421e+07
-6.50331e+06
-9.48954e+06
9.52017e+06
-3.98178e+06
3.29635e+06
-4.33509e+06
9.42173e+06
-9.38741e+06
-3.3542e+06
3.36909e+06
-2.61872e+06
-6.46987e+06
9.42427e+06
-9.3901e+06
19016.2
-18755.1
2.27295e+06
-2.79812e+06
-1.41131e+06
1.41937e+06
-3.59137e+06
319501
670606
-1.01273e+07
1.01601e+07
-1.67778e+06
-9.29326e+06
9.32282e+06
-2.96576e+06
9.1381e+06
-9.10446e+06
8.07372e+06
-8.04215e+06
797860
-795389
423061
9.36757e+06
-9.33412e+06
-5.96857e+06
8.92922e+06
-8.89604e+06
9.70915e+06
3.69271e+06
-1.14922e+07
1.1526e+07
4.50348e+06
6.04903e+06
6.17898e+06
-4.97791e+06
2.50515e+06
91386.9
-3.87476e+06
5.05361e+06
-4.8641e+06
-1.09199e+07
1.0954e+07
-2.19029e+06
-1.93558e+06
-6.43616e+06
-6.59883e+06
7.99561e+06
-6.0349e+06
5.55508e+06
-5.52137e+06
2.02988e+06
464373
5.46233e+06
9.18672e+06
-9.15328e+06
1.06376e+07
-1.06049e+07
789433
-1.60397e+06
9.23954e+06
-9.20953e+06
3.83617e+06
-2.36087e+06
-4.19663e+06
1.00022e+06
577110
-7.4454e+06
7.47391e+06
-5.45646e+06
5.48637e+06
4.29169e+06
-5.46123e+06
1.0421e+06
-1.03276e+06
-114530
115842
-2.26097e+06
-2.8284e+06
1.39694e+06
5.18742e+06
259743
-2.18929e+06
-9.0856e+06
9.11933e+06
-1.00464e+07
1.00788e+07
-4.75685e+06
6.46791e+06
-9.38696e+06
9.42083e+06
455921
926467
-9.48257e+06
9.5136e+06
-1.14762e+06
1.93717e+06
-1.92707e+06
3.71238e+06
3.31449e+06
-576632
35478.4
80187.5
-79184.4
919083
-916408
4.34028e+06
-5.30194e+06
5.33871e+06
170138
3.21057e+06
570230
-568283
-4.64685e+06
-2.77082e+06
-2.00497e+06
3.30197e+06
-7.54762e+06
1.02801e+06
5.10744e+06
-6.09286e+06
-2.15736e+06
6.1086e+06
-8.49838e+06
1.05104e+06
3.68244e+06
-5.31712e+06
5.34073e+06
-1.86323e+06
1.23839e+06
8.9888e+06
-8.95716e+06
-6.07789e+06
6.12283e+06
26566.9
-26210.6
-3.94583e+06
3.94518e+06
-3.92793e+06
-2.58437e+06
1.33134e+06
-4.79404e+06
4.80254e+06
9.61594e+06
-9.58234e+06
60819.8
-60097.2
637775
-1.12888e+07
1.13232e+07
-561316
-4.76585e+06
-9.12893e+06
9.16315e+06
-1.05635e+07
1.05958e+07
1.71529e+06
-3.86907e+06
-713625
-4.42032e+06
4.44072e+06
-1.10432e+07
1.10768e+07
-1.95386e+06
-6.11385e+06
-2.2106e+06
-6.11649e+06
-6.17297e+06
-4.22467e+06
-3.86484e+06
4.526e+06
3.10133e+06
-4.48478e+06
1.12609e+07
-1.1227e+07
-3.76404e+06
1.5049e+06
1.69905e+06
-6.19598e+06
-5.81039e+06
-256424
-3.62217e+06
1.19815e+06
4.82105e+06
498218
217006
-913800
3.99258e+06
2.12462e+06
-8.88133e+06
-4.24892e+06
8.05168e+06
-8.02007e+06
2.9865e+06
-3.05573e+06
1.18784e+06
-4.43096e+06
4.45173e+06
115983
2.2044e+06
-5.54124e+06
319425
5.56227e+06
121147
-119829
-1.77556e+06
5.21534e+06
4.4973e+06
6.46551e+06
3.42874e+06
-4.58172e+06
2.29168e+06
-5.64205e+06
1.4242e+06
795113
482010
-8.45555e+06
-9.15874e+06
9.19198e+06
-7.84007e+06
734086
5.76389e+06
-3.59443e+06
8.91128e+06
-8.8776e+06
-6.96418e+06
6.99757e+06
6.35361e+06
438798
1.93653e+06
-1.92962e+06
-7.75899e+06
7.75856e+06
6.00651e+06
-5.9709e+06
-39415.7
39918.6
-2.24239e+06
-1.37711e+06
-5.10319e+06
-498551
-1.31166e+06
-9.82404e+06
9.85504e+06
-9.51696e+06
9.54735e+06
5.70951e+06
-5.67437e+06
6.53724e+06
-6.50997e+06
-1.41284e+06
101374
-1.2794e+06
-4.86709e+06
2.63354e+06
5.80906e+06
-2.044e+06
-1.13699e+07
1.14039e+07
-5.34875e+06
2.64044e+06
1.35758e+06
7.14534e+06
6.19448e+06
-4.82555e+06
-1.64094e+06
9.29025e+06
-9.25651e+06
-2.32241e+06
2.39475e+06
2.49712e+06
-2.48596e+06
9.25526e+06
-9.22163e+06
250564
1.54614e+06
-1.66831e+06
1.85911e+06
8.5058e+06
862808
-8.61553e+06
8.64518e+06
-3.51348e+06
4.9683e+06
300292
-5.32694e+06
5.36406e+06
4.49579e+06
-4.47571e+06
3.65878e+06
-7.38554e+06
-4.35763e+06
-3.78143e+06
3.80164e+06
-4.63309e+06
-878313
4.88825e+06
-4.84838e+06
-4.2131e+06
1.09969e+07
-1.0964e+07
8.60036e+06
-8.57083e+06
-5.71104e+06
-8.50365e+06
8.53345e+06
-2.53526e+06
-3.55746e+06
8.43222e+06
-8.39817e+06
-6.43392e+06
-9.20874e+06
9.24188e+06
5.12637e+06
-8.95574e+06
8.98856e+06
-5.45716e+06
5.48956e+06
-1.35566e+06
7.50936e+06
-7.48052e+06
-4.10578e+06
-843036
-1.07873e+06
-1.555e+06
7.00706e+06
-6.97707e+06
-1.07618e+07
1.07952e+07
-3.89638e+06
-6.39333e+06
4.26261e+06
377481
-5.12296e+06
-4.7038e+06
2.14429e+06
-1.94134e+06
1.94839e+06
-7.41343e+06
-1.01469e+07
1.01796e+07
3.72933e+06
407705
-9.12774e+06
9.16006e+06
-4.75493e+06
-4.99581e+06
5.00395e+06
106305
557672
-1.45992e+06
-4.04408e+06
-3.3311e+06
4.86346e+06
-4.82358e+06
-4.54654e+06
-82811.2
7.65469e+06
-7.62027e+06
1.73072e+06
-4.8419e+06
4.87367e+06
-1.37326e+06
5.06825e+06
-5.04599e+06
-9.22647e+06
9.25676e+06
-5.66772e+06
5.69204e+06
5.06432e+06
-3.968e+06
3.98773e+06
4.98391e+06
-6.10211e+06
6.12833e+06
-3.54753e+06
1.95373e+06
-2.18349e+06
-5.3592e+06
407245
-1.07389e+06
-2.0042e+06
-8.47152e+06
5.72375e+06
-5.69496e+06
3.7606e+06
5.81023e+06
-5.78101e+06
-3.47946e+06
-7.6423e+06
7.67473e+06
-1.38419e+06
-334741
-4.93241e+06
4.96527e+06
8.75989e+06
-8.72616e+06
6.59559e+06
2.82664e+06
4.59308e+06
7.77567e+06
-7.7412e+06
9.98657e+06
-9.95337e+06
3.00877e+06
-2.45866e+06
1.25538e+06
-1.27658e+06
3.94753e+06
-3.90427e+06
-3.84847e+06
-30692.6
-68794.1
69666
31085.7
-2.43371e+06
351421
-349832
-5.80693e+06
5.83256e+06
-3.63234e+06
3.64901e+06
5.03336e+06
-5.01124e+06
785820
7.03519e+06
-7.00427e+06
-5.09733e+06
-2.28046e+06
-6.67974e+06
6.71035e+06
-3.06001e+06
7.45411e+06
-7.41995e+06
-3.97273e+06
-3.1518e+06
6.23165e+06
-5.4375e+06
5.46101e+06
6.13878e+06
452956
2058.55
-2.78469e+06
-9.18664e+06
9.21997e+06
-792474
5.56331e+06
-1.12705e+07
1.13047e+07
-35322.8
35740.1
5.60369e+06
-5.57265e+06
4.66467e+06
-732868
1.10065e+07
-1.09741e+07
-3.66717e+06
-5.57928e+06
832096
2.08255e+06
4.75154e+06
3.69508e+06
1.97563e+06
-454661
-1.58813e+06
-5.91198e+06
4.29094e+06
5.64974e+06
-5.36927e+06
-2.89732e+06
-2.09391e+06
106549
-105485
7.65615e+06
-7.62378e+06
4.56257e+06
-361875
-2.39974e+06
-778939
4.71295e+06
5.27202e+06
-5.61258e+06
-541635
3.3418e+06
-3.56178e+06
-1.43572e+06
3.38662e+06
-3.37074e+06
5.05354e+06
6.76838e+06
-640154
-3.30821e+06
9.2738e+06
-9.24034e+06
-9.51596e+06
9.55051e+06
73943.2
-73020
-431279
-720589
-2.81237e+06
-391701
-5.16629e+06
5.19932e+06
2.93187e+06
1.55466e+06
-1.54962e+06
-1.01836e+07
1.02166e+07
-7.79075e+06
8.42006e+06
-8.3874e+06
-1.30903e+06
6.24904e+06
-3.91935e+06
-2.21362e+06
6.16302e+06
714383
8.36497e+06
-8.33155e+06
3.18695e+06
-1.08392e+06
1.04553e+07
-1.04232e+07
-3.28667e+06
-8.86997e+06
-3.04145e+06
8.90294e+06
2.41654e+06
-2.38854e+06
4.49495e+06
3.52929e+06
-4.63898e+06
-177689
-4.70724e+06
-2.4911e+06
8.01045e+06
-1.63725e+06
3.51381e+06
-3.4943e+06
-9.48226e+06
9.51589e+06
2.39588e+06
678694
-8.92129e+06
8.9544e+06
-5.19081e+06
4.18485e+06
3.28191e+06
1.76748e+06
3.75308e+06
4.07991e+06
-4.06225e+06
-1.35907e+06
5.36578e+06
-5.33182e+06
-9.40109e+06
9.43441e+06
133554
-3.55815e+06
-844360
-7.9991e+06
8.04367e+06
-8.01441e+06
3.48106e+06
461144
-2.45233e+06
-5.53247e+06
-2.22427e+06
-3.86307e+06
-1.47115e+06
-3.631e+06
4.01551e+06
9.57625e+06
-9.54342e+06
8.78148e+06
-8.75172e+06
5.97204e+06
-5.86532e+06
-1.43087e+06
587617
9.34509e+06
-9.31223e+06
-6.46342e+06
-5.83171e+06
182541
-2.35729e+06
789014
714679
-710669
-2.60756e+06
-1.01445e+06
1.07909e+07
-1.0758e+07
-299312
2.59701e+06
-450851
1.14507e+07
-1.14171e+07
-3.93648e+06
3.95899e+06
-4.52017e+06
-3.14304e+06
3.15775e+06
-1.29862e+06
-623812
324701
552002
8.74895e+06
-8.71564e+06
-1.16214e+06
-5.21216e+06
5.24875e+06
9.73615e+06
-9.70084e+06
-3.73264e+06
3.75371e+06
6.60277e+06
-6.57554e+06
-1.04548e+07
1.04871e+07
1.23092e+06
-6.03964e+06
1.06133e+07
-1.05808e+07
-6.2504e+06
-520473
6.24275e+06
-6.21624e+06
7.82116e+06
-7.78739e+06
-6.24345e+06
-9.1941e+06
9.22761e+06
-1.06783e+07
1.07103e+07
6.26984e+06
2.64658e+06
3.80085e+06
1.60349e+06
6.96573e+06
-6.93121e+06
-8.48689e+06
588051
852581
8.51999e+06
3.14116e+06
5.05998e+06
-3.77854e+06
5.32028e+06
-5.28666e+06
122318
1.49685e+06
-4.55515e+06
6.65275e+06
-6.65512e+06
2.61279e+06
-310407
128360
-127220
-3.92096e+06
-4.51127e+06
-3.14307e+06
1.06231e+07
-1.05907e+07
-6.52888e+06
-4.50497e+06
-6.3846e+06
2.82733e+06
6.49742e+06
-6.47038e+06
-5.94682e+06
2.66551e+06
6.56052e+06
-3.26512e+06
3.35245e+06
6.41281e+06
-5.53395e+06
6.2664e+06
-6.2398e+06
-8.4904e+06
8.52445e+06
5.48336e+06
-2.17811e+06
3.56003e+06
8.84508e+06
-8.81534e+06
-8.09163e+06
8.12598e+06
9317.95
-2.82644e+06
6.99801e+06
-6.96386e+06
-3.90156e+06
1.33126e+06
-1.32551e+06
-3.13632e+06
-3.51215e+06
8.5486e+06
-5.08284e+06
-5.31485e+06
-6.29719e+06
3.59469e+06
-3.83273e+06
-1.22681e+06
9.85583e+06
-9.82302e+06
-540613
198485
1.82898e+06
-3.79142e+06
-1.55381e+06
-963350
-594989
3.48687e+06
-2.72899e+06
325913
1.73448e+06
-3.86977e+06
3.15773e+06
-7.66326e+06
1.91339e+06
-2.00825e+06
-2.00331e+06
2.01074e+06
3.82179e+06
-1.40514e+06
1.41273e+06
-2.77253e+06
-1.65911e+06
7.13222e+06
-7.1025e+06
3.68878e+06
1.08533e+06
-1.07909e+06
-3.25477e+06
-1.62491e+06
3.53225e+06
-4.75913e+06
5.47982e+06
3.47063e+06
-9.02774e+06
4.24491e+06
3.04428e+06
5.11865e+06
3.96611e+06
-3.94856e+06
1.30149e+06
-1.42564e+06
441900
-440734
5.80813e+06
-113738
3.63511e+06
2.82989e+06
-3.95562e+06
3.99565e+06
-6.25479e+06
-1.24646e+06
3.03197e+06
-269089
270040
-3.42006e+06
-2.31378e+06
-33104.8
433933
-2.02796e+06
6.11899e+06
3.67592e+06
-4.47489e+06
-4.08317e+06
4.12164e+06
-7.137e+06
-5.65272e+06
192952
767604
-3.99817e+06
-7.61784e+06
7.64661e+06
343888
-3.01923e+06
-6.8319e+06
-2.07726e+06
2.08497e+06
-3.6352e+06
1.85858e+06
3.67709e+06
-9.07195e+06
9.10587e+06
-1.72533e+06
-5.25114e+06
5.28443e+06
7.20859e+06
-7.17989e+06
2.69495e+06
-3.87021e+06
180158
-178743
-3.50275e+06
420481
1.0582e+06
9.59891e+06
-9.56568e+06
-1.09534e+06
1.11262e+07
-1.10933e+07
526024
4.39559e+06
-1.65664e+06
-7.6451e+06
-3.25423e+06
-960595
7.67433e+06
6.79151e+06
882910
-3.01987e+06
-4.31619e+06
4.35358e+06
4.43603e+06
-4.54835e+06
6.15273e+06
3.51211e+06
4.16462e+06
-1.00747e+06
698530
-1.42782e+06
-2.62386e+06
261903
900219
-1.34487e+06
-1.04576e+06
47083.2
3.78289e+06
2.41405e+06
-5.09609e+06
-3.68785e+06
-1.90006e+06
-6.26528e+06
5.93256e+06
-7.64226e+06
7.67153e+06
1.26699e+06
-497099
-3.86424e+06
3.90101e+06
7.74644e+06
-7.71176e+06
-2.40176e+06
-995416
5.04191e+06
-860575
865920
9.29407e+06
-9.26119e+06
663128
191896
-3.22721e+06
-1.04971e+06
-796128
-211804
-910180
-173184
6.27027e+06
6.88859e+06
-6.8579e+06
4.07637e+06
-4.03234e+06
1.84626e+06
1.59288e+06
9.34908e+06
-9.31551e+06
962827
1.82885e+06
4.11293e+06
-1.32576e+06
-5.74258e+06
-2.36623e+06
2.16908e+06
-1.89079e+06
6.77701e+06
-1.07732e+06
-2.09529e+06
8.03508e+06
7.14393e+06
-7.11305e+06
-7.17301e+06
1.41692e+06
4.55479e+06
-2.9381e+06
3.04877e+06
7.90586e+06
-7.89347e+06
-3.62075e+06
-8.26193e+06
-1.21544e+06
1.2197e+06
1.60086e+06
-1.59501e+06
2.50542e+06
3.13907e+06
-2.87791e+06
9.54984e+06
-9.72095e+06
9.75157e+06
1.84889e+06
-1.83956e+06
-1.4308e+06
9.87916e+06
-9.8461e+06
-3.82228e+06
3.75093e+06
-1.15001e+06
32458.6
-32014.7
-3.67239e+06
-1.78718e+06
7.59566e+06
-2.03471e+06
-9.79688e+06
9.82839e+06
3.9626e+06
7.08059e+06
-7.01062e+06
2.77591e+06
1.86172e+06
-259539
4.22419e+06
-4.19546e+06
-9.23855e+06
9.27169e+06
-1.81758e+06
-4.87446e+06
4.90643e+06
-8.96653e+06
9.00023e+06
2.14264e+06
-4.60094e+06
3.86664e+06
-1.49264e+06
4.13099e+06
-4.10851e+06
-3.18609e+06
1.25995e+06
6.55488e+06
-60393.5
-4.52827e+06
4.54901e+06
-3.89478e+06
2.03902e+06
7.94229e+06
8.35796e+06
-8.32399e+06
5.89362e+06
-902650
-2.96757e+06
2.83541e+06
1.06521e+07
-1.06198e+07
-4.1784e+06
7.35557e+06
-7.32168e+06
4.14453e+06
-6.48771e+06
-5.04888e+06
5.06646e+06
4.12925e+06
2.51121e+06
209007
-310181
-4.89165e+06
1.80068e+06
-1.44901e+06
112628
-111624
6.50191e+06
1.59194e+06
-1.58549e+06
9.0045e+06
-8.97452e+06
-3017.1
1.0673e+07
-1.06405e+07
-8.04592e+06
8.07526e+06
-1.04747e+07
1.05066e+07
2.70259e+06
9.71524e+06
-9.68216e+06
700904
-3.01824e+06
-432922
-3.12329e+06
2.05234e+06
-2.68646e+06
7.50356e+06
-7.47193e+06
-2.57819e+06
2.59195e+06
2.10342e+06
-271543
188271
6.0355e+06
1.02288e+06
4.46579e+06
-6.58428e+06
998259
-1.2976e+06
1.04219e+06
-1.03885e+06
6.12876e+06
-4.84294e+06
6.01941e+06
-3.91231e+06
-2.20439e+06
583107
4.68201e+06
-4.64379e+06
4.59923e+06
2.17599e+06
-3.57828e+06
3.65075e+06
-1.50643e+06
-4.65161e+06
-9.31817e+06
-5.68209e+06
5.7128e+06
6.49075e+06
-3.42524e+06
4.32578e+06
-4.84542e+06
5.68595e+06
9.34936e+06
4.86886e+06
5.16333e+06
4.31846e+06
2.84807e+06
4.38707e+06
-1.4642e+06
3.55126e+06
2.58707e+06
1.94549e+06
-597832
-2.08385e+06
3.56737e+06
-4.28324e+06
-2.32542e+06
7.64233e+06
-7.60816e+06
-5.42074e+06
1.69272e+06
-1.58127e+06
-1.86875e+06
6.5432e+06
-7.18995e+06
875951
-7.60248e+06
-2.61777e+06
1.19063e+06
7.21949e+06
3.33689e+06
-5.14534e+06
2.26536e+06
-879935
5.70513e+06
-5.60171e+06
3.96832e+06
145657
-144605
-6.31133e+06
-8.15744e+06
8.18669e+06
386221
9.20053e+06
-9.17011e+06
1.1101e+06
3.87865e+06
-3.8621e+06
-4.22891e+06
58497.1
921195
1.01224e+07
-1.00868e+07
-400133
-7.58167e+06
8.35669e+06
-3.10659e+06
9.01689e+06
-8.98685e+06
-5.06478e+06
1.43342e+06
932980
-7.08718e+06
4.11429e+06
-4.07749e+06
83291.8
-82237.2
606779
2.36701e+06
6.5153e+06
-6.48811e+06
9.23378e+06
-9.20104e+06
-7.01802e+06
1.60753e+06
3.36317e+06
8.68341e+06
-8.65199e+06
379546
-146302
147659
-7.12295e+06
7.12601e+06
-9.13903e+06
9.17173e+06
-7.81008e+06
9.32938e+06
-9.29605e+06
6.96856e+06
-6.94079e+06
4.09919e+06
-1.94119e+06
-8.47327e+06
8.40611e+06
4.06491e+06
328589
-8.37244e+06
1.77475e+06
5.06103e+06
4.58325e+06
5.17865e+06
2.89387e+06
8.86628e+06
-8.83312e+06
-2.53171e+06
-8.26204e+06
8.29148e+06
1.01284e+07
-1.00955e+07
-3.56086e+06
-7.03403e+06
7.0672e+06
4.07846e+06
-4.04099e+06
-3.84677e+06
3.94001e+06
-3.9035e+06
3.67723e+06
-9.53846e+06
9.57255e+06
2.40914e+06
-1.6238e+06
-3.8455e+06
-708944
3.80564e+06
-3.77982e+06
1.48663e+06
-3.59433e+06
1.59623e+06
-2.84252e+06
-44375.9
45104.7
-1.08386e+07
1.08722e+07
-1.42566e+06
2.66628e+06
1.10018e+07
-1.09689e+07
-4.0059e+06
3.95629e+06
1.89474e+06
-6.07071e+06
6.10463e+06
4.39369e+06
-258625
-6.50508e+06
819241
-1.0759e+07
1.07916e+07
-4.34266e+06
4.37998e+06
-6.19509e+06
6.22945e+06
370988
-368934
1.67748e+06
-5.83274e+06
-1.1243e+06
-3.27077e+06
-3.91242e+06
-799269
665718
-663762
-1.68043e+06
-198831
3.48437e+06
-4.5303e+06
4.55403e+06
3.35807e+06
-123205
-4.43895e+06
7.20197e+06
-7.16802e+06
-4.64116e+06
639497
-6.8037e+06
6.83734e+06
-3.1571e+06
-7.39086e+06
7.42256e+06
-5.43954e+06
-3.27118e+06
-4.38057e+06
-1.91594e+06
2.29484e+06
-2.29658e+06
8.47339e+06
2.09613e+06
6.217e+06
-6.1905e+06
232551
5.50592e+06
-5.48095e+06
813232
7.94806e+06
-7.91502e+06
-4.23078e+06
4.24961e+06
-408618
-2.54005e+06
2.55603e+06
-7.41866e+06
7.45289e+06
4.42219e+06
-3.06698e+06
-4.31842e+06
5.62766e+06
-5.6028e+06
4.31287e+06
-1.52063e+06
-4.50814e+06
4.54508e+06
1.00348e+06
9.93956e+06
-9.90899e+06
1.42596e+06
5.71203e+06
9.31546e+06
-9.28251e+06
-169247
170916
-1.42916e+06
8.96322e+06
-8.93092e+06
1.05474e+06
4.15404e+06
-4.11856e+06
908316
-904812
-74027
4.19431e+06
9.76482e+06
-9.73477e+06
-1.12403e+07
1.12742e+07
3.79724e+06
438794
-1.87814e+06
1.8847e+06
2.57958e+06
24846.8
-24481.9
-9.90051e+06
9.93305e+06
-3.04641e+06
2.37336e+06
-2.36423e+06
1.25794e+06
-9.14297e+06
9.17613e+06
-2.51414e+06
-1.26365e+06
-9.53435e+06
9.56779e+06
-9.56317e+06
9.59367e+06
-2.79058e+06
293938
-6.17411e+06
3.29571e+06
-1.92892e+06
-1.098e+06
3.63719e+06
4.0997e+06
-3.86344e+06
3.88404e+06
-7.85722e+06
7.89141e+06
9.43102e+06
-9.39755e+06
7.25892e+06
-3.90308e+06
-839517
376601
-8.535e+06
-3.76081e+06
6.0539e+06
5.61702e+06
-6.04673e+06
5.41604e+06
-5.37982e+06
-4.93084e+06
4.95305e+06
889812
-1.04557e+06
-4.1515e+06
172007
-407508
3.27987e+06
-3.77432e+06
-1.51021e+06
4.45821e+06
-4.42158e+06
140285
-5.035e+06
5.07423e+06
-2.09901e+06
-1.0636e+07
1.06679e+07
-9.81194e+06
9.84335e+06
-1.6086e+06
-7.48983e+06
7.52223e+06
1.17122e+07
-1.16781e+07
8.34728e+06
-8.31633e+06
5.87387e+06
-5.84868e+06
8.2088e+06
2.24597e+06
2.74859e+06
-1.24841e+06
-4.81321e+06
4.83557e+06
-7.6064e+06
7.6383e+06
-2.2973e+06
2.21061e+06
-2.21163e+06
1.0827e+07
-1.07943e+07
4.14946e+06
-5.18646e+06
5.20032e+06
-3.42257e+06
-3.94221e+06
5.44998e+06
-1.72468e+06
4.11679e+06
-4.07019e+06
460034
-3.92472e+06
3.64423e+06
494945
-493354
6.99304e+06
1.52836e+06
1.65236e+06
-2.15406e+06
-4.97878e+06
-8.00203e+06
1.93624e+06
2.90196e+06
-2.88982e+06
8.41334e+06
-8.37913e+06
5.66178e+06
-5.63637e+06
-2.2364e+06
1.9066e+06
1.87073e+06
1.34656e+06
-2.30904e+06
-6.81265e+06
2.42358e+06
2.69708e+06
1.34776e+06
-7.66962e+06
7.66706e+06
985809
-983069
2.23342e+06
2.01144e+06
-5.42518e+06
5.45622e+06
6.08573e+06
-6.06007e+06
9.96979e+06
-9.93414e+06
-2.77711e+06
-1.31194e+06
1.33531e+06
738800
-6.94762e+06
7.05496e+06
-8.96409e+06
8.99777e+06
4.01249e+06
-135607
7.6727e+06
-7.64387e+06
-4.1846e+06
4.16532e+06
3.26122e+06
-1.25771e+06
-4.12913e+06
-1.9506e+06
3.93097e+06
-3.90577e+06
6.76945e+06
-6.74211e+06
-5.98829e+06
9.12184e+06
-9.08822e+06
8.66722e+06
-8.63763e+06
8.10235e+06
4.10557e+06
-4.07988e+06
-3.49921e+06
3.51565e+06
1.15254e+06
-2.2639e+06
-5.51125e+06
-4.08692e+06
4.12569e+06
-1.77284e+06
1.77918e+06
253503
5.49234e+06
-6.8023e+06
6.83497e+06
4.81023e+06
2.00042e+06
-1.1166e+07
1.12e+07
2.04155e+06
5.66042e+06
-7.15763e+06
2.24819e+06
-7.20506e+06
-8.07969e+06
8.11273e+06
2.95255e+06
8.57456e+06
-8.54139e+06
1.66477e+06
2.81779e+06
7.23314e+06
-6.34758e+06
6.38165e+06
-3.10592e+06
3.48354e+06
-10592.3
9.37053e+06
-9.3372e+06
929391
-1.3332e+06
5.79035e+06
-5.75355e+06
3.18093e+06
-3.64167e+06
3.64708e+06
1.43365e+06
552092
-525300
5.34377e+06
-5.30824e+06
1.24908e+06
-1.6687e+06
-3.43911e+06
6.24944e+06
-445406
-1.95726e+06
-717271
231462
3.75193e+06
7.57187e+06
-2.84739e+06
8.79464e+06
-8.76527e+06
-4.08296e+06
671189
-669354
8.85905e+06
-8.82904e+06
2.69266e+06
-9.42208e+06
9.4527e+06
3.55051e+06
7.63953e+06
-1.02715e+06
-344862
345807
648570
-7.2586e+06
7.29298e+06
-4.95535e+06
474803
5.20852e+06
-78568.7
-7.23955e+06
3.3932e+06
-2.62702e+06
2.64316e+06
5.95346e+06
-5.92757e+06
-3.86806e+06
1.72084e+06
3.83596e+06
-8.49727e+06
8.52797e+06
-815031
976494
-971944
-53547.5
-9.3702e+06
9.40306e+06
-1.34215e+06
2.63871e+06
-3.16306e+06
2.53891e+06
-2.53394e+06
4.67115e+06
-4.63424e+06
-3.44459e+06
3.34268e+06
-4.28327e+06
4.34482e+06
5.45539e+06
-3.85139e+06
-5.64845e+06
358137
-6.86242e+06
-1.63868e+06
3.97223e+06
-3.93643e+06
-59563.9
2.92051e+06
-2.90837e+06
7.66068e+06
-7.62851e+06
6.32954e+06
8.44035e+06
621750
1.13872e+06
4.28939e+06
327193
-7.0144e+06
-6.77772e+06
4.69891e+06
3.16816e+06
-3.91086e+06
-1.28011e+06
3.86012e+06
-5.14712e+06
5.17933e+06
5.71436e+06
-5.68633e+06
6.09763e+06
-6.11126e+06
3.10406e+06
-5.05259e+06
5.08937e+06
467153
-5.18188e+06
5.07602e+06
-8.45822e+06
8.49058e+06
2.22075e+06
5.22162e+06
-1.15371e+06
-3.83794e+06
-6.88686e+06
-43995.8
44748
3.3124e+06
-1.74716e+06
2.12254e+06
-2.17748e+06
1.11937e+06
4.41185e+06
-4.38849e+06
-7.24153e+06
7.27199e+06
3.91686e+06
-7.37005e+06
9.6879e+06
-9.65482e+06
-6.52952e+06
6.55934e+06
3.05974e+06
2.50206e+06
2.48447e+06
3.3263e+06
5.18943e+06
-5.18601e+06
2.29145e+06
-4.61979e+06
4.63919e+06
-5.77212e+06
5.79692e+06
5.16427e+06
4.0225e+06
-4.00468e+06
3.95546e+06
-3.91903e+06
5.34624e+06
-2.77785e+06
2.78429e+06
-1.92027e+06
1.72597e+06
188023
-2.21645e+06
-3.87378e+06
1.3121e+06
-1.30766e+06
-3.32462e+06
3.91623e+06
-6.3422e+06
6.37799e+06
2.55853e+06
2.97702e+06
3.28525e+06
3.88008e+06
5.02037e+06
-4.99747e+06
4.05926e+06
-1.00303e+07
1.00619e+07
4.55108e+06
3.92264e+06
-2.20266e+06
-6.03219e+06
6.19425e+06
-6.16116e+06
2.092e+06
4.53237e+06
3.64445e+06
-8.55892e+06
8.59233e+06
5.33155e+06
-5.33118e+06
3.3914e+06
-3.57082e+06
-2.43398e+06
-783724
2.72784e+06
2.30135e+06
2.96041e+06
-2.81182e+06
369702
-379954
-7.26339e+06
7.29504e+06
760679
9.80665e+06
-7.7161e+06
7.74859e+06
6.28519e+06
-5.18626e+06
3.64885e+06
-3.40675e+06
5.21609e+06
-9.03424e+06
9.06763e+06
1.30406e+06
5.33031e+06
-7.63871e+06
7.66843e+06
4.44935e+06
-3.35316e+06
5.34793e+06
51716
-51066.6
3.65648e+06
9.07073e+06
-9.04062e+06
3.0914e+06
-202274
2.69362e+06
6.38796e+06
-5.06895e+06
-245464
-9.77745e+06
237174
-236091
-2.04108e+06
4.53487e+06
1.6216e+06
164462
-163178
4.91501e+06
-6.72423e+06
6.75867e+06
1.09117e+07
-1.08788e+07
-5.58626e+06
5.61032e+06
3.72079e+06
459643
-463082
-3.76263e+06
-1.79921e+06
3.05577e+06
221796
-3.8135e+06
-3.69485e+06
7.24015e+06
-7.20796e+06
-7.3037e+06
7.33856e+06
-864044
-4.04308e+06
-8.55995e+06
2.54051e+06
-4.32802e+06
-114496
3.99854e+06
4.31419e+06
1.1136e+07
-1.1103e+07
-6.87557e+06
-2.38092e+06
-5.44553e+06
5.47683e+06
-1.12514e+06
-333906
126147
3.06048e+06
22661.9
-22217.1
-1.58052e+06
1.21172e+06
-1.20527e+06
-74406.6
-9.77831e+06
9.81006e+06
-1.46519e+06
-4.40346e+06
5.03783e+06
4.44186e+06
-6.87991e+06
6.88305e+06
1.75482e+06
-2.23919e+06
-3.51123e+06
489521
-9.6805e+06
9.71189e+06
4.50321e+06
-4.47711e+06
-8.76062e+06
1.47361e+06
-1.12702e+07
1.13037e+07
4.22705e+06
-4.20874e+06
-3.80752e+06
6.94717e+06
-985084
-6.46017e+06
6.48965e+06
9.7416e+06
-9.70696e+06
-100695
-565403
4.73131e+06
8.37122e+06
3.84815e+06
2.327e+06
-7.21501e+06
7.24858e+06
-1.68547e+06
2.69571e+06
-4.61605e+06
-6.15347e+06
-1.54263e+06
-4.37692e+06
6.2921e+06
-6.25636e+06
7.71977e+06
-9.60372e+06
9.63663e+06
68651.5
-67925.5
4.64528e+06
4.27577e+06
9.77509e+06
-5.18707e+06
-5.31927e+06
5.3545e+06
-5.38228e+06
4.11105e+06
-7.30856e+06
3.88122e+06
-1.70661e+06
-1.03944e+07
1.04277e+07
-6.56221e+06
-7.17884e+06
7.2072e+06
-1.13802e+07
1.14143e+07
-9.74447e+06
39988.3
-39414
3.15472e+06
-1.05867e+07
1.06192e+07
-5.97448e+06
6.01055e+06
-1.69284e+06
1.69871e+06
5.15461e+06
1.91072e+06
7.89526e+06
-7.86105e+06
-1.42898e+06
-2.07603e+06
7.10478e+06
-7.07057e+06
-4.10076e+06
-2.79837e+06
8.89846e+06
-8.86703e+06
-3.80073e+06
1.80206e+06
-1.79447e+06
5.50012e+06
37331.4
-3.03401e+06
1.13028e+07
-1.12693e+07
7.33095e+06
5.40886e+06
-5.37279e+06
-4.71439e+06
4.73883e+06
925241
-921792
2.01875e+06
6.55741e+06
-1.10743e+06
1.11244e+06
-6.27882e+06
6.31439e+06
-2.20619e+06
609915
2.88287e+06
5.41506e+06
1.53679e+06
1.31717e+06
8.75676e+06
-8.72739e+06
8.06831e+06
-8.03458e+06
-1.17802e+07
1.18144e+07
-3.00199e+06
-3.67718e+06
3.6511e+06
7.69246e+06
-7.65773e+06
-3.31231e+06
-116774
117996
-1.47737e+06
-5.54094e+06
4.0177e+06
-3.97808e+06
-8.46289e+06
2.11928e+06
-4.4517e+06
-9.53826e+06
9.57166e+06
-2.95825e+06
-4.2499e+06
4.27688e+06
209650
2.87437e+06
-284242
-5.29256e+06
-7.8093e+06
7.83823e+06
-759188
-3.58895e+06
9.41539e+06
-5.98251e+06
6.00842e+06
1.87615e+06
8.05633e+06
-8.02308e+06
104633
-2.62671e+06
-2.35398e+06
636839
-1.88266e+06
688866
-7.53139e+06
7.56534e+06
7.22194e+06
-7.18848e+06
-1.15039e+06
-9.61171e+06
9.64525e+06
-966200
1.31571e+06
971024
-3.43725e+06
3.45672e+06
3.6133e+06
-3.07482e+06
1.66372e+06
767225
-3.6191e+06
2.73992e+06
7.19555e+06
-7.16213e+06
-1.81036e+06
-3.74958e+06
5.79102e+06
-2.59642e+06
-8.07671e+06
-6.43596e+06
-2.27568e+06
1.69093e+06
690044
1.30418e+06
-1.03778e+07
1.04112e+07
-9.83032e+06
9.86339e+06
247613
507138
-503668
-4.16934e+06
-2.03391e+06
3.64401e+06
-408982
970119
-7.31093e+06
-748314
404338
-1.00943e+07
1.01272e+07
-2.36455e+06
687420
7.71096e+06
4.42128e+06
-4.40195e+06
-6.6865e+06
8.10991e+06
2.01594e+06
5.71181e+06
2.31979e+06
-5.03384e+06
647630
-570596
-2.22345e+06
67715.1
-1.03352e+07
1.03675e+07
572919
-573549
2.74858e+06
537372
6.04782e+06
-6.01987e+06
2.62403e+06
-1.88999e+06
2.63357e+06
-6.49944e+06
6.53505e+06
7.83488e+06
-541075
5.48645e+06
-3.57638e+06
176213
-6.29211e+06
270543
-3.7367e+06
-44782.8
351556
2.60173e+06
288370
2.66252e+06
-4.61529e+06
9.94541e+06
-9.91061e+06
-4.65393e+06
4.68652e+06
2.76884e+06
-2.73184e+06
1.0774e+06
-5.47144e+06
4.59006e+06
-4.36981e+06
4.39101e+06
-7.64628e+06
3.08569e+06
-251170
4.57464e+06
-4.4041e+06
-2.89842e+06
-1.32687e+06
-400473
404652
-4.26568e+06
4.30511e+06
-1.29845e+06
1.30265e+06
5.7589e+06
-6.13318e+06
2.63838e+06
-1.58023e+06
-3.06667e+06
2.92193e+06
76002.3
-313593
-460579
-2.68437e+06
6.1321e+06
-244438
1.31089e+06
5.62158e+06
6.8149e+06
-6.80977e+06
4.40404e+06
-309472
-1.24014e+06
7.78741e+06
-7.75305e+06
7.52533e+06
-7.49108e+06
-3.88624e+06
-1.31852e+06
-2.63092e+06
-3.49709e+06
3.55358e+06
3.34974e+06
-2.83087e+06
-850146
-2.75015e+06
-1.73986e+06
1.75946e+06
-930971
-929594
295380
-292984
1.26545e+06
-5.30941e+06
5.97235e+06
-1.39892e+06
-5.42309e+06
5.44995e+06
-8.61694e+06
5.7508e+06
-5.71398e+06
91299.6
-90682.1
3.16099e+06
8.00672e+06
-7.97313e+06
15732
-3.76862e+06
81052.3
121661
-2.10703e+06
2.12301e+06
-6.98031e+06
7.01419e+06
-1.94722e+06
624231
5.34468e+06
9.56318e+06
-9.5325e+06
8.29411e+06
-8.26262e+06
463093
-5.42968e+06
5.45831e+06
3.92894e+06
2.75804e+06
-8.61398e+06
8.64775e+06
1.15033e+06
-2.8913e+06
-3.3507e+06
1.32864e+06
38546.8
-38125.7
-6.26454e+06
6.30003e+06
-5.17825e+06
5.21506e+06
1.08426e+06
-1.08061e+06
-2.42379e+06
555570
-553807
-5.1487e+06
-7.0944e+06
3.23879e+06
5.84821e+06
-5.81162e+06
703767
-5.91324e+06
699520
-604805
-6.55084e+06
-6.04582e+06
6.072e+06
-3.0059e+06
-1.63492e+06
-6.55231e+06
-1.02875e+07
1.03194e+07
5.95976e+06
7.0373e+06
-7.00438e+06
5.29411e+06
-5.25745e+06
24351.4
-23906.9
3.47629e+06
4.03711e+06
2.4114e+06
9.30329e+06
4.02521e+06
4.22061e+06
-3.43515e+06
-3.32477e+06
9.5014e+06
-9.46817e+06
497240
8.39635e+06
-8.36231e+06
-3.64387e+06
-4.8075e+06
4.8378e+06
-8.01864e+06
3.54417e+06
-8.78428e+06
8.81718e+06
-7.24717e+06
4.04019e+06
6.00381e+06
2.93707e+06
2.79976e+06
-7.03799e+06
7.07246e+06
3.2165e+06
-3.1943e+06
-1.75855e+06
-257178
7.81725e+06
2.95054e+06
-785658
-3.99631e+06
4.03638e+06
-1.58512e+06
-1.07274e+07
1.07603e+07
-8.51457e+06
8.54729e+06
688370
-1.69234e+06
1.70738e+06
9.27109e+06
-6.4409e+06
4.52125e+06
-790767
-8.27492e+06
3.12649e+06
8.86745e+06
162688
916249
-246729
-3.25778e+06
-4.77862e+06
5.81716e+06
-5.7803e+06
796754
-1.13749e+07
1.14088e+07
5.83616e+06
-5.80274e+06
-4.25875e+06
-2.46963e+06
-1.49867e+06
-904504
5.47721e+06
8.97436e+06
-8.94064e+06
5.64348e+06
-1.96391e+06
1.49091e+06
-1.29836e+06
169329
-168036
-8.98537e+06
-146679
7.21612e+06
-7.18567e+06
-3.52709e+06
3.54246e+06
-2.34454e+06
2.35816e+06
-5.95021e+06
4.96687e+06
-273392
5.97596e+06
-785170
4.30007e+06
-4.26468e+06
-4.68382e+06
-3.87556e+06
3.89577e+06
-4.6052e+06
6.52085e+06
-6.51909e+06
-1.22413e+06
2.41478e+06
-2.12529e+06
3.55766e+06
590528
-1.2546e+06
-3.05126e+06
-9.34853e+06
9.38173e+06
4.98604e+06
-4.95617e+06
4.98092e+06
-1.15392e+07
1.15735e+07
4.04894e+06
3.00047e+06
-7.2623e+06
7.29187e+06
1.9919e+06
3.68561e+06
1.90822e+06
4.37719e+06
-2.15078e+06
6.47442e+06
4.46347e+06
-4.44165e+06
1.24861e+06
1.61531e+06
-1.60997e+06
-1.06089e+07
1.06408e+07
-4.95481e+06
-5.49139e+06
2.71665e+06
-3.7688e+06
5.51484e+06
3.89326e+06
212871
-211764
7.22628e+06
-7.19211e+06
338423
-3.51143e+06
4.37904e+06
-4.39332e+06
-4.58451e+06
35234.2
-34772.2
5.9161e+06
-7.29212e+06
-1.85333e+06
955192
-7.81273e+06
-5.02165e+06
5.05926e+06