/*--------------------------------*- C++ -*----------------------------------*\
| =========                 |                                                 |
| \\      /  F ield         | OpenFOAM: The Open Source CFD Toolbox           |
|  \\    /   O peration     | Version:  v3.0+                                 |
|   \\  /    A nd           | Web:      www.OpenFOAM.com                      |
|    \\/     M anipulation  |                                                 |
\*---------------------------------------------------------------------------*/
FoamFile
{
    version     2.0;
    format      ascii;
    class       volScalarField;
    location    "1000";
    object      sigmayz;
}
// * * * * * * * * * * * * * * * * * * * * * * * * * * * * * * * * * * * * * //

dimensions      [1 -1 -2 0 0 0 0];

internalField   nonuniform List<scalar> 
27023
(
-1.75268e-14
-9.60171e-14
-9.25776e-14
7.24027e-14
0
7.49052e-14
-1.77926e-12
-4.2869e-13
2.84069e-14
-6.81416e-14
5.2024e-13
-2.25223e-13
-4.92378e-14
-1.23576e-14
1.37944e-12
-3.29876e-13
-1.68231e-13
0
-7.76498e-13
0
4.21143e-13
-4.50916e-13
-1.32121e-12
-6.20369e-13
-1.10238e-13
-2.25386e-13
1.14214e-13
8.43613e-12
3.13077e-13
2.56299e-12
-2.16958e-12
-8.59822e-13
1.69996e-12
9.25198e-13
1.68942e-12
8.29032e-13
-6.05048e-13
1.20968e-12
-6.78043e-14
-5.47432e-14
-5.06707e-14
-7.55722e-15
-2.18668e-12
-7.56635e-14
-7.52087e-14
-5.911e-13
-9.06125e-13
7.52408e-13
7.51548e-13
4.90708e-13
-4.48336e-13
-7.43255e-14
4.33792e-13
1.02061e-14
4.02998e-14
1.45508e-12
3.08179e-12
1.29722e-12
8.10692e-13
1.7034e-13
-9.2655e-14
2.82964e-12
-7.17074e-13
8.8459e-12
-6.94845e-12
4.28705e-13
-2.28671e-12
8.02629e-14
-4.1327e-13
-9.86089e-13
0
-2.09645e-12
1.15843e-12
1.55241e-12
3.0051e-12
1.47608e-12
2.70522e-14
2.13623e-14
2.87118e-12
1.91353e-12
7.76411e-13
-1.1922e-12
-9.34822e-13
4.83084e-13
1.62013e-12
-6.88304e-13
5.88573e-13
-2.37631e-13
-1.66069e-13
1.06371e-12
1.76914e-11
6.59392e-14
-7.72323e-14
3.03662e-13
-5.21547e-14
-1.28335e-12
2.47109e-13
3.00931e-13
-1.54781e-12
2.8235e-12
-2.97824e-12
7.31667e-12
1.35333e-11
6.4257e-13
4.72145e-13
-1.03539e-13
7.06704e-16
-5.20122e-13
-6.82577e-13
-3.41403e-12
-1.72808e-12
6.86134e-13
1.56627e-13
2.17118e-12
9.24855e-13
1.1842e-12
1.84755e-12
9.91894e-14
6.93525e-14
-3.08348e-13
-2.36424e-13
-6.01687e-13
-3.26415e-13
-9.99209e-13
1.32082e-12
2.52499e-13
1.18659e-13
1.32253e-13
2.16299e-13
1.19972e-12
3.64786e-12
3.01596e-14
1.65626e-14
-6.10398e-14
-1.76833e-12
-4.46178e-12
1.02001e-12
7.1769e-13
-2.3484e-12
-1.50126e-12
-5.99133e-13
1.4652e-12
-9.59354e-13
1.0314e-12
-2.30268e-13
1.79785e-12
-5.25905e-13
1.54903e-12
1.30438e-12
1.89762e-13
-6.83425e-14
-5.3098e-13
-1.84036e-13
-2.14924e-12
-2.58114e-13
3.70057e-13
3.30147e-12
-2.15729e-12
-3.75157e-12
-1.02571e-12
1.63657e-12
-5.7937e-13
1.38382e-12
-4.55951e-12
-2.10601e-13
1.96954e-13
-3.44566e-13
-9.53838e-13
-7.00132e-13
1.29478e-12
1.88047e-11
2.49847e-12
1.91644e-13
1.60636e-11
0
1.32742e-12
-3.89406e-12
-7.17836e-13
2.71207e-12
6.45775e-14
1.34566e-12
-1.46094e-12
1.14906e-12
-2.69155e-12
9.42567e-13
-1.91284e-14
9.48935e-13
1.27209e-12
5.31561e-12
-2.82458e-12
-1.46018e-12
-4.28021e-13
1.06804e-12
-4.75241e-12
-5.0896e-13
1.20858e-12
4.03946e-14
3.8807e-13
-3.12887e-13
1.20008e-13
1.62213e-12
6.80454e-14
-2.97961e-13
2.85168e-12
0
1.10739e-13
5.1007e-13
-1.39132e-12
-2.58684e-12
2.13735e-12
0
7.79226e-16
2.12087e-14
-2.97626e-13
2.42194e-15
3.61713e-14
-8.82499e-13
-1.65711e-13
1.24825e-12
7.63163e-13
-2.28821e-12
-2.18949e-12
5.12578e-13
-3.5846e-14
-5.68174e-12
-7.49743e-13
1.63514e-12
-1.1235e-12
-1.30204e-12
-5.4776e-14
5.67622e-14
-6.21736e-12
-2.26061e-12
-3.94858e-13
-1.04333e-12
1.69414e-12
1.45015e-12
-4.83277e-12
-1.90987e-12
2.08528e-12
2.08685e-12
-5.67693e-13
8.60409e-13
4.04653e-12
7.07849e-13
-2.03748e-13
-4.78668e-12
-2.81433e-13
3.74915e-12
-1.34827e-12
-9.80333e-13
-2.0694e-12
1.52336e-13
1.31365e-13
4.45059e-13
-1.18188e-12
0
-1.79182e-12
-1.49395e-13
-9.1977e-13
-1.67128e-13
4.22566e-13
2.51964e-12
-1.58664e-13
-1.97893e-12
2.7811e-12
-6.49862e-13
1.55718e-12
-3.06834e-13
7.51033e-14
-6.66297e-14
-4.51628e-13
1.35019e-12
1.42599e-12
6.34776e-13
-4.16417e-12
-5.71005e-14
4.37465e-14
-2.89901e-12
-3.67584e-12
-1.53632e-12
1.96355e-12
-1.04218e-11
-2.86947e-13
-1.07155e-14
1.0983e-14
-1.88077e-12
4.28725e-12
4.96963e-14
-1.16651e-13
-3.4905e-12
-2.06772e-13
-1.72425e-12
-6.04399e-13
0
1.36189e-12
2.71517e-12
5.00738e-13
-1.47286e-13
0
2.19664e-14
-2.32551e-15
1.23322e-13
0
1.12234e-15
-1.29483e-14
7.58097e-14
9.45984e-13
-2.8781e-13
-4.3077e-12
3.332e-12
-3.02801e-14
-3.00418e-14
5.88163e-14
9.19758e-14
-9.24113e-13
-2.77161e-12
3.7707e-14
-1.85442e-12
-2.01948e-12
-7.44014e-15
-2.88604e-14
-8.80755e-13
3.34232e-13
-1.81721e-13
5.86937e-13
-3.00325e-13
-3.07402e-12
1.6259e-12
3.56909e-13
2.10645e-13
8.40646e-13
-6.32874e-14
9.12469e-14
-1.27915e-12
-7.7247e-14
2.43699e-13
1.15422e-12
3.31746e-14
3.02882e-13
-3.3048e-13
7.11014e-13
8.05e-12
0
8.8031e-15
-7.52814e-13
1.18218e-13
3.93146e-13
6.14848e-12
2.78041e-12
-2.61415e-12
3.04231e-12
-7.84729e-13
-4.38252e-13
-5.85563e-14
-2.26826e-14
-2.02343e-13
5.09359e-13
3.9476e-12
-1.64661e-12
3.78968e-13
1.21065e-12
3.0253e-12
-5.07242e-14
-5.4461e-13
8.33624e-12
1.06779e-12
-2.28023e-13
-1.56236e-13
-1.56117e-13
-1.17491e-12
2.4867e-13
-1.42633e-13
0
-3.94168e-14
-1.53121e-12
-3.52912e-12
-6.35166e-13
-2.14755e-12
-1.16448e-12
-2.1779e-12
5.47134e-13
-8.48632e-13
2.4592e-13
7.00367e-13
5.14962e-13
8.78575e-12
-1.35083e-12
-3.47789e-13
-2.25936e-14
-1.68211e-13
-8.81612e-12
-5.86501e-13
-8.00909e-12
2.35997e-13
-5.00091e-12
1.59007e-12
-1.15129e-13
-5.17007e-12
0
-7.19812e-13
-6.2206e-13
2.77332e-13
1.90706e-12
-1.01925e-13
4.69977e-14
1.78159e-13
-5.10048e-14
-2.39065e-13
1.53244e-12
-4.47676e-13
-3.82302e-13
6.56719e-15
-1.32149e-14
-5.52551e-12
-2.56728e-12
2.20904e-13
6.49197e-13
-2.69582e-12
-1.83857e-12
0
-1.81144e-12
-7.19063e-14
1.34086e-12
6.49566e-12
-9.66831e-13
0
1.34409e-12
-1.8738e-12
-4.43415e-14
-2.41554e-13
0
-1.52468e-12
3.65019e-12
-7.67766e-13
-9.22769e-13
3.97719e-12
-1.06114e-14
-6.70974e-14
-8.05814e-14
-4.56042e-12
-1.95953e-13
3.30379e-13
-2.14964e-12
-6.91898e-15
-8.80592e-16
-8.43479e-13
1.80663e-12
-3.18102e-13
-1.46816e-13
-1.23891e-13
-1.76668e-13
-1.76273e-13
-4.93349e-13
-4.08147e-13
-1.40922e-12
1.22808e-12
-4.67324e-13
4.49548e-13
1.21096e-13
-4.05844e-14
1.00012e-13
-2.9012e-12
1.30791e-12
5.01541e-12
-2.87885e-13
-1.74079e-12
-5.93225e-13
1.86348e-12
3.61159e-12
7.8196e-12
0
-8.9985e-13
-6.99086e-13
-3.19841e-12
0
-9.88165e-14
7.68435e-12
-4.77396e-12
1.72359e-14
7.9444e-14
2.3636e-12
1.6767e-12
1.37071e-14
-1.77184e-12
-1.47195e-12
2.05424e-13
1.10733e-12
5.06465e-12
-2.405e-12
-8.64915e-13
2.47e-13
-2.08221e-13
1.50599e-12
1.9539e-12
5.14615e-13
5.15282e-13
-4.04949e-14
-1.22259e-13
1.94305e-12
1.90234e-13
7.08208e-14
1.39679e-14
3.56151e-12
-2.53043e-13
-1.36399e-13
1.47302e-12
6.58021e-13
-8.98203e-13
8.85977e-13
6.40419e-13
-6.22139e-13
-7.75593e-13
-1.68991e-13
-7.70187e-13
-8.79908e-13
9.10437e-13
1.98665e-12
6.2692e-13
-9.54686e-13
1.0605e-12
5.2933e-13
-9.88161e-13
-1.416e-12
-8.7221e-13
-1.1142e-12
2.25476e-14
5.43262e-13
7.38849e-13
2.72044e-14
-8.1994e-12
-8.05515e-13
-1.32566e-12
-1.20107e-13
-4.77244e-13
-4.30087e-13
-1.23514e-12
1.10597e-12
2.36707e-12
-3.76913e-13
-4.32797e-13
3.80074e-12
3.09595e-13
-2.20374e-14
-1.22435e-11
7.16122e-14
-1.38593e-13
2.51857e-12
-9.38609e-13
2.10439e-12
4.08075e-14
-1.67954e-12
7.19756e-13
8.04322e-13
-3.07358e-13
4.50099e-12
6.34128e-12
1.47738e-12
2.34617e-14
9.67587e-13
2.57962e-13
-2.97103e-13
-3.70881e-14
7.88458e-13
-2.49359e-12
-1.09677e-13
0
0
-1.85081e-13
1.5286e-14
-5.34225e-13
-4.88583e-12
7.48602e-14
0
6.2429e-13
-1.0549e-12
-5.32967e-14
2.33416e-13
3.33733e-12
-1.94102e-12
5.80651e-13
3.06776e-12
6.3469e-13
0
3.26843e-12
3.20278e-13
9.47582e-13
-4.92673e-12
9.30154e-13
-3.16397e-14
0
4.28205e-12
-1.11011e-12
-1.49216e-12
-2.49545e-12
3.63719e-13
-1.439e-13
-9.41593e-12
-1.51411e-12
-8.58726e-13
1.03761e-12
1.17456e-12
2.14372e-12
-1.38456e-12
7.02105e-13
1.55304e-13
1.73429e-12
3.87513e-13
7.94106e-13
9.65654e-16
1.87491e-15
8.17583e-13
6.68338e-13
2.42334e-12
-7.2558e-13
-1.22112e-11
-1.25776e-11
6.41583e-13
9.58684e-13
-1.97509e-12
-4.85142e-16
-7.01211e-15
1.12845e-15
8.05375e-16
1.30912e-12
-9.44593e-15
2.78807e-14
0
1.00327e-13
-8.03959e-14
-7.99946e-14
1.97053e-14
-1.49715e-13
6.47752e-13
-4.16386e-13
-3.60217e-13
-2.1309e-13
-1.39335e-11
6.85959e-13
5.15945e-14
-3.14648e-12
-4.80875e-13
-1.42345e-12
5.52569e-13
9.51131e-13
1.95462e-12
-3.63246e-13
1.3117e-13
-4.2912e-13
0
-2.09812e-12
-1.08318e-12
1.31948e-12
0
2.35289e-13
-5.68397e-13
-1.19965e-12
1.05125e-13
4.06417e-15
1.04117e-14
1.63597e-12
-2.38602e-12
1.50344e-12
-1.29212e-12
2.16812e-12
1.98999e-12
-5.46528e-13
-7.92303e-13
0
-5.29347e-12
1.18049e-14
-8.80797e-13
1.30846e-12
-6.53895e-15
6.91651e-13
-3.5869e-12
6.40801e-13
3.30062e-12
2.29526e-12
0
-6.9599e-12
-1.38496e-14
-5.32789e-15
-1.57375e-13
9.55998e-13
-1.54273e-13
-6.38167e-13
-3.12865e-12
-4.01232e-12
-4.6276e-12
-1.99871e-12
4.77058e-14
-1.25934e-12
6.61174e-12
3.07114e-12
-9.38567e-14
1.29049e-13
4.04029e-15
1.05042e-12
-8.79575e-14
2.55247e-13
-3.71097e-12
-1.97991e-12
9.89812e-13
3.90191e-14
3.11939e-13
-8.07635e-16
5.1742e-15
-2.27745e-12
-4.9085e-13
-1.9337e-12
-5.06808e-13
-2.03608e-13
3.19801e-13
1.23881e-11
-4.122e-14
-3.52294e-14
0
-2.01121e-12
-3.12332e-12
2.41396e-13
1.74975e-13
4.89458e-14
2.54338e-12
1.93112e-12
-1.95972e-12
-5.9764e-12
-1.27619e-12
0
-8.83042e-13
-3.33381e-12
-3.72093e-13
1.8073e-12
1.12389e-12
7.0225e-13
8.08327e-13
5.60454e-15
8.08687e-13
8.93914e-14
-2.55188e-14
2.24956e-12
-4.48144e-13
-1.72302e-12
-1.30911e-14
-5.41871e-13
-6.52655e-14
4.27478e-12
7.99542e-13
-1.89158e-13
-2.9075e-13
-3.5281e-13
1.00031e-12
2.08487e-12
4.02806e-12
1.76417e-12
0
-2.63662e-12
9.15524e-13
-7.56422e-12
9.92179e-13
-3.36387e-12
9.10881e-14
-1.67061e-13
-2.19705e-12
1.61356e-12
-5.68326e-13
1.33912e-13
1.55686e-12
-7.01793e-13
-2.79107e-12
-2.78079e-15
-2.77877e-12
-5.77311e-13
1.45726e-13
2.6005e-13
1.11827e-12
-2.96764e-12
2.11039e-12
1.70232e-12
0
1.14967e-12
-4.49008e-13
8.01714e-14
0
1.87679e-12
-8.59985e-14
-1.74393e-12
-1.33754e-12
3.69554e-12
8.79544e-13
9.78e-14
0
0
3.23009e-12
1.82034e-12
1.25802e-12
-8.25013e-13
-1.19685e-11
-3.46908e-15
0
1.16231e-12
-1.86439e-12
-5.55785e-13
-9.90047e-13
1.90218e-12
-7.37512e-12
1.61038e-14
-1.40836e-12
1.29492e-12
1.45568e-13
-1.79207e-13
-7.57803e-13
1.69564e-13
2.62177e-14
-3.9472e-12
2.27242e-12
1.05052e-13
1.19272e-12
3.00351e-13
7.7358e-13
-6.56801e-13
-2.07388e-12
-2.14686e-12
0
-2.63217e-12
1.22565e-12
4.01194e-13
-1.24246e-13
-2.38431e-13
-2.50493e-12
2.12901e-13
2.59145e-12
2.22132e-12
4.11027e-13
1.43577e-12
6.58823e-12
-6.71774e-13
-4.42606e-14
2.79569e-13
-8.2301e-13
-3.72543e-13
1.29599e-12
2.74979e-12
0
-1.86929e-13
1.70842e-13
1.17382e-12
-3.67293e-13
1.64468e-12
1.1855e-12
-1.17146e-12
-3.16909e-13
-8.50478e-14
-4.22629e-13
2.10674e-14
2.62457e-12
3.59731e-13
-2.73455e-13
-3.51473e-12
1.86198e-12
-1.74652e-12
-1.45808e-12
0
2.30353e-13
1.10732e-12
6.84713e-12
-3.55618e-12
-1.40156e-12
-5.62448e-15
-1.31429e-14
-4.07672e-13
1.2731e-12
-1.55337e-12
3.93997e-14
9.28108e-13
1.6215e-13
-1.84508e-11
7.52876e-13
-2.62092e-13
3.84539e-13
8.04148e-14
1.82984e-12
8.27784e-13
-5.18629e-13
7.15746e-13
3.18501e-12
-2.29063e-15
-4.79385e-12
-1.19831e-14
-4.75799e-13
0
-2.76334e-12
2.65549e-12
-3.62927e-13
6.6287e-13
-4.29949e-13
4.13816e-13
1.30465e-12
2.95671e-13
2.76451e-13
1.45296e-12
-2.62272e-12
6.68244e-13
-3.3158e-13
-1.29087e-14
-4.20946e-15
4.46319e-13
-1.02328e-13
-1.24135e-12
3.71474e-13
1.64913e-12
9.94747e-13
4.86961e-12
6.93472e-13
-4.58434e-12
-1.19163e-12
1.24907e-13
1.1715e-11
4.21556e-13
1.45734e-12
0
-1.47226e-12
4.88176e-14
-2.44652e-13
1.11791e-12
-3.07312e-12
-1.70743e-13
-2.89676e-14
-2.22922e-13
-1.37977e-12
-4.19974e-12
-3.83142e-12
-6.67074e-13
0
-1.48264e-14
-3.61565e-13
-2.47928e-14
-9.61702e-15
-6.1894e-13
2.32745e-12
-1.416e-12
-4.73413e-13
0
-2.52186e-14
4.64168e-15
1.02776e-12
3.58348e-12
-4.62464e-14
0
-1.16543e-12
-2.36871e-13
-3.90426e-12
-1.46753e-12
-3.25173e-13
-5.56106e-13
-4.11524e-13
-3.18609e-13
4.98293e-12
-8.63541e-14
4.36393e-14
3.53822e-14
-3.62968e-13
3.02992e-12
-2.74699e-12
-1.50288e-12
1.85729e-12
1.81092e-12
-1.26443e-12
-1.22217e-12
-4.81005e-12
3.89401e-14
8.9257e-14
0
-4.40732e-12
-8.00567e-14
1.33673e-12
5.08506e-13
-8.26149e-13
-4.65381e-13
-5.30467e-12
-1.83379e-12
-4.41342e-13
4.04551e-15
3.54428e-12
-5.84781e-14
-5.73775e-13
-6.42244e-12
-3.83605e-13
2.98919e-13
-4.72871e-13
-1.2099e-12
1.02597e-12
-1.84169e-13
4.62069e-14
3.73742e-12
-6.84578e-14
2.68339e-12
0
-1.30089e-12
-9.00519e-13
2.26849e-13
1.36564e-12
-4.17502e-13
7.80074e-14
-6.80399e-12
-1.00812e-12
2.76586e-15
3.04796e-15
3.71245e-13
-2.69279e-15
-3.62975e-12
1.40057e-13
3.6372e-13
-5.96191e-13
1.05752e-13
5.89663e-13
-4.10892e-12
7.79183e-13
2.12923e-12
0
5.02239e-15
4.91531e-15
-4.31993e-14
1.85282e-12
2.44149e-12
6.72642e-14
-9.48316e-13
-1.9686e-12
-1.25479e-13
-1.44445e-13
-2.43708e-12
1.57936e-13
9.85688e-13
8.54088e-15
1.12157e-12
-2.47736e-12
-9.77206e-13
8.94981e-13
-1.88147e-12
-9.05414e-14
-1.2068e-12
5.72751e-13
6.49752e-12
2.85589e-12
1.64111e-12
-4.30666e-12
7.57281e-13
1.95045e-12
-2.12845e-12
1.03032e-13
-4.37333e-13
4.19785e-13
1.32568e-12
-2.32825e-13
6.10117e-13
1.41055e-12
8.94772e-13
-1.33121e-11
-4.74453e-12
3.74186e-12
4.5554e-15
7.40013e-15
2.45076e-12
1.58078e-12
-1.28735e-12
1.74398e-14
-3.47708e-12
2.21308e-13
1.5779e-12
-2.11316e-13
-7.04949e-13
1.02153e-14
-2.31083e-12
4.17078e-13
4.57751e-13
-2.61159e-14
-2.05492e-12
1.47731e-12
1.2609e-12
-1.72322e-12
-2.71932e-12
2.53543e-13
-1.64203e-12
-1.27896e-12
-7.23944e-14
6.03849e-13
1.7979e-12
-3.17618e-12
1.19685e-12
4.91406e-13
-1.92016e-12
2.99052e-13
-4.90115e-12
-7.6816e-13
5.08069e-13
-1.98795e-12
4.64239e-13
-2.0406e-13
-7.36506e-13
-4.04066e-12
7.61167e-13
-7.61851e-13
1.42165e-12
-3.83896e-12
1.11017e-13
1.52799e-14
-6.66771e-14
-3.97166e-14
-2.29244e-13
-2.29687e-12
2.07732e-12
-9.92228e-13
1.59553e-13
-6.17864e-13
-3.8593e-14
-1.87843e-14
7.05656e-15
-4.64663e-13
-1.51088e-12
-3.31203e-12
-6.0646e-13
-8.55258e-13
-5.37572e-15
-3.46133e-15
-2.54019e-13
-7.75314e-13
-8.11449e-12
8.02798e-12
7.80424e-13
2.11918e-12
-6.74221e-14
-1.75918e-12
-1.22282e-11
1.12823e-12
4.11203e-12
-8.02737e-13
1.40894e-12
1.09271e-12
-2.1131e-12
3.93972e-13
-1.4698e-12
4.64758e-13
0
7.4487e-13
3.28258e-14
-1.22089e-12
1.80731e-12
-2.19762e-12
1.114e-12
-2.4645e-13
3.45302e-13
-4.28905e-14
-5.16613e-14
2.82072e-12
-4.93182e-12
-2.42627e-14
2.4438e-14
4.34133e-12
1.06964e-12
3.24169e-14
8.2744e-13
-1.88961e-13
3.10464e-13
-1.36852e-13
2.05183e-12
9.89621e-12
5.77443e-13
3.87199e-13
7.84629e-13
1.48436e-12
1.18889e-12
1.67877e-12
-2.84033e-13
1.10706e-11
-7.35624e-12
-3.83126e-14
1.16119e-12
-3.1298e-12
1.08604e-11
-6.39993e-13
-1.20251e-12
6.54302e-13
-2.8867e-14
-2.86715e-14
6.40664e-12
1.46909e-14
-6.2017e-14
-3.21136e-13
-1.25128e-13
-1.67497e-12
6.48484e-13
1.46633e-12
-4.64868e-13
-7.21198e-13
-2.12201e-13
1.58397e-13
-2.50578e-12
-1.62881e-12
-2.62295e-13
4.82531e-12
-3.48017e-12
2.40836e-14
6.86513e-13
8.70487e-12
5.86734e-12
2.40751e-12
1.27239e-12
-9.58472e-14
1.00909e-13
-1.48594e-12
1.48811e-12
-2.15815e-12
4.09441e-12
3.72985e-12
-1.71167e-12
-1.4623e-12
-1.55449e-13
-2.7657e-13
-2.30619e-14
1.4801e-14
-1.56036e-12
-1.00014e-12
-2.27686e-12
-8.71217e-13
2.35039e-13
2.58083e-14
2.41369e-13
-6.78515e-13
3.67886e-13
1.08517e-12
1.04865e-11
-7.42386e-13
8.2338e-12
1.50574e-13
-2.03602e-12
-4.18187e-14
-1.14708e-12
-1.48094e-12
3.58867e-14
1.32406e-12
-3.77568e-13
7.42129e-14
-1.21788e-12
1.95826e-13
-4.19316e-13
-4.90232e-12
-6.25938e-13
4.21542e-13
1.35639e-13
-1.1217e-12
1.65213e-12
-2.21495e-12
-4.72597e-13
-2.29698e-12
3.00763e-12
-3.34402e-13
-1.53138e-12
-2.1874e-12
7.59905e-13
-5.452e-12
0
7.4001e-13
1.8818e-12
-1.13437e-12
3.94142e-13
3.28045e-12
2.49739e-12
-2.21197e-12
2.45184e-12
4.02329e-13
-1.81855e-12
-3.2243e-12
-9.15112e-13
0
3.49728e-12
0
-7.22663e-13
-2.21723e-14
-6.42097e-14
-2.27898e-12
-3.32764e-14
-1.08926e-12
-7.44809e-13
6.88395e-13
0
0
-1.53867e-13
-1.78977e-13
-2.66196e-12
3.55548e-13
5.85427e-12
-1.01528e-13
1.16025e-12
9.88569e-13
1.59463e-13
1.25301e-13
-2.96236e-14
5.47703e-14
-1.23505e-12
4.78199e-13
0
-7.59796e-13
1.3563e-12
-5.08742e-13
0
1.70423e-14
9.36325e-15
1.69771e-13
-6.38479e-13
8.04705e-14
-8.42899e-14
-4.24559e-14
5.94759e-13
-1.54175e-12
5.88412e-13
-1.07899e-12
-4.1537e-13
-5.33355e-13
1.54658e-12
1.9932e-14
1.75431e-14
0
-1.25404e-12
5.18861e-13
1.35254e-12
0
1.157e-12
7.12918e-13
3.96699e-13
6.62646e-13
3.881e-12
8.24001e-12
-1.36046e-12
2.94519e-12
-2.49565e-13
-9.51941e-14
1.27852e-12
6.05688e-13
-6.17298e-13
0
-2.56507e-12
-1.26313e-12
-2.94493e-12
9.90037e-13
-7.85326e-13
5.35733e-13
7.68279e-13
-1.04755e-12
2.21969e-12
-3.33766e-14
4.02421e-13
8.4652e-13
-1.99e-12
1.83424e-12
-2.45203e-12
-7.99615e-13
7.8075e-13
0
2.17511e-12
-8.90651e-13
-9.75445e-14
-1.28125e-12
2.11653e-12
-1.07673e-13
1.08204e-12
-9.50274e-14
1.94023e-12
6.36573e-13
-1.70434e-13
1.42363e-12
5.19497e-16
-4.05159e-15
-1.0667e-12
-6.98945e-14
-1.20279e-11
5.17138e-13
-6.90079e-13
-1.59937e-13
-2.19852e-12
-2.08522e-13
-7.78342e-12
-2.00558e-12
-4.11323e-13
-3.80034e-13
-6.65791e-13
7.11076e-13
-1.33038e-13
-1.66637e-12
-2.96998e-13
-1.17862e-12
-1.21485e-12
9.10485e-13
2.39437e-13
-1.54616e-14
4.41822e-15
-1.42578e-13
-1.89155e-12
3.69516e-12
-2.38361e-12
-1.3318e-12
5.26219e-13
-9.29298e-15
7.32172e-14
4.95364e-12
-3.76756e-12
3.97557e-13
3.07548e-13
3.50888e-13
2.47656e-13
5.03441e-12
-4.8663e-12
-1.41937e-12
7.1258e-13
6.53204e-13
-2.51889e-13
3.52925e-13
1.72542e-12
4.18642e-13
-5.855e-13
3.77398e-14
-1.53784e-12
1.47156e-12
1.43631e-12
6.18208e-13
-1.80957e-13
9.88704e-14
-1.40649e-12
1.18604e-12
-7.33558e-13
0
3.12927e-12
-2.81918e-13
-2.81907e-13
-1.37858e-12
-2.10924e-13
1.79907e-13
-7.58789e-14
1.33308e-13
2.0364e-12
-1.33443e-13
3.08036e-14
-7.18979e-13
4.01737e-13
-4.55261e-12
-1.04576e-12
-3.26222e-12
3.21432e-14
2.53349e-14
8.94281e-13
-3.35173e-12
0
1.13676e-12
1.49166e-12
3.14049e-14
5.9803e-13
1.14462e-12
1.68183e-12
-6.5619e-13
-8.63888e-13
-1.63754e-14
0
4.38213e-14
6.51238e-13
9.91028e-13
-1.2962e-11
1.70376e-12
2.15005e-12
-8.61715e-14
-7.17369e-14
4.39561e-14
5.93182e-13
-8.39867e-13
-1.84169e-13
1.04353e-12
-9.48703e-13
1.79e-13
-1.16632e-13
-9.85826e-14
-1.20889e-13
-5.21373e-13
-2.56873e-15
3.56837e-15
3.31093e-12
-1.74528e-13
1.12799e-12
0
-8.04379e-15
1.03222e-13
-8.901e-13
-3.75378e-13
1.59645e-12
3.03441e-13
1.58648e-12
-5.64166e-14
-2.9211e-13
2.91936e-13
0
1.93525e-13
1.69328e-13
-9.76794e-13
-1.88251e-12
2.00893e-12
5.25662e-14
5.7675e-13
3.16821e-12
4.99819e-12
-9.7227e-13
-1.75302e-12
-1.09997e-12
1.09927e-12
-6.92286e-12
-6.64314e-13
3.82391e-13
4.86605e-13
-3.78756e-12
-8.733e-12
3.08309e-12
-2.67037e-12
2.52132e-12
9.15081e-13
2.24186e-13
8.36313e-15
-1.48401e-13
0
-4.72591e-12
-2.95955e-13
1.01561e-12
-2.78037e-14
-9.87688e-13
6.4483e-13
-1.66669e-11
-1.45017e-12
5.0804e-13
-3.2434e-13
-1.8055e-12
-1.02063e-12
1.00553e-12
1.20209e-13
-1.2421e-13
8.6312e-13
-3.10218e-13
2.99659e-14
1.03506e-13
8.53313e-13
4.29461e-13
-1.22188e-12
-4.73737e-13
-6.30381e-13
-2.43586e-13
-2.10738e-13
-5.60684e-13
-1.67385e-12
-2.7118e-12
1.86425e-12
-4.2585e-14
-4.34417e-14
-2.1337e-13
5.52867e-13
-5.31663e-12
7.21734e-12
0
3.22549e-13
-3.22076e-13
1.75904e-12
5.21291e-13
-6.261e-12
-1.64837e-13
-1.28699e-12
-6.4102e-12
4.55005e-12
2.29784e-15
1.09207e-12
-3.45048e-12
-2.4778e-12
3.08798e-12
-1.5987e-14
4.21545e-14
8.10609e-13
1.18711e-12
4.60674e-13
0
-7.92253e-13
-3.7957e-13
9.53963e-13
1.43627e-14
1.03629e-13
-1.33092e-12
-5.43295e-14
-1.01809e-13
-3.41907e-13
-1.32146e-12
7.08347e-13
3.8608e-12
1.60676e-13
-6.516e-13
1.10347e-12
2.60038e-12
-2.71855e-12
-5.35622e-13
-6.82277e-13
-6.82369e-13
-2.22615e-14
8.25716e-15
1.32845e-12
-1.92523e-13
4.82644e-13
-1.86515e-13
9.12604e-14
1.25351e-13
3.59504e-13
3.67781e-14
-2.60242e-12
-1.38928e-11
-8.09375e-12
1.0304e-12
4.2773e-12
-6.47408e-13
-4.38801e-12
-3.40078e-12
-1.0412e-12
-2.82279e-12
2.66958e-13
2.67082e-13
9.96038e-12
0
-1.30733e-12
-7.5611e-13
-1.29803e-12
-1.34583e-12
3.18717e-14
-4.12572e-13
-1.52324e-13
-5.65955e-13
-6.97932e-13
-8.54077e-13
-2.12313e-12
-2.28735e-13
2.49612e-13
-5.86835e-13
-4.34844e-13
2.86926e-13
1.44325e-13
1.04733e-13
4.22088e-14
-1.09166e-11
1.20383e-13
-3.4575e-14
6.59071e-13
6.23502e-14
-9.48336e-14
-2.65197e-13
-5.20995e-13
-1.15628e-12
0
2.60991e-12
-3.6635e-12
-1.08324e-13
-2.34219e-13
1.8364e-12
-2.17721e-12
-1.25073e-12
4.69548e-12
4.09751e-16
-3.40345e-13
-1.22961e-12
8.90723e-13
8.52677e-13
2.82948e-13
4.28279e-15
-7.53456e-13
-4.25602e-15
6.23645e-13
1.44827e-12
-6.20223e-13
3.99722e-13
-5.0819e-13
0
2.26396e-12
-1.54445e-12
-6.40399e-14
-2.11934e-13
1.52022e-12
-3.61761e-12
-1.2099e-13
6.11515e-13
-2.32424e-14
-9.12528e-15
-1.98898e-14
5.47546e-13
-1.04929e-12
2.77177e-14
-7.70345e-13
-1.61565e-12
-1.18052e-12
4.94664e-12
4.12848e-13
1.16933e-11
-1.30258e-12
-1.63544e-13
4.74256e-12
6.50901e-13
2.02648e-13
9.3299e-13
-2.64952e-13
1.19907e-14
-7.91467e-14
-1.71995e-12
4.01019e-14
-2.09595e-12
-1.87745e-13
5.01947e-13
-4.51858e-12
2.61363e-12
3.57626e-12
-5.84791e-14
-4.5038e-14
-4.08866e-13
9.72824e-13
-2.67812e-13
-5.37207e-13
3.01707e-12
-6.53232e-13
-1.48618e-13
7.70832e-13
-2.65669e-12
-1.30636e-13
-1.58315e-13
7.06396e-15
2.01326e-13
-2.42326e-12
-5.94103e-13
2.12586e-13
-6.3396e-13
-1.23179e-12
6.51495e-12
3.29993e-15
2.05939e-14
-1.05484e-11
-8.40116e-14
-1.21625e-12
-6.74047e-13
-9.41107e-13
0
-2.06894e-12
-2.24619e-12
1.12723e-12
1.12809e-12
-3.39243e-14
0
-6.40726e-14
-1.07689e-11
-3.45072e-13
-1.28434e-12
-7.18063e-12
1.21289e-11
1.58776e-14
4.23888e-13
9.84626e-13
-7.42678e-13
8.92351e-13
-4.42885e-14
-1.19986e-14
-3.67777e-13
-1.55088e-12
1.55055e-14
-4.11237e-12
-1.31901e-12
8.44486e-14
-4.15374e-13
1.0963e-12
0
-6.13782e-13
3.21881e-12
-1.06845e-13
9.57858e-13
0
-5.71008e-12
-1.44497e-13
1.43683e-12
4.26686e-13
2.47014e-13
1.3107e-12
-9.41614e-13
-1.35481e-13
-1.15991e-13
8.08454e-13
-9.34071e-12
4.26076e-12
0
-1.00055e-12
-3.77649e-13
-9.14136e-13
4.18083e-12
1.44518e-13
-5.88837e-13
2.24546e-12
-2.34578e-15
-6.08756e-15
-6.00117e-13
2.10364e-12
1.49262e-12
2.93879e-13
-3.2804e-12
1.97392e-13
-5.4991e-13
1.33598e-12
1.59457e-12
-2.12314e-13
-2.67525e-12
1.36923e-12
8.15803e-13
0
6.51991e-13
-2.99473e-12
-1.20214e-13
-1.45526e-12
-1.24983e-12
3.28603e-12
3.38262e-12
3.73435e-13
-2.45891e-12
7.92496e-13
4.40301e-13
1.09058e-13
4.46115e-13
-2.34835e-13
-2.0775e-14
-2.50714e-12
0
-5.25306e-13
5.51249e-12
-5.16508e-12
-8.41093e-13
5.24272e-13
2.76423e-12
-4.14629e-13
-3.93208e-13
0
0
-6.72762e-13
1.23175e-12
1.73058e-12
-3.02435e-12
1.37746e-12
-2.90719e-14
2.20939e-12
-2.36983e-13
1.62939e-13
5.58726e-13
1.65057e-12
1.756e-12
1.7575e-12
3.83783e-13
1.41444e-12
-1.32483e-12
-1.76085e-13
1.72774e-12
7.03165e-13
2.32477e-12
3.24976e-12
-2.39815e-12
-2.35303e-12
-1.46984e-12
-1.21774e-12
-1.89296e-12
-2.79011e-13
8.12859e-14
1.93079e-12
4.78149e-13
0
-1.48401e-12
-1.13783e-12
-1.72037e-12
-1.18278e-12
-3.09832e-12
-6.13351e-13
-1.42845e-12
1.97061e-12
1.93167e-13
-3.70338e-13
0
-1.02208e-12
-1.29312e-15
-2.30155e-12
4.16934e-14
8.28426e-13
-2.16492e-12
-2.70877e-12
-9.07941e-13
2.69912e-13
0
3.91242e-13
8.56392e-13
-4.00835e-13
-1.51866e-13
1.08451e-14
2.39492e-14
2.12703e-13
2.69315e-13
-3.86965e-13
7.63564e-12
4.15685e-13
3.3276e-13
-5.11685e-13
8.23496e-12
-2.30747e-12
-3.07434e-13
1.77076e-15
-6.30432e-15
-3.6895e-12
4.7718e-12
-8.64857e-13
-1.03491e-15
2.11593e-14
-8.78084e-14
5.16494e-14
-1.83125e-12
-1.00277e-13
6.87486e-13
-1.56535e-13
1.2678e-13
-1.02541e-12
1.77858e-14
-1.55206e-14
-9.90724e-13
-1.32104e-12
8.19626e-13
3.70003e-12
-6.53595e-14
-8.15132e-13
-1.38272e-12
0
1.22578e-12
2.51883e-13
-4.58505e-12
-3.49152e-13
1.28975e-12
1.58333e-12
-4.59175e-12
-2.16863e-13
-9.5201e-13
-1.35111e-12
-5.46294e-13
-1.05037e-12
-6.93373e-13
-6.73771e-12
-7.6604e-13
-1.64911e-12
5.68317e-12
-2.45978e-12
-6.08534e-13
5.16651e-15
-2.14147e-15
-5.14472e-15
-2.55308e-12
-1.8039e-14
-2.06496e-14
6.86716e-14
0
0
-1.36266e-11
-1.04419e-12
-1.85537e-12
0
-4.44917e-12
5.29539e-12
-1.31931e-12
2.1652e-13
-5.61594e-12
-7.08773e-13
5.01096e-13
3.16654e-13
-2.82755e-12
7.0004e-13
5.31853e-12
-5.18992e-12
-5.73125e-13
-1.1046e-12
1.29241e-13
5.18651e-14
5.13649e-13
-6.38228e-12
-7.34131e-12
0
-1.07609e-13
3.42391e-13
1.03908e-12
4.2797e-13
-3.49582e-12
-2.65295e-13
2.9438e-12
7.2626e-15
-2.77794e-12
-5.00964e-13
-5.33194e-13
1.43975e-12
2.42462e-12
-1.43235e-13
-2.52907e-12
3.1256e-12
2.25032e-13
-1.65878e-13
1.7296e-12
-1.31956e-12
6.62754e-13
-5.09662e-13
0
-9.60316e-15
5.57654e-13
-4.38385e-13
-1.58423e-12
4.01771e-13
-7.64553e-13
-3.92411e-13
3.48267e-13
1.7161e-13
-2.00272e-12
2.57049e-13
2.96978e-12
-7.79067e-13
-3.80515e-13
-2.30999e-12
-2.6971e-13
6.96831e-14
1.38575e-12
1.27872e-12
-7.06372e-14
4.87258e-15
7.04706e-15
-8.26491e-13
-2.72112e-12
-3.00449e-12
1.62854e-12
1.40487e-12
4.49286e-14
-4.86875e-14
0
1.1063e-12
2.79908e-13
-1.16297e-12
1.30238e-12
8.33999e-12
-1.14892e-12
-4.75709e-13
-1.45247e-12
-8.45149e-12
1.73706e-12
1.52155e-12
-1.60997e-13
3.28024e-14
-1.34808e-14
1.52643e-12
7.68168e-13
6.97985e-14
-1.19862e-12
-4.90358e-13
1.73353e-12
-6.56756e-13
-1.65924e-12
1.52294e-13
3.52154e-14
-3.82238e-14
-7.57945e-14
0
-1.70313e-12
8.40102e-15
2.30644e-14
-1.76518e-12
-9.66149e-13
0
0
1.81134e-13
-2.0938e-12
-2.77878e-12
-6.80756e-13
4.13883e-13
4.13494e-13
-8.02537e-13
4.61038e-13
5.53512e-13
-9.74629e-13
-7.94942e-12
-2.97608e-13
6.19643e-13
-9.15454e-13
1.04203e-12
-6.78598e-13
1.52911e-14
3.33046e-15
-5.12188e-12
3.43204e-12
-8.18057e-13
-3.97452e-13
3.98192e-12
1.97394e-12
5.84238e-13
1.11665e-12
-1.35706e-12
3.25792e-13
9.95579e-13
6.74333e-13
5.94097e-12
-1.52149e-12
-5.58664e-12
-2.0892e-12
-1.681e-13
-6.9189e-13
3.5897e-12
-1.29598e-12
7.62936e-13
-5.73742e-13
6.67526e-14
7.17763e-13
1.75185e-12
-1.77406e-12
7.11335e-12
5.11128e-13
5.35847e-13
-1.6236e-12
1.40593e-13
-1.29648e-12
-1.64418e-12
-1.90489e-12
-2.84566e-13
2.36818e-12
5.89402e-12
-1.03753e-12
-9.37921e-13
-1.4826e-14
4.75188e-15
2.82817e-16
-3.40375e-14
1.09813e-13
-6.59793e-13
-7.46698e-14
-1.60507e-12
-2.33047e-11
1.1342e-13
6.98984e-13
-8.42708e-13
3.9296e-12
1.15463e-13
5.93218e-14
-1.37392e-14
-2.69708e-12
-3.41191e-12
2.61991e-12
-3.53582e-12
1.84933e-13
-4.34332e-12
-9.57336e-13
-1.03455e-12
5.10327e-13
6.75528e-13
8.0746e-13
-8.90236e-13
1.762e-14
1.73687e-14
-2.80952e-12
-8.88043e-14
2.72259e-13
-1.03772e-12
1.39081e-12
-1.30921e-13
1.26059e-12
1.16633e-12
0
1.32548e-12
-7.54409e-13
4.56443e-14
1.86271e-12
0
-7.1358e-13
3.24687e-12
7.89267e-13
-2.21232e-12
1.26455e-12
1.48167e-12
1.06007e-12
-3.61611e-13
1.52388e-12
6.90887e-14
-1.8064e-14
6.98597e-13
-1.12361e-12
-1.60219e-14
3.22642e-15
1.31598e-12
3.72946e-14
-9.56845e-14
4.15899e-13
1.14519e-12
1.16491e-13
-4.01317e-14
2.2523e-13
-9.57314e-13
7.77353e-13
3.96772e-13
-2.01629e-13
9.34121e-13
-5.02592e-13
-2.92163e-12
-9.82188e-13
3.33973e-12
-4.15374e-13
-1.18054e-12
0
1.40903e-14
1.39388e-12
3.23004e-12
1.89251e-12
2.62296e-12
1.81947e-12
-2.49299e-12
4.59953e-12
-5.3014e-12
-4.19641e-13
-4.90603e-13
5.04808e-14
4.38645e-13
2.50437e-13
-4.44989e-12
-3.1825e-13
4.46779e-13
3.94095e-13
-5.25676e-13
1.70257e-12
7.30025e-12
4.22669e-14
5.44044e-14
3.15793e-13
-3.16157e-13
3.04678e-14
3.00896e-14
1.5486e-12
2.69576e-13
-4.96817e-13
-5.59043e-14
-2.8691e-12
-9.51276e-13
1.97014e-12
-9.89132e-13
3.96148e-14
-5.70204e-12
-2.71413e-13
-7.65823e-13
9.21423e-13
-4.11322e-13
-8.15424e-12
8.44759e-14
-1.48463e-12
-4.82839e-14
-1.41482e-12
1.65066e-12
0
-1.63734e-12
-2.57693e-12
9.19277e-13
3.66385e-12
6.03628e-13
0
-1.47502e-12
1.30327e-12
-3.65336e-12
-1.81214e-12
-6.1201e-14
-5.41209e-12
-1.63802e-12
1.02148e-12
3.51785e-13
-2.13121e-14
-2.40092e-14
-8.19406e-13
-3.06488e-13
-4.18179e-13
-2.07927e-13
-4.98673e-13
-1.10253e-12
-6.6906e-13
7.10673e-13
1.70532e-12
0
8.02515e-15
-8.02646e-12
-7.8788e-14
7.49984e-13
-1.00712e-12
-3.61833e-12
1.7589e-13
1.47599e-14
2.16405e-12
-3.1368e-13
2.70574e-12
1.61425e-12
-1.203e-12
1.36695e-13
3.46087e-13
7.91838e-13
-1.6992e-13
9.19025e-13
4.45596e-13
7.19872e-13
1.45673e-12
-3.42652e-13
7.64991e-13
1.04267e-13
2.47549e-13
1.1975e-12
-1.36461e-14
4.25347e-12
-1.47747e-13
4.81332e-13
1.61233e-14
9.92035e-15
1.61077e-12
3.22762e-13
-2.67402e-13
-1.20117e-13
-4.37822e-14
-2.91094e-15
1.26898e-12
4.86588e-14
1.99789e-14
2.46302e-12
-2.96792e-12
-3.79764e-13
-2.07015e-12
0
1.00067e-13
-1.18625e-12
1.0173e-12
-4.18255e-13
-2.11294e-13
1.5972e-13
3.2937e-14
-2.86669e-12
1.78751e-11
-1.32064e-12
-2.26539e-12
-2.13571e-12
-2.5811e-12
-1.99855e-12
3.92077e-12
-7.89022e-13
-7.0271e-13
-1.7798e-14
1.42137e-14
9.8407e-13
-9.55564e-14
-1.0999e-12
-2.11199e-12
2.38702e-13
-3.20773e-13
6.13191e-13
-6.36276e-13
4.19342e-13
5.39089e-13
1.54653e-13
1.22517e-12
-1.37417e-12
2.13958e-12
-3.13129e-12
5.76639e-13
-4.33894e-12
2.17915e-12
-1.09259e-12
-1.97781e-12
-4.34948e-13
7.5192e-13
-7.89561e-13
3.24804e-13
-6.34695e-12
1.48825e-12
2.53918e-14
-1.52994e-13
-7.92063e-14
6.01254e-14
-6.28861e-12
5.44269e-13
-8.98362e-13
-1.69104e-12
-6.24722e-12
1.61118e-12
-8.10568e-13
-1.1333e-12
-1.22572e-12
-6.97904e-13
0
-2.56901e-12
-3.70579e-12
0
3.08947e-12
1.15601e-12
1.77644e-12
-3.69428e-12
5.60285e-13
5.32875e-12
1.86103e-14
1.89667e-11
5.84875e-14
3.34405e-14
1.04351e-12
-4.49403e-12
-4.45242e-13
-1.06699e-12
1.01552e-12
-9.7695e-13
-2.02943e-13
4.95834e-14
-1.76638e-12
4.32312e-13
3.69207e-12
-1.22174e-12
-2.48912e-12
-1.48024e-12
2.89294e-12
2.85034e-13
2.09889e-12
-3.28821e-12
4.78281e-13
1.66139e-13
5.67969e-14
2.44348e-14
-1.3402e-12
-5.09692e-13
0
-1.99353e-13
6.07492e-14
6.02939e-14
-7.84058e-14
-7.83641e-14
-2.72862e-14
-2.4481e-12
3.91866e-13
0
0
1.22188e-12