/*--------------------------------*- C++ -*----------------------------------*\
| =========                 |                                                 |
| \\      /  F ield         | OpenFOAM: The Open Source CFD Toolbox           |
|  \\    /   O peration     | Version:  v3.0+                                 |
|   \\  /    A nd           | Web:      www.OpenFOAM.com                      |
|    \\/     M anipulation  |                                                 |
\*---------------------------------------------------------------------------*/
FoamFile
{
    version     2.0;
    format      ascii;
    class       volScalarField;
    location    "1000";
    object      sigmaxx;
}
// * * * * * * * * * * * * * * * * * * * * * * * * * * * * * * * * * * * * * //

dimensions      [1 -1 -2 0 0 0 0];

internalField   nonuniform List<scalar> 
27023
(
-8.26979e+06
8.30579e+06
5.41369e+06
-5.39195e+06
-8.32698e+06
8.36334e+06
4.24283e+07
-4.2301e+07
2.08617e+06
-2.07786e+06
3.09364e+07
-3.0831e+07
396819
-403978
-1.208e+07
1.04391e+06
731258
-2.59901e+07
2.61304e+07
1.91692e+07
-1.90352e+07
4.22058e+07
-4.20778e+07
2.14975e+07
-2.13928e+07
3.44564e+06
-1.49694e+07
1.55244e+06
-1.47802e+07
1.41056e+07
7.04478e+06
1.91757e+07
-1.90446e+07
-1.9314e+07
-1.19581e+07
1.50418e+07
1.7507e+07
-1.7363e+07
2.01008e+06
-2.0036e+06
-5.36496e+06
5.3873e+06
-9.65323e+06
-7.95141e+06
7.98647e+06
2.57871e+07
-2.56461e+07
2.03068e+07
-2.01778e+07
1.331e+07
1.96175e+07
-1.94868e+07
-1.88368e+07
532.665
-556.055
2.13054e+07
8.69054e+06
1.50834e+07
-7.09795e+06
5.18161e+06
-5.16104e+06
1.28347e+07
2.08397e+06
2.26897e+06
-9.35439e+06
6.25874e+06
1.70686e+07
4.25629e+06
-1.52475e+07
-9.01965e+06
1.67643e+07
-1.66199e+07
2.93089e+07
-2.91936e+07
3.88033e+07
-3.86712e+07
86618.7
-85787.8
-4.58394e+07
4.59749e+07
-1.12893e+07
2.9878e+07
-2.97732e+07
2.85353e+07
-2.84203e+07
-4.10451e+07
4.11779e+07
-1.68961e+07
1.61834e+06
-7.44377e+06
7.19901e+06
1.02698e+07
-1.02235e+07
8.58369e+06
-3.72557e+06
-2.14868e+07
2.15895e+07
-1.12682e+07
-7.41252e+06
429179
-1.22094e+07
-7.68681e+06
7.92645e+06
3.44364e+07
-3.43211e+07
1.43963e+06
3.84585e+07
-3.83347e+07
2.10332e+07
1.41045e+07
8.801e+06
3.85354e+07
-3.84118e+07
2.12798e+07
-2.11772e+07
3.91701e+07
-3.90372e+07
9.67548e+06
-1.5663e+07
-1.14541e+07
9.40694e+06
1.03605e+06
-3.24458e+07
3.25488e+07
4.57151e+07
-4.5581e+07
1.00732e+07
-1.0027e+07
3.49862e+07
-3.48709e+07
-6.82306e+06
-949999
969446
-6.49578e+06
8.13123e+06
-4.12105e+07
4.13437e+07
4.04889e+06
2.6852e+07
-2.67119e+07
-3.9662e+07
3.97831e+07
-2.69939e+06
4.10584e+07
-4.0934e+07
-6.53097e+06
-7.00651e+06
1.96404e+07
1.73703e+07
1.7163e+07
-1.70891e+07
2.1212e+07
-2.11275e+07
-1.14362e+07
-1.23647e+07
-1.23501e+07
1.23567e+07
1.22395e+07
2.65304e+07
-2.63907e+07
-2.35358e+07
-9.60557e+06
-1.97617e+07
1.44903e+06
-2.50859e+07
2.51799e+07
-3.60709e+07
3.61857e+07
-8.04387e+06
925094
2.21897e+06
-4.60685e+07
4.62033e+07
-8.10318e+06
8.00254e+06
-1.24725e+07
1.07355e+06
-2.51903e+06
-8.19888e+06
4.25934e+06
-1.73164e+07
-3.78572e+07
3.79756e+07
-1.27429e+07
-2.36465e+07
-2.51887e+07
-2.03403e+07
2.04397e+07
-2.07519e+07
-7.42466e+06
-3.60303e+07
3.61445e+07
-1.08389e+07
1.86744e+06
4.59419e+07
-4.58083e+07
-2.61841e+07
-3.49281e+07
3.50396e+07
-1.46953e+07
1.29448e+07
-1.54581e+07
3.79851e+07
-3.78478e+07
-7.85987e+06
7.89433e+06
-9.6962e+06
-2.60361e+07
3.79392e+07
-3.7802e+07
17006.8
-16763.4
8.34334e+06
-1.03425e+07
-4.71893e+06
4.74132e+06
-1.27366e+07
1.06197e+06
2.65407e+06
-4.05489e+07
4.06804e+07
-6.75922e+06
-3.26726e+07
3.27753e+07
-1.19078e+07
3.5857e+07
-3.57248e+07
2.95799e+07
-2.94674e+07
871170
-869829
1.91994e+06
3.6942e+07
-3.68094e+07
-2.40189e+07
3.57241e+07
-3.55904e+07
3.90661e+07
1.47672e+07
-4.45121e+07
4.4643e+07
1.58363e+07
2.43588e+07
2.48519e+07
-1.98233e+07
9.33683e+06
123919
-1.36636e+07
2.04361e+07
-1.94213e+07
-4.24098e+07
4.25416e+07
-8.89182e+06
-6.70705e+06
-2.59162e+07
-2.65216e+07
3.22295e+07
-2.42665e+07
2.15242e+07
-2.13876e+07
8.71546e+06
1.52221e+06
2.18244e+07
3.67503e+07
-3.6616e+07
4.07112e+07
-4.05867e+07
3.09118e+06
-5.75441e+06
3.21603e+07
-3.20568e+07
1.52032e+07
-9.12045e+06
-1.6944e+07
3.91267e+06
2.38844e+06
-2.54226e+07
2.55171e+07
-2.13698e+07
2.15085e+07
1.74116e+07
-2.19979e+07
4.32062e+06
-4.20941e+06
-15735.1
15559.2
-9.07816e+06
-1.13125e+07
5.36436e+06
1.8635e+07
1.16601e+06
-8.72926e+06
-3.49593e+07
3.50889e+07
-4.04849e+07
4.06158e+07
-1.92041e+07
2.6039e+07
-3.78686e+07
3.80022e+07
679098
3.45117e+06
-3.53131e+07
3.54276e+07
-5.60282e+06
6.40293e+06
-6.37141e+06
1.29661e+07
1.32303e+07
-2.48843e+06
-116637
-596
661.539
451424
-450482
1.74546e+07
-1.98571e+07
1.99936e+07
629483
1.29117e+07
880921
-879559
-1.61318e+07
-1.09859e+07
-8.89873e+06
1.33404e+07
-3.03601e+07
4.14949e+06
1.82468e+07
-2.18761e+07
-7.57551e+06
2.19686e+07
-3.44107e+07
3.85839e+06
1.47684e+07
-1.35958e+07
1.36566e+07
-6.92976e+06
4.57523e+06
3.34614e+07
-3.3345e+07
-2.46868e+07
2.48787e+07
37115.2
-36630.3
-1.41123e+07
8.17921e+06
-8.14314e+06
-1.05762e+07
5.21265e+06
-1.91589e+07
1.91961e+07
3.80094e+07
-3.78765e+07
-15967.4
15848.1
2.57371e+06
-4.42398e+07
4.4374e+07
-2.21543e+06
-1.752e+07
-3.67018e+07
3.6836e+07
-3.92973e+07
3.94166e+07
7.05905e+06
-1.56297e+07
-2.57933e+06
-1.1786e+07
1.18396e+07
-4.37257e+07
4.38587e+07
-7.33277e+06
-2.44699e+07
-9.27527e+06
-2.47065e+07
-2.4723e+07
-1.48203e+07
-1.55915e+07
1.64634e+07
1.24946e+07
-1.63118e+07
4.32651e+07
-4.31355e+07
-1.31609e+07
5.23043e+06
6.80544e+06
-2.49933e+07
-2.064e+07
-1.48494e+06
-1.2912e+07
4.85456e+06
1.76577e+07
1.88327e+06
830592
-3.69755e+06
1.59199e+07
8.40065e+06
-3.57992e+07
-1.69903e+07
2.93215e+07
-2.92093e+07
1.10465e+07
-1.0547e+07
4.90153e+06
-1.22843e+07
1.23408e+07
523292
8.61332e+06
-1.95972e+07
1.24969e+06
1.96679e+07
59302
-59098.4
-6.98901e+06
2.10139e+07
1.62306e+07
2.59172e+07
1.39115e+07
-1.82533e+07
7.99315e+06
-2.27071e+07
6.80401e+06
2.93292e+06
1.89282e+06
-3.41698e+07
-3.68244e+07
3.6956e+07
-3.14203e+07
2.92054e+06
2.36149e+07
-1.24214e+07
3.57138e+07
-3.55796e+07
-2.54715e+07
2.55884e+07
2.56437e+07
2.53931e+06
2.42973e+06
-2.42166e+06
-3.13254e+07
3.13216e+07
2.29399e+07
-2.28036e+07
-1129.42
1135.37
-7.90373e+06
-5.57266e+06
-2.04086e+07
-2.12922e+06
-5.52588e+06
-3.58171e+07
3.59288e+07
-3.50929e+07
3.52038e+07
2.27054e+07
-2.25691e+07
1.98685e+07
-1.97871e+07
-4.84769e+06
196540
-4.93474e+06
-1.95411e+07
9.08679e+06
2.32993e+07
-8.18245e+06
-4.44753e+07
4.46076e+07
-2.14965e+07
1.06011e+07
5.29291e+06
2.88729e+07
2.49394e+07
-1.70442e+07
-6.10127e+06
3.55435e+07
-3.54157e+07
-9.45962e+06
9.52307e+06
6.10388e+06
-6.077e+06
3.64846e+07
-3.63517e+07
989710
5.28941e+06
-6.05961e+06
8.25647e+06
3.42806e+07
3.78368e+06
-3.07584e+07
3.0863e+07
-1.40307e+07
1.7878e+07
1.15815e+06
-2.00593e+07
2.01971e+07
1.0512e+07
-1.04648e+07
1.30554e+07
-2.95932e+07
-1.74297e+07
-1.2528e+07
1.25903e+07
-1.87115e+07
-3.1191e+06
1.77909e+07
-1.76484e+07
-1.49106e+07
4.14475e+07
-4.13242e+07
3.13862e+07
-3.12803e+07
-2.02275e+07
-2.83442e+07
2.84426e+07
-1.00925e+07
-1.42144e+07
3.37372e+07
-3.36015e+07
-2.57956e+07
-3.71649e+07
3.72969e+07
2.09023e+07
-3.37006e+07
3.3823e+07
-2.13698e+07
2.15129e+07
-5.08213e+06
2.24705e+07
-2.23846e+07
-1.64623e+07
-3.41579e+06
-4.06546e+06
-5.57282e+06
2.49821e+07
-2.48762e+07
-4.20982e+07
4.22292e+07
-1.56755e+07
-2.58575e+07
1.49446e+07
1.55858e+06
-1.80541e+07
-1.6548e+07
8.65193e+06
-2.29017e+06
2.29804e+06
-2.99602e+07
-4.07851e+07
4.09167e+07
1.50308e+07
1.65206e+06
-3.39711e+07
3.40892e+07
-1.71572e+07
-2.00522e+07
2.0074e+07
309856
2.60514e+06
-5.99175e+06
-1.41475e+07
-1.33337e+07
1.7474e+07
-1.73312e+07
-1.82818e+07
-382768
2.99222e+07
-2.97865e+07
6.90112e+06
-1.87041e+07
1.88302e+07
-5.41881e+06
1.20625e+07
-1.20092e+07
-3.37857e+07
3.38958e+07
-1.40349e+07
1.40957e+07
2.05362e+07
-1.38252e+07
1.39081e+07
2.00725e+07
-1.74709e+07
1.75456e+07
-1.43347e+07
6.97868e+06
-7.79949e+06
-2.15732e+07
1.65748e+06
-4.3387e+06
-7.56472e+06
-3.41029e+07
2.0185e+07
-2.00821e+07
1.51919e+07
2.05786e+07
-2.04748e+07
-1.41845e+07
-2.79779e+07
2.80918e+07
-5.3719e+06
-1.35466e+06
-1.90756e+07
1.92071e+07
3.50726e+07
-3.49376e+07
2.65424e+07
9.89256e+06
1.60614e+07
2.93121e+07
-2.91854e+07
3.9788e+07
-3.96553e+07
1.22645e+07
-9.81831e+06
4.99019e+06
-5.13125e+06
1.42623e+07
-1.41021e+07
-1.53167e+07
-125991
-230750
233630
127567
-9.72211e+06
376866
-379446
-1.73863e+07
1.74618e+07
-9.18538e+06
9.22706e+06
1.17745e+07
-1.17222e+07
2.59911e+06
2.54103e+07
-2.53022e+07
-2.04525e+07
-9.22848e+06
-2.38681e+07
2.39753e+07
-1.22476e+07
2.77237e+07
-2.76011e+07
-1.60401e+07
-1.20569e+07
2.51144e+07
-1.30396e+07
1.30967e+07
2.471e+07
1.87393e+06
61565.1
-1.13049e+07
-3.47195e+07
3.48436e+07
-3.46103e+06
1.98862e+07
-4.40966e+07
4.42306e+07
164.266
-173.92
2.22991e+07
-2.21721e+07
1.86229e+07
-3.01246e+06
4.4288e+07
-4.41578e+07
-1.28771e+07
-1.99475e+07
3.80122e+06
8.72907e+06
1.71607e+07
1.44645e+07
7.99247e+06
-794064
-5.63443e+06
-2.38263e+07
1.5773e+07
2.27072e+07
-2.14912e+07
-1.11645e+07
-8.684e+06
29726.9
-29709.6
2.79947e+07
-2.78802e+07
1.68077e+07
-1.25955e+06
-9.6886e+06
-3.30118e+06
1.89882e+07
2.12872e+07
-1.99601e+07
-2.09073e+06
1.32065e+07
-1.43516e+07
-5.09269e+06
9.48636e+06
-9.44285e+06
1.79312e+07
2.72677e+07
-2.57281e+06
-1.32949e+07
3.54669e+07
-3.53393e+07
-3.82856e+07
3.84222e+07
-5920.02
5676.87
-1.82192e+06
-2.52914e+06
-1.10135e+07
-1.29268e+06
-1.83412e+07
1.84511e+07
1.16134e+07
1.72938e+06
-1.72485e+06
-4.07194e+07
4.0852e+07
-3.1214e+07
3.14779e+07
-3.1358e+07
-5.67094e+06
2.52225e+07
-1.57651e+07
-9.04945e+06
2.48513e+07
2.82454e+06
3.34272e+07
-3.3293e+07
1.27913e+07
-3.79068e+06
3.93422e+07
-3.92224e+07
-1.3195e+07
-3.57873e+07
-1.05593e+07
3.59059e+07
9.88639e+06
-9.81042e+06
1.80865e+07
1.35119e+07
-1.8732e+07
-736770
-1.89071e+07
-8.79885e+06
3.23268e+07
-6.11621e+06
1.21741e+07
-1.21132e+07
-3.81579e+07
3.82914e+07
9.62403e+06
2.54842e+06
-3.38322e+07
3.39568e+07
-2.08663e+07
1.70656e+07
1.33691e+07
6.70215e+06
1.52237e+07
8.24992e+06
-8.2136e+06
-5.33661e+06
1.90682e+07
-1.89527e+07
-3.77626e+07
3.78962e+07
468725
-1.42891e+07
-2.85939e+06
-3.22785e+07
2.84665e+07
-2.83635e+07
1.41521e+07
1.70438e+06
-9.96022e+06
-2.23263e+07
-9.04327e+06
-1.35291e+07
-5.15617e+06
-1.3557e+07
1.60276e+07
3.85521e+07
-3.84195e+07
3.15142e+07
-3.14086e+07
2.40446e+07
-2.35756e+07
-5.51264e+06
2.58539e+06
3.74654e+07
-3.73325e+07
-2.60543e+07
-2.3545e+07
731477
-9.5719e+06
3.04051e+06
1.50201e+06
-1.49452e+06
-1.00942e+07
-3.96372e+06
4.12172e+07
-4.10924e+07
-981647
1.0456e+07
-2.15608e+06
4.55422e+07
-4.5408e+07
-1.38244e+07
1.38969e+07
-1.60097e+07
-8.38784e+06
8.42648e+06
-5.29163e+06
-2.44912e+06
1.31284e+06
2.32186e+06
3.49839e+07
-3.48501e+07
-4.82762e+06
-1.96794e+07
1.98151e+07
3.91989e+07
-3.9059e+07
-1.31073e+07
1.31241e+07
1.98792e+07
-1.97983e+07
-3.94368e+07
3.95575e+07
4.59652e+06
-2.42512e+07
4.05517e+07
-4.04288e+07
-2.51456e+07
-1.80959e+06
1.97334e+07
-1.9652e+07
3.11085e+07
-3.09726e+07
-2.21517e+07
-3.48452e+07
3.49708e+07
-4.28967e+07
4.30263e+07
2.2243e+07
1.05755e+07
1.52268e+07
6.52171e+06
2.7438e+07
-2.72972e+07
-3.42137e+07
2.15014e+06
2.87699e+06
3.43331e+07
1.10545e+07
1.77504e+07
-1.51508e+07
1.89914e+07
-1.88758e+07
457169
5.11296e+06
-1.8364e+07
2.65991e+07
-2.66073e+07
1.05927e+07
-1.13268e+06
32343.6
-31841.8
-1.3781e+07
-1.58219e+07
-1.25554e+07
4.03812e+07
-4.02584e+07
-2.32921e+07
-1.80675e+07
-2.28418e+07
1.14818e+07
1.90017e+07
-1.89235e+07
-2.40481e+07
9.32121e+06
2.34102e+07
-1.31435e+07
1.34979e+07
2.29375e+07
-2.23637e+07
2.02525e+07
-2.01698e+07
-3.40893e+07
3.4223e+07
2.20909e+07
-7.79021e+06
1.43469e+07
3.23519e+07
-3.22447e+07
-3.12835e+07
3.14165e+07
97846.6
-1.15505e+07
2.75737e+07
-2.74336e+07
-1.57162e+07
3.2181e+06
-3.2066e+06
-1.2466e+07
-1.31608e+07
3.437e+07
-2.04389e+07
-2.15096e+07
-2.532e+07
1.41033e+07
-1.49466e+07
-4.98246e+06
3.95146e+07
-3.93827e+07
-2.03002e+06
550909
6.97034e+06
-1.5161e+07
-6.35161e+06
-3.60442e+06
-2.0621e+06
1.41692e+07
-1.12125e+07
1.07748e+06
5.90897e+06
-1.36713e+07
1.12995e+07
-3.07725e+07
7.80806e+06
-8.02732e+06
-2.34934e+06
2.35787e+06
1.34994e+07
-4.42014e+06
4.44014e+06
-1.07685e+07
-6.04121e+06
2.56298e+07
-2.55244e+07
1.39873e+07
3.23776e+06
-3.22372e+06
-1.14733e+07
-6.47829e+06
1.32247e+07
-1.70888e+07
1.93925e+07
1.23439e+07
-3.63053e+07
1.50183e+07
1.21829e+07
2.05852e+07
8.9294e+06
-8.88966e+06
5.02238e+06
-5.02916e+06
141699
-142336
2.0655e+07
-463035
1.44412e+07
1.12925e+07
-1.4889e+07
1.50352e+07
-2.51862e+07
-4.54378e+06
1.2357e+07
-38017.3
37730.7
-1.37635e+07
-9.39184e+06
-274703
1.74378e+06
-7.1634e+06
2.47242e+07
1.29468e+07
-1.81379e+07
-1.54771e+07
1.56175e+07
-2.88023e+07
-2.26834e+07
525277
2.84255e+06
-1.61993e+07
-2.69227e+07
2.70234e+07
1.16066e+06
-1.14474e+07
-2.76018e+07
-2.47992e+06
2.48887e+06
-1.46439e+07
6.88872e+06
1.49342e+07
-3.51278e+07
3.52585e+07
-6.48155e+06
-1.85307e+07
1.86316e+07
2.4758e+07
-2.46624e+07
1.08244e+07
-1.51181e+07
112207
-111082
-1.23077e+07
683989
4.3779e+06
3.8397e+07
-3.82634e+07
-4.22657e+06
4.20965e+07
-4.19719e+07
2.20746e+06
1.78148e+07
-6.10594e+06
-2.74384e+07
-1.13566e+07
-3.84571e+06
2.75423e+07
2.71689e+07
3.31875e+06
-1.14511e+07
-1.62779e+07
1.64143e+07
1.6039e+07
-1.63937e+07
2.46338e+07
1.22611e+07
1.66848e+07
-3.94576e+06
2.83538e+06
-5.65669e+06
-9.2121e+06
1.12803e+06
3.61949e+06
-5.77061e+06
-3.71579e+06
245873
1.53536e+07
9.39981e+06
-2.04629e+07
-1.49077e+07
-6.87771e+06
-2.53478e+07
2.38425e+07
-2.32388e+07
2.33269e+07
4.74862e+06
-1.80028e+06
-1.46153e+07
1.47589e+07
3.01052e+07
-2.9969e+07
-9.65117e+06
-3.91652e+06
2.02794e+07
-2.58814e+06
2.59852e+06
3.72765e+07
-3.71439e+07
2.5802e+06
596113
-1.2985e+07
-3.69732e+06
-3.00231e+06
-694848
-3.21838e+06
-821667
2.52778e+07
2.47995e+07
-2.46922e+07
1.43903e+07
-1.42723e+07
6.49986e+06
6.17411e+06
3.74128e+07
-3.72787e+07
3.32752e+06
6.63372e+06
1.4621e+07
-5.37045e+06
-2.3066e+07
-9.6764e+06
8.7294e+06
-7.49757e+06
2.73545e+07
-4.2146e+06
-8.41054e+06
3.24623e+07
2.57342e+07
-2.56259e+07
-2.88256e+07
5.09194e+06
1.6576e+07
-1.18261e+07
1.22781e+07
3.15115e+07
-3.14611e+07
-1.28286e+07
-3.32933e+07
-1.58321e+06
1.58794e+06
2.79062e+06
-2.78175e+06
9.53111e+06
1.27463e+07
-1.17012e+07
3.82356e+07
-3.56513e+07
3.57622e+07
5.78409e+06
-5.7569e+06
-6.30984e+06
3.95794e+07
-3.94465e+07
-1.52052e+07
1.50424e+07
-4.23363e+06
-5511.54
5460.39
-1.30098e+07
-6.13797e+06
3.04515e+07
-8.03091e+06
-3.64627e+07
3.65788e+07
1.40244e+07
2.85868e+07
-2.82898e+07
1.1191e+07
7.38913e+06
-980027
1.4863e+07
-1.47631e+07
-3.69987e+07
3.71323e+07
-6.86683e+06
-1.72594e+07
1.73627e+07
-3.48367e+07
3.49675e+07
7.77273e+06
-1.8564e+07
1.54341e+07
-6.08576e+06
1.41652e+07
-1.40933e+07
-1.22535e+07
5.75795e+06
2.6369e+07
-176856
-1.16573e+07
1.17106e+07
-1.57763e+07
7.793e+06
3.19753e+07
3.24796e+07
-3.23466e+07
2.38685e+07
-3.0884e+06
-1.19448e+07
1.14741e+07
4.0513e+07
-4.03911e+07
-1.69184e+07
2.72591e+07
-2.71386e+07
1.66284e+07
-2.60967e+07
-2.04651e+07
2.04611e+07
1.44565e+07
9.86537e+06
803631
-1.05869e+06
-1.96734e+07
6.36961e+06
-5.0265e+06
19311.3
-19411.5
2.60937e+07
3.49289e+06
-3.48042e+06
3.25074e+07
-3.24003e+07
145233
3.96346e+07
-3.95148e+07
-2.6964e+07
2.70602e+07
-4.21305e+07
4.22596e+07
1.09097e+07
3.89632e+07
-3.88301e+07
2.95921e+06
-1.25246e+07
-630370
-1.20263e+07
8.34193e+06
-1.0896e+07
3.0223e+07
-3.00969e+07
-8.36806e+06
8.41107e+06
8.03099e+06
-1.03751e+06
683174
2.42487e+07
4.28967e+06
1.79383e+07
-2.6502e+07
4.17129e+06
-5.26998e+06
1.31514e+06
-1.31231e+06
2.46657e+07
-1.72092e+07
2.42816e+07
-1.57243e+07
-7.68605e+06
3.27551e+06
1.65868e+07
-1.64534e+07
1.6345e+07
8.81094e+06
-1.4059e+07
1.43419e+07
-5.98953e+06
-1.88686e+07
-3.75064e+07
-2.01704e+07
2.02777e+07
2.61034e+07
-1.29582e+07
1.57378e+07
-1.6905e+07
2.01647e+07
3.76261e+07
1.69837e+07
2.08885e+07
1.72539e+07
1.01804e+07
1.61271e+07
-5.06352e+06
1.38403e+07
1.03694e+07
7.85638e+06
-2.36243e+06
-8.40587e+06
1.42154e+07
-1.5581e+07
-9.39168e+06
3.06794e+07
-3.05434e+07
-2.18669e+07
6.21054e+06
-5.55359e+06
-6.55343e+06
2.6202e+07
-2.56506e+07
3.1324e+06
-3.04897e+07
-1.06351e+07
4.73587e+06
2.57569e+07
1.3259e+07
-2.03802e+07
8.75139e+06
-3.53702e+06
2.29526e+07
-2.25216e+07
1.61084e+07
29577.6
-29978.5
-2.54897e+07
-2.93936e+07
2.94973e+07
1.43977e+06
3.3646e+07
-3.35352e+07
4.04811e+06
7.59802e+06
-7.56517e+06
-1.71559e+07
177598
4.02259e+06
4.06798e+07
-4.05377e+07
-1.83632e+06
-3.05263e+07
3.37379e+07
-1.23463e+07
3.26123e+07
-3.25044e+07
-1.80609e+07
5.06927e+06
3.15809e+06
-2.85199e+07
1.53788e+07
-1.52429e+07
8234.99
-8238.25
2.09691e+06
9.53475e+06
1.90125e+07
-1.89338e+07
3.45556e+07
-3.44351e+07
-2.82827e+07
6.30052e+06
1.2779e+07
3.18977e+07
-3.17843e+07
1.61979e+06
-79753
79479.9
-2.87524e+07
2.87582e+07
-3.43947e+07
3.4517e+07
-3.15244e+07
3.72586e+07
-3.71244e+07
2.42926e+07
-2.41986e+07
1.67787e+07
-7.76458e+06
-3.37845e+07
3.38579e+07
1.45577e+07
1.02542e+06
-3.37328e+07
6.24863e+06
1.79729e+07
1.85397e+07
2.05224e+07
1.16945e+07
3.55237e+07
-3.53909e+07
-9.09005e+06
-2.78349e+07
2.79324e+07
3.85441e+07
-3.84191e+07
-1.35404e+07
-2.55869e+07
2.57014e+07
1.5383e+07
-1.52486e+07
-1.51173e+07
1.47334e+07
-1.46003e+07
1.48006e+07
-3.83293e+07
3.84638e+07
9.70077e+06
-6.54823e+06
-1.5316e+07
-2.90087e+06
1.32773e+07
-1.3147e+07
5.90294e+06
-1.45397e+07
7.28088e+06
-1.13713e+07
-947.465
927.69
-4.20892e+07
4.22193e+07
-5.73126e+06
1.06017e+07
4.11304e+07
-4.10078e+07
-1.60847e+07
1.4166e+07
7.54993e+06
-2.40039e+07
2.422e+07
1.53927e+07
-885946
-2.60781e+07
3.38036e+06
-4.05277e+07
4.06498e+07
-1.65432e+07
1.66799e+07
-2.42198e+07
2.43605e+07
716833
-720214
6.79276e+06
-2.3598e+07
-4.60491e+06
-1.32681e+07
-1.40039e+07
-2.84937e+06
499795
-499732
-6.78439e+06
-806214
1.32631e+07
-1.55779e+07
1.56539e+07
1.20007e+07
-773291
-1.78874e+07
2.67075e+07
-2.65855e+07
-1.62215e+07
2.6284e+06
-2.68957e+07
2.70351e+07
-1.12549e+07
-2.68692e+07
2.69797e+07
-2.1796e+07
-1.2149e+07
-1.52338e+07
-7.61284e+06
9.41301e+06
-9.38671e+06
3.4118e+07
7.75844e+06
2.04644e+07
-2.03813e+07
982848
1.65458e+07
-1.64718e+07
2.75945e+06
2.95767e+07
-2.94568e+07
-1.00236e+07
1.00683e+07
-1.59971e+06
-9.27281e+06
9.32667e+06
-2.95155e+07
2.96539e+07
1.77613e+07
-1.06754e+07
-1.74908e+07
1.63265e+07
-1.62551e+07
1.74277e+07
-5.96796e+06
-1.6096e+07
1.62285e+07
3.99756e+06
3.52377e+07
-3.51302e+07
4.88147e+06
2.30542e+07
3.7533e+07
-3.74006e+07
-95998.2
96862.7
-1.68499e+06
3.34057e+07
-3.3287e+07
4.10825e+06
1.55507e+07
-1.54169e+07
1.7425e+06
-1.73782e+06
-428539
1.52321e+07
3.50782e+07
-3.49714e+07
-4.36966e+07
4.38283e+07
1.42544e+07
1.68152e+06
-2.24093e+06
2.24836e+06
1.01001e+07
-9274.87
9168.26
-3.99672e+07
4.00986e+07
-1.07627e+07
3.56562e+06
-3.55231e+06
4.78029e+06
-3.43956e+07
3.45185e+07
-8.88838e+06
-4.65294e+06
-3.78122e+07
3.79456e+07
-3.48498e+07
3.49597e+07
-1.04903e+07
1.00374e+06
-2.47973e+07
1.1868e+07
-7.67409e+06
-3.91195e+06
1.3112e+07
1.44575e+07
-1.56353e+07
1.57576e+07
-3.06936e+07
3.08293e+07
3.77543e+07
-3.76201e+07
2.91452e+07
-1.56983e+07
-3.41826e+06
1.36815e+06
-3.44734e+07
-1.5156e+07
2.44345e+07
2.26137e+07
-2.44044e+07
2.07101e+07
-2.05742e+07
-1.30051e+07
1.30636e+07
3.13474e+06
-4.20696e+06
-1.50748e+07
770319
-1.55429e+06
1.26615e+07
-1.40495e+07
-5.66906e+06
1.66469e+07
-1.65109e+07
428695
-1.84626e+07
1.86041e+07
-7.60611e+06
-3.94231e+07
3.95411e+07
-3.65942e+07
3.67106e+07
-5.47032e+06
-2.72726e+07
2.73862e+07
4.62664e+07
-4.61316e+07
3.05674e+07
-3.04557e+07
1.55213e+07
-1.54547e+07
3.31284e+07
8.20627e+06
1.06032e+07
-4.87347e+06
-1.34685e+07
1.35305e+07
-2.77126e+07
2.78248e+07
-9.25013e+06
9.08331e+06
-8.03996e+06
4.3524e+07
-4.33925e+07
1.61957e+07
-2.10313e+07
2.10535e+07
-1.28051e+07
-1.57134e+07
2.20241e+07
-6.73578e+06
1.47963e+07
-1.46276e+07
1.95546e+06
-1.55459e+07
1.43842e+07
380118
-380586
2.81433e+07
5.87297e+06
5.86127e+06
-8.24356e+06
-1.99632e+07
-3.23003e+07
7.86711e+06
5.50995e+06
-5.48703e+06
3.28068e+07
-3.26727e+07
1.73735e+07
-1.72971e+07
-8.99999e+06
7.63886e+06
7.58073e+06
4.48724e+06
-7.98994e+06
-2.74886e+07
9.7926e+06
1.07993e+07
4.97076e+06
-3.03983e+07
3.0389e+07
635440
-634304
8.67559e+06
7.01628e+06
-2.1442e+07
2.15803e+07
1.57748e+07
-1.5708e+07
4.01466e+07
-4.0004e+07
-1.02375e+07
-5.23644e+06
5.29756e+06
2.682e+06
-2.78814e+07
2.83141e+07
-3.58599e+07
3.5995e+07
1.61216e+07
-546045
2.74388e+07
-2.73369e+07
-1.67098e+07
1.67061e+07
1.28816e+07
-5.00385e+06
-1.65339e+07
-7.97107e+06
1.37973e+07
-1.3675e+07
2.17737e+07
-2.16883e+07
-2.40523e+07
3.58624e+07
-3.57293e+07
3.11998e+07
-3.10947e+07
3.26952e+07
1.4309e+07
-1.41968e+07
-9.49745e+06
9.54184e+06
5.36571e+06
-9.04818e+06
-1.9411e+07
-1.5029e+07
1.51733e+07
-1.98462e+06
1.9912e+06
924403
1.92713e+07
-2.46708e+07
2.4784e+07
1.93261e+07
8.05893e+06
-4.32524e+07
4.33837e+07
8.25903e+06
2.27788e+07
-2.87681e+07
8.75078e+06
-2.59474e+07
-2.98459e+07
2.99635e+07
1.03754e+07
3.19262e+07
-3.1806e+07
6.08072e+06
1.03833e+07
2.60481e+07
-2.30188e+07
2.31367e+07
-1.17873e+07
1.26565e+07
-67348.7
3.71313e+07
-3.69983e+07
3.35689e+06
-5.86568e+06
2.1413e+07
-2.12795e+07
1.28077e+07
-1.37929e+07
1.3826e+07
1.69252e+06
1.1415e+06
-1.06673e+06
2.04867e+07
-2.03505e+07
4.34784e+06
-6.22493e+06
-1.37604e+07
2.52231e+07
-1.89366e+06
-6.99543e+06
-2.60538e+06
939572
1.3496e+07
3.04564e+07
-1.07626e+07
3.06626e+07
-3.05611e+07
-1.45219e+07
544018
-543552
3.25348e+07
-3.24255e+07
1.05293e+07
-3.45531e+07
3.46646e+07
1.38524e+07
3.04794e+07
-4.25606e+06
-45817.6
45553.5
2.26371e+06
-2.76492e+07
2.77794e+07
-1.7974e+07
1.89759e+06
1.85724e+07
-177724
-2.91062e+07
1.38156e+07
-9.86481e+06
9.92005e+06
1.74204e+07
-1.73452e+07
-1.56184e+07
6.87263e+06
1.40595e+07
-3.11674e+07
3.12787e+07
-3.27332e+06
2.26952e+06
-2.26177e+06
-355899
-3.76538e+07
3.77864e+07
-5.25517e+06
9.32513e+06
-1.24516e+07
1.07838e+07
-1.06497e+07
1.75293e+07
-1.73925e+07
-1.25117e+07
1.34063e+07
-1.7436e+07
1.75201e+07
2.20912e+07
-1.5196e+07
-2.2763e+07
1.74038e+06
-2.78777e+07
-5.97745e+06
1.46991e+07
-1.45657e+07
-358172
6.13056e+06
-6.10524e+06
3.07237e+07
-3.0601e+07
2.53266e+07
3.41195e+07
2.34833e+06
5.72351e+06
1.49435e+07
1.27507e+06
-2.83493e+07
-2.73533e+07
1.89789e+07
1.21162e+07
-1.57265e+07
-5.0288e+06
1.55572e+07
-1.98401e+07
1.99707e+07
2.0333e+07
-2.02311e+07
2.39516e+07
-2.42376e+07
1.13959e+07
-1.89221e+07
1.90595e+07
1.94769e+06
-2.08706e+07
2.03984e+07
-3.13803e+07
3.14981e+07
7.99183e+06
2.08869e+07
-4.53829e+06
-1.54994e+07
-2.76967e+07
2104.75
-2151.71
1.32134e+07
-7.0687e+06
8.72325e+06
-7.7829e+06
4.2201e+06
1.5233e+07
-1.51577e+07
-2.60486e+07
2.61565e+07
1.42719e+07
-2.97219e+07
3.88199e+07
-3.86868e+07
-2.31955e+07
2.33015e+07
1.23331e+07
8.80843e+06
9.95449e+06
1.28652e+07
2.08806e+07
-2.09079e+07
8.92528e+06
-1.8822e+07
1.89042e+07
-1.44217e+07
1.44843e+07
2.08707e+07
9.39791e+06
-9.35621e+06
1.47168e+07
-1.45814e+07
1.92278e+07
-1.09316e+07
1.10053e+07
-6.8492e+06
6.1666e+06
761300
-7.9023e+06
-1.4035e+07
1.64351e+06
-1.63779e+06
-1.17422e+07
1.4193e+07
-2.42267e+07
2.43623e+07
9.60884e+06
1.2131e+07
1.3249e+07
1.54958e+07
1.40169e+07
-1.39533e+07
1.62177e+07
-3.7629e+07
3.77463e+07
1.64296e+07
1.5766e+07
-7.77641e+06
-2.43985e+07
2.2183e+07
-2.20697e+07
7.84062e+06
1.8196e+07
1.47026e+07
-3.44058e+07
3.45386e+07
2.16804e+07
-2.16798e+07
1.1739e+07
-1.23328e+07
-9.74136e+06
-2.69591e+06
1.05324e+07
9.17494e+06
1.19371e+07
-1.12661e+07
1.37292e+06
-1.52174e+06
-2.62249e+07
2.63352e+07
3.14106e+06
3.93732e+07
-2.84245e+07
2.85405e+07
2.52943e+07
-1.81232e+07
1.47197e+07
-1.26614e+07
1.82277e+07
-3.6409e+07
3.65411e+07
5.19762e+06
1.90909e+07
-2.7446e+07
2.75522e+07
1.57927e+07
-1.3373e+07
2.15906e+07
4065.75
-4070.67
1.36923e+07
3.31508e+07
-3.30414e+07
1.2482e+07
-850096
1.08519e+07
2.56196e+07
-2.04047e+07
-859741
-3.92554e+07
30248
-30801.8
-8.36123e+06
1.83307e+07
6.14075e+06
43354.4
-42767.9
1.73228e+07
-2.47364e+07
2.48571e+07
4.12102e+07
-4.10865e+07
-1.38052e+07
1.38652e+07
1.49148e+07
859278
-849898
-1.50777e+07
-7.32564e+06
1.09072e+07
1.12641e+06
-1.38647e+07
-1.29365e+07
2.90688e+07
-2.89601e+07
-2.77141e+07
2.78454e+07
-3.38241e+06
-1.43035e+07
-3.4649e+07
9.36534e+06
-1.73425e+07
-430328
1.61912e+07
1.73056e+07
4.14203e+07
-4.12976e+07
-2.76302e+07
-9.59637e+06
-2.12658e+07
2.14056e+07
-4.37928e+06
-1.22665e+06
514387
1.23622e+07
4815.24
-4754.9
-6.49985e+06
3.75707e+06
-3.74184e+06
-192152
-3.61941e+07
3.63104e+07
-5.8026e+06
-1.55759e+07
2.02819e+07
1.57134e+07
-2.77757e+07
2.77914e+07
6.79115e+06
-8.05038e+06
-1.38554e+07
1.99934e+06
-3.58684e+07
3.59835e+07
1.80117e+07
-1.79561e+07
-3.5271e+07
5.76455e+06
-4.33907e+07
4.35195e+07
8.51723e+06
-8.47956e+06
-1.37535e+07
2.82269e+07
-3.77449e+06
-2.31275e+07
2.3233e+07
3.91989e+07
-3.9062e+07
-358382
-2.1368e+06
1.70905e+07
3.36828e+07
1.39051e+07
8.70767e+06
-2.6507e+07
2.66242e+07
-6.41155e+06
1.08356e+07
-1.65588e+07
-2.47122e+07
-6.10632e+06
-1.59983e+07
2.4113e+07
-2.39763e+07
3.13261e+07
-3.85869e+07
3.87195e+07
70372.9
-69762.9
1.86392e+07
1.51682e+07
3.94202e+07
-1.86263e+07
-2.10734e+07
2.12151e+07
-2.13761e+07
1.46097e+07
-2.93576e+07
1.36248e+07
-6.77957e+06
-4.13706e+07
4.15032e+07
-2.65738e+07
-2.09953e+07
2.10778e+07
-4.39e+07
4.40306e+07
-3.92989e+07
-2097.42
2078.15
1.27257e+07
-4.25988e+07
4.27296e+07
-2.25096e+07
2.26433e+07
-1.72042e+06
1.72577e+06
2.07935e+07
6.84668e+06
3.11175e+07
-3.09798e+07
-5.68729e+06
-8.33273e+06
2.61231e+07
-2.60034e+07
-1.59781e+07
-1.12857e+07
3.30492e+07
-3.29339e+07
-1.3944e+07
4.19858e+06
-4.1823e+06
2.21147e+07
102636
-1.16892e+07
4.2577e+07
-4.24515e+07
2.95137e+07
2.07687e+07
-2.0632e+07
-1.59847e+07
1.60628e+07
1.6034e+06
-1.59965e+06
7.03971e+06
2.64171e+07
-2.7661e+06
2.77589e+06
-2.40053e+07
2.4141e+07
-8.06542e+06
2.73579e+06
1.09309e+07
2.15087e+07
6.15156e+06
4.78946e+06
3.04492e+07
-3.03484e+07
3.01283e+07
-3.00055e+07
-4.59409e+07
4.60744e+07
-1.20722e+07
-1.40515e+07
1.40472e+07
2.917e+07
-2.904e+07
-1.1432e+07
-144749
145934
-5.94233e+06
-2.22705e+07
1.51185e+07
-1.49774e+07
-3.39418e+07
8.68201e+06
-1.80384e+07
-3.83979e+07
3.85309e+07
-1.18531e+07
-1.48459e+07
1.49556e+07
821611
1.10054e+07
-881869
-2.14168e+07
-2.74785e+07
2.75797e+07
-3.19776e+06
-1.23466e+07
3.77578e+07
-1.83443e+07
1.8422e+07
7.27612e+06
3.01963e+07
-3.00743e+07
502530
-9.07212e+06
-9.1398e+06
2.53893e+06
-6.44455e+06
2.79941e+06
-2.99332e+07
3.0071e+07
2.89301e+07
-2.87958e+07
-4.85615e+06
-3.70413e+07
3.71702e+07
-2.84409e+06
5.83654e+06
2.85278e+06
-1.2029e+07
1.20913e+07
1.34161e+07
-1.16759e+07
6.73655e+06
2.80551e+06
-1.31643e+07
1.00571e+07
2.88561e+07
-2.87221e+07
-7.45732e+06
-1.32471e+07
2.35217e+07
-9.73823e+06
-3.25098e+07
-2.60465e+07
-8.99672e+06
6.25175e+06
2.67953e+06
5.31697e+06
-4.04615e+07
4.05919e+07
-3.93271e+07
3.94597e+07
1.07191e+06
1.15013e+06
-1.15194e+06
-1.63813e+07
-7.36583e+06
1.32461e+07
-1.54438e+06
3.33449e+06
-2.94771e+07
-2.73712e+06
1.29546e+06
-4.02438e+07
4.03754e+07
-8.5989e+06
2.77244e+06
3.09393e+07
9.02572e+06
-8.9855e+06
-2.69863e+07
3.25674e+07
7.71061e+06
2.30181e+07
9.17938e+06
-1.98572e+07
2.39986e+06
-2.38881e+06
-7.73395e+06
244723
-4.16762e+07
4.18067e+07
1.32273e+06
-1.31208e+06
1.09726e+07
1.95064e+06
2.15612e+07
-2.1463e+07
9.59283e+06
-7.56898e+06
9.61703e+06
-2.40093e+07
2.41352e+07
3.15608e+07
-2.30764e+06
1.96108e+07
-1.32939e+07
533417
-2.53228e+07
900270
-1.50312e+07
-235216
1.3721e+06
1.04478e+07
1.10975e+06
9.80162e+06
-1.86088e+07
3.99573e+07
-3.98188e+07
-1.78836e+07
1.80119e+07
1.09882e+07
-1.0878e+07
4.19062e+06
-2.1931e+07
1.67826e+07
-1.31988e+07
1.32607e+07
-3.07866e+07
1.23689e+07
-1.02969e+06
1.68531e+07
-1.54543e+07
-9.98144e+06
-5.45394e+06
-1.06836e+06
1.08284e+06
-1.58022e+07
1.59489e+07
-1.66682e+06
1.67131e+06
2.32365e+07
-2.1748e+07
1.03577e+07
-6.194e+06
-1.22391e+07
1.0056e+07
351628
-1.16812e+06
-2.00975e+06
-1.07907e+07
2.17274e+07
-855181
4.90525e+06
1.97852e+07
2.75245e+07
-2.75064e+07
1.781e+07
-1.40581e+06
-4.41185e+06
3.07539e+07
-3.06156e+07
2.79973e+07
-2.78741e+07
-1.41071e+07
-5.58648e+06
-1.04221e+07
-1.3034e+07
1.32503e+07
1.24146e+07
-1.15594e+07
-3.32385e+06
-1.11619e+07
-7.08493e+06
7.10555e+06
-3.74452e+06
-3.32635e+06
605181
-604824
4.98893e+06
-1.9077e+07
2.41351e+07
-5.56421e+06
-1.90522e+07
1.91464e+07
-3.44224e+07
2.1201e+07
-2.10688e+07
208439
-207151
1.28867e+07
2.99274e+07
-2.98058e+07
112793
-1.50657e+07
395571
963770
-8.11491e+06
8.16093e+06
-2.57154e+07
2.58356e+07
-7.89285e+06
2.27961e+06
1.9171e+07
3.55074e+07
-3.53947e+07
3.04564e+07
-3.03437e+07
1.49081e+06
-1.9213e+07
1.93138e+07
1.42644e+07
1.11848e+07
-3.3952e+07
3.40863e+07
5.56159e+06
-1.1746e+07
-1.35867e+07
4.78437e+06
-16381.5
16218.5
-2.3125e+07
2.32511e+07
-1.95017e+07
1.96384e+07
1.3694e+06
-1.36629e+06
-9.79497e+06
496436
-496456
-2.06066e+07
-2.85476e+07
1.30839e+07
2.16475e+07
-2.15154e+07
2.58364e+06
-2.38031e+07
2.39456e+06
-2.22996e+06
-2.63973e+07
-1.75897e+07
1.76652e+07
-1.18511e+07
-6.83944e+06
-2.63406e+07
-3.84468e+07
3.85646e+07
2.40251e+07
2.81885e+07
-2.8056e+07
1.90943e+07
-1.89636e+07
-12397.9
12299.4
1.26587e+07
1.48739e+07
8.40619e+06
3.74237e+07
1.41492e+07
1.54433e+07
-1.25065e+07
-1.23317e+07
3.76081e+07
-3.74762e+07
1.7595e+06
3.36823e+07
-3.35473e+07
-1.48115e+07
-1.85844e+07
1.87096e+07
-3.23155e+07
1.43361e+07
-3.26858e+07
3.28052e+07
-2.90555e+07
1.5007e+07
2.14232e+07
1.0706e+07
1.13415e+07
-2.59892e+07
2.61106e+07
1.20684e+07
-1.19961e+07
-6.22719e+06
-1.01089e+06
3.14756e+07
1.18515e+07
-3.02165e+06
-1.63523e+07
1.64969e+07
-5.58537e+06
-4.30332e+07
4.31653e+07
-3.15375e+07
3.16554e+07
2.84216e+06
-6.49217e+06
6.54778e+06
3.72646e+07
-2.59785e+07
1.80846e+07
-3.04826e+06
-3.33845e+07
1.26066e+07
3.56731e+07
726130
3.62129e+06
-1.49863e+06
-1.1524e+07
-1.9182e+07
2.14261e+07
-2.12942e+07
2.92101e+06
-4.41422e+07
4.42731e+07
2.29677e+07
-2.28253e+07
-1.50189e+07
-9.89899e+06
-5.6023e+06
-3.68857e+06
2.19908e+07
3.55928e+07
-3.54579e+07