/*--------------------------------*- C++ -*----------------------------------*\
| =========                 |                                                 |
| \\      /  F ield         | OpenFOAM: The Open Source CFD Toolbox           |
|  \\    /   O peration     | Version:  v3.0+                                 |
|   \\  /    A nd           | Web:      www.OpenFOAM.com                      |
|    \\/     M anipulation  |                                                 |
\*---------------------------------------------------------------------------*/
FoamFile
{
    version     2.0;
    format      ascii;
    class       volScalarField;
    location    "1000";
    object      sigmayy;
}
// * * * * * * * * * * * * * * * * * * * * * * * * * * * * * * * * * * * * * //

dimensions      [1 -1 -2 0 0 0 0];

internalField   nonuniform List<scalar> 
27023
(
-6.80885e+06
6.83831e+06
5.54379e+06
-5.52011e+06
-6.42299e+06
6.45094e+06
2.28967e+06
-2.28228e+06
4.05151e+06
-4.0371e+06
3.68317e+06
-3.669e+06
1.17893e+06
-1.17189e+06
-331365
59687.6
215433
-578249
573268
912136
-905956
1.97033e+06
-1.96371e+06
2.96579e+06
-2.95215e+06
318736
-2.17389e+06
31115.4
-2.37647e+06
-86915
446209
899775
-895869
-66623.4
-363461
36874.4
1.53766e+06
-1.5256e+06
3.80102e+06
-3.78652e+06
-5.83334e+06
5.85828e+06
-47195.3
-6.28507e+06
6.31308e+06
545049
-548057
2.27795e+06
-2.25924e+06
-90047.4
2.15711e+06
-2.13884e+06
-55633.6
486076
-481710
47089.8
115187
-64110.5
16869
6.07903e+06
-6.0538e+06
15037.4
113600
-17756.8
-15850.6
466003
574158
353566
-1.92286e+06
-91102.9
1.61823e+06
-1.60611e+06
2.78815e+06
-2.77271e+06
57304.2
-57549
605633
-600821
-666487
668118
-1.54367e+06
3.5013e+06
-3.48743e+06
2.93619e+06
-2.92037e+06
4671.74
-4321.04
-573050
105722
-15876.3
93139.3
5.69566e+06
-5.66984e+06
1.08294e+06
-274178
-2.80881e+06
2.81979e+06
-1.59469e+06
-52674.7
-39984.1
21277.9
-104834
241079
2.9093e+06
-2.89844e+06
-88680.5
2.19476e+06
-2.18683e+06
126053
108488
-67346.3
2.56804e+06
-2.55919e+06
2.75094e+06
-2.73861e+06
80605.9
-80066.3
-324086
-1.29631e+06
-972220
156932
23171
-5.34717e+06
5.36456e+06
993596
-990316
5.35302e+06
-5.32801e+06
3.14095e+06
-3.12925e+06
-56263.8
-562272
520529
-501145
87093
-100990
101071
573448
835181
-835914
-2.96991e+06
2.97991e+06
-329968
2.43679e+06
-2.42864e+06
-368561
24614.3
2.64889e+06
577074
7.22636e+06
-7.19494e+06
5.32822e+06
-5.30317e+06
-13277.7
-923786
-184683
224316
367406
840914
-840687
84682.6
11865.9
-18812.5
165746
-4.89066e+06
4.91194e+06
-2.96967e+06
2.9806e+06
-1.13561e+06
112874
95275.3
-747868
749841
79459.6
115358
-165511
55647.9
-507340
75966.9
763447
-599989
-2.61704e+06
2.62633e+06
108778
-85906.4
-146936
-2.86595e+06
2.87731e+06
-18798.8
-929.593
-3.36009e+06
3.3716e+06
-1.52237e+06
-19416
1.52019e+06
-1.5158e+06
-26224.4
-3.31764e+06
3.32958e+06
-1.35247e+06
340535
-2.01367e+06
-12638.4
13711.7
-5.65858e+06
5.6841e+06
-858026
-39414
43479.3
-42992.6
59634.3
-58825.3
817336
-934747
-969091
979153
-1.73768e+06
225717
48672.9
-267325
267961
-2751.18
-4.7821e+06
4.79852e+06
-45121.7
972320
-968957
2.95959e+06
-2.94492e+06
2.34445e+06
-2.33583e+06
-214877
812081
-809949
-36281.8
263328
-263382
64696.7
115571
-1.8051e+06
1.81031e+06
2.31407e+06
20643.7
51278.3
-239199
759696
244398
-1.95288e+06
-68496.7
-182446
-1.60088e+06
1.60632e+06
64275.6
-1.09393e+06
-23524.7
-73698.4
-4743.72
-55946.3
864455
-865207
-534411
349355
190447
274987
-274535
2.16154e+06
-2.15432e+06
90471
-710064
5.0779e+06
-5.06042e+06
257760
-394571
30264.6
118502
-62508.8
-4.5846e+06
4.60502e+06
-621393
603280
-114745
-12541.5
-120648
47065.8
-445855
451319
-34252.6
-86822.1
265720
2.27186e+06
-119168
-94228.3
-1.65842e+06
1.66477e+06
-5152.93
4875.68
32524.6
28605.3
36319
-33358.1
1.1584e+06
282773
-2.90452e+06
2.91505e+06
977574
1.40444e+06
-1.39528e+06
1.99595e+06
128139
164432
259626
323776
-319799
3.25276e+06
-3.24292e+06
38106.7
-1.51138e+06
1.52308e+06
56226.4
27881.1
1.41728e+06
-1.41079e+06
-2.59638e+06
-181408
818100
-32477.5
-59142.7
-6309.24
2.33778e+06
-2.67996e+06
-1.11931e+06
2.65091e+06
159606
377619
72921.9
-7.83375e+06
7.86812e+06
-579605
415839
2.76618e+06
-2.75503e+06
191013
-201859
69957.5
-69006.2
-1.79057e+06
7.72106e+06
-7.68762e+06
160350
153051
-162576
159635
745725
-743213
261090
-258058
-3281.7
-1.25769e+06
1.26194e+06
-46847.2
-1.68785e+06
-90574.2
94227.5
-3.27694e+06
3.28756e+06
-145910
36153.1
-296799
-6.02922e+06
6.05784e+06
-781773
784056
-541875
-170812
365874
55213
-155914
-2.20641e+06
14968.4
1.77778e+06
4672.95
-1.7632e+06
2.11959e+06
-2.11278e+06
-2.00933e+06
834791
42253.1
21603.8
-2.77764e+06
451479
-1.68645e+06
-25659.5
1.7726e+06
124699
44009.6
14663.5
171416
162210
4699.99
-134113
3.1292e+06
-3.11398e+06
990002
-1.76853e+06
-114166
-5.57383e+06
5.60107e+06
-55846.7
271087
-2.73573e+06
37690.3
2.74973e+06
428956
-423848
-167042
5557.06
1.89485e+06
140759
-92648.2
-212410
1.243e+06
-32099.1
-1.06405e+06
271620
49828.4
91394.4
-88113.4
90515.3
-177538
38046.7
-384662
-2.06523e+06
201327
-199820
-2.5962e+06
2.61393e+06
-36694.9
-770819
5.37509e+06
-5.35529e+06
54329.2
-52195
1.26813e+06
-1.26091e+06
-157728
159749
-1.13379e+06
22500.2
-158863
119906
239494
-3.77675e+06
3.78995e+06
-3.26332e+06
3.27493e+06
305613
-300331
6.47854e+06
-6.45005e+06
-846495
212027
-221647
-74788
1.52719e+06
112991
-55492.8
-1.34884e+06
1.35373e+06
-60580.3
40689.8
178526
-74948.3
26197.9
-2.40416e+06
-512218
1.89904e+06
-1.89084e+06
99606
128484
3.96028e+06
-3.94216e+06
816910
-814249
20139.5
942022
-664195
-763689
392.672
-306306
-3.96483e+06
3.97964e+06
-129696
2.14577e+06
52122.7
-1.40994e+06
1.42168e+06
7.60745e+06
-7.57368e+06
1.69056e+06
-172739
-132812
-2.71236e+06
2.73142e+06
38702.2
-420772
1.91017e+06
-1.89201e+06
-2.06953e+06
2.87322e+06
-2.86407e+06
3.27589e+06
-3.26274e+06
-2.78975e+06
-5.92805e+06
5.94978e+06
-125329
-123281
247169
-245684
-135070
50891.8
-49328.3
-241449
-2.39378e+06
2.40366e+06
-624214
611680
-381577
7.7945e+06
-7.76412e+06
-85240.4
18096.8
-282142
-694297
3.25851e+06
-3.24348e+06
-1.27518e+06
1.27875e+06
-28149.3
90419.5
2.23502e+06
-37216.4
-2.59298e+06
-2.40971e+06
-9773.08
-5.53401e+06
5.55457e+06
81860.4
-110076
110149
-438.078
-8883.8
-2.81645e+06
2.82858e+06
-2.00661e+06
-82443.5
93477.3
118586
-357555
107835
-2.15134e+06
-91654.8
2.12726e+06
-2.10929e+06
-42186.1
49013.4
928516
-925491
74223.7
-810204
812146
-115830
8.36408e+06
-8.3277e+06
-3.39972e+06
3.41176e+06
-8.80775e+06
8.84491e+06
-125420
-2.16707e+06
2.16363e+06
14171.4
-7.12251e+06
7.15341e+06
37105.4
895445
-1.00064e+06
-26036.3
-16154.9
10588.2
-512803
-39947.2
2.88349e+06
-2.87037e+06
-35585.5
2.83836e+06
-2.82444e+06
161171
-2.82289e+06
2.83965e+06
-206819
5553.39
-803511
804466
232439
-231408
39788.4
1.49966e+06
2.4501e+06
2.02618e+06
-2.01398e+06
460887
-459765
-138229
-90824.6
69388.2
-13759.9
1.64743e+06
-1.63331e+06
-193808
2290.62
-46510.7
47145.4
-2282.17
-86486.2
1.03947e+06
-1.03048e+06
-6.01743e+06
6.04516e+06
-5.45406e+06
5.47955e+06
8.51152e+06
-8.4746e+06
567979
2.94368e+06
-2.92714e+06
-91250.9
37533.9
-3.05327e+06
3.06942e+06
-85193.8
2.31865e+06
-2.30355e+06
28771.2
-645839
1001.04
-8.87519e+06
8.91278e+06
31118.1
-48383.3
-53268.5
81783.6
-2.3055e+06
2.31567e+06
267124
2.53558e+06
-1.3268e+06
1.33054e+06
-142526
144217
285429
-287337
177148
58776.3
71307.4
-71264.9
-1.90273e+06
-2.5387e+06
-447617
-335769
1.98946e+06
427796
-30088.9
-1.03836e+06
-766231
-793.293
1.52085e+06
62942.6
-148597
-512521
244928
399697
-395428
2.86187e+06
-2.84596e+06
1.58084e+06
-198919
16906.9
161819
6459.93
-39416.4
-2.66032e+06
-92226
261996
-3470.95
-693680
4.16274e+06
-4.14223e+06
2.43608e+06
10942.1
-7200.33
-38166.7
1.90931e+06
-1.90205e+06
-66582.1
69236.7
303934
-299969
83732.2
-375050
-321242
-285997
-2.48046e+06
2.50375e+06
202886
4.53637e+06
-4.52059e+06
-323476
324091
-185057
2.45748e+06
-2.44579e+06
395156
-36933
-31043.6
127896
-12445.3
54640.6
286158
-285675
53059.6
-577848
2.79592e+06
-2.78626e+06
-51286.7
38622.5
-1.69872e+06
-24386.5
-146986
183888
29499.2
712221
35486.5
20628.1
-64569.2
-1.24102e+06
-42257.8
-482393
1.98764e+06
-1.96994e+06
-58482.3
60480.1
32111.3
186917
-2.12334e+06
2.13211e+06
-54199
-199456
-142015
421350
-97677.5
8.19336e+06
-8.15848e+06
-140849
2.5575e+06
-2.53611e+06
-126649
127281
69538.3
-51371.5
-543638
39710.1
3.95187e+06
-3.93697e+06
-122399
154175
76604.4
28809.9
78777.8
-2.04021e+06
-773012
-1.07708e+06
156089
43131.9
-43387.2
3.8778e+06
-3.86349e+06
24528.3
-63452.2
-254215
-217115
198140
-198573
4702.73
41469.6
4219.45
71298.9
139455
1.37836e+06
-1.36969e+06
-415047
-124839
2.2732e+06
-2.26548e+06
-224670
10747.3
339011
607790
-606290
-2.04075e+06
2.05906e+06
-2.20798e+06
-4.27958e+06
4.30023e+06
57805.6
-65025.1
-4192.65
-97122.9
277013
-276571
143827
-1.32717e+06
1.33897e+06
40755.7
-38357.4
-1.93638e+06
2.00449e+06
6.73202e+06
-6.70308e+06
-2.69926e+06
2.70874e+06
364474
-90369.9
2.2229e+06
-2.21514e+06
-45405.7
-288080
5.42676e+06
-5.40136e+06
413186
-412895
-3.01134e+06
-2.20982e+06
2.21924e+06
-139895
139577
3.0263e+06
90955.6
91742.4
-59174.2
636070
-637619
8996.07
219880
559172
5065.67
1.60531e+06
2.64284e+06
-77883.3
2.4509e+06
-2.43102e+06
35810.4
919817
5314.85
213558
-214863
-62375.6
-118357
484988
-480893
-2.02166e+06
-2.35987e+06
-112095
2.4331e+06
-2.42532e+06
-3.02125e+06
-88915.8
-2.89006e+06
-86827.6
7.18486e+06
-7.15409e+06
80625.7
1.4216e+06
3.03072e+06
-15895.5
13490.4
2.90806e+06
60205.2
5.00297e+06
-4.97846e+06
-129610
133112
8660.18
-988243
1084.68
3.29644e+06
-3.28376e+06
-1.32827e+06
1.33362e+06
-60292.4
159047
630361
-632865
-8246.71
2.14728e+06
-2.1356e+06
-174312
-994195
83430.3
-46454.6
89143.8
-59557.4
384343
-500480
38045
207423
-207032
-148814
249045
401020
-119586
89266
-278172
-335881
-116099
213886
236052
1.08151e+06
-1.9251e+06
1.42708e+06
-112715
-96529.8
-66546.1
-5.72459e+06
5.74604e+06
1.90354e+06
-1.24298e+06
1.2536e+06
-405584
-645495
3.1152e+06
-3.10082e+06
879656
1.13645e+06
-1.12533e+06
-1.64446e+06
-70594.7
1.01139e+06
-2.09199e+06
2.69286e+06
1.64386e+06
-79231.7
2.08994e+06
86441.4
44507.7
7.05523e+06
-7.02423e+06
223016
-716617
1.63929e+06
-1.63395e+06
2.75352e+06
4635.89
209406
112803
-1.05338e+06
1.06844e+06
-22485
-479837
-137299
-1.04649e+06
1.05061e+06
-20408.7
66621.1
141281
5100.13
-1.0099e+06
-62831.5
1.86824e+06
102700
-979279
993929
38038.8
-98789.1
252379
251123
85521.6
-3.77953e+06
3.79479e+06
225312
-720972
67201.9
-5.89208e+06
5.91418e+06
-7046.56
601908
-114465
-1.43494e+06
1.44089e+06
-472041
-2.63295e+06
2.66623e+06
4.29479e+06
-4.27474e+06
36999.8
-479985
613884
-609305
-1.80948e+06
1.01068e+06
-113026
289497
-289171
-187992
2.74555e+06
-2.73741e+06
-87422.4
-99222.9
-570813
-3.37362e+06
-1.75898e+06
-25774.2
3.38756e+06
202943
239644
-719898
-1.11763e+06
1.13193e+06
1.83951e+06
-1.93755e+06
163600
1.89377e+06
99829.5
-114654
-20089.8
-97874.4
-1.36285e+06
-72481.3
8671.07
350377
-498945
-56113.3
-107440
329554
-75938.9
44586.5
-780116
96768.7
67459.6
-7.56182e+06
7.59174e+06
357725
-203185
-958718
963372
1.11527e+06
-1.11173e+06
-28644.4
-95308.4
40997.7
-880238
891401
181475
-181451
92402.7
177284
-21608.5
-533325
-206331
-158785
-449921
123685
-6684.83
2.96357e+06
-2.9472e+06
2.03875e+06
-1.97921e+06
941150
245678
266827
-265598
552968
737092
1.95532e+06
27249
-78332
139798
12662.6
-122871
-41043.4
-127326
-34127.3
-78460.5
3.05801e+06
-3.04181e+06
-83791.1
618678
1.78124e+06
-15345.8
9312.78
351483
-351935
-1.76416e+06
-4760.45
-3.31537e+06
3.3278e+06
3.66132e+06
-3.64661e+06
566498
-94917.4
102308
253129
-3.52703e+06
3.53962e+06
1.66749e+06
-1.65708e+06
543283
236594
-236257
-199755
74988.4
-401257
136329
-134489
-1.79103e+06
-1.06491e+06
161327
-169577
-3.02168e+06
3.03257e+06
1.94605e+06
-49880.7
34837.5
-3257.45
114151
-65992.4
2.16178e+06
-2.14583e+06
-235462
235435
-458578
-2.38619e+06
2.41169e+06
-1.30111e+06
1.30614e+06
862766
20816
149608
69951.1
2.48397e+06
-2.46526e+06
-587408
-679976
49185
-66547.8
-6.59297e+06
6.62331e+06
79106.1
424887
34569.8
1.20555e+06
-1.20159e+06
-115449
-549552
-15404.9
-46509.5
2.41825e+06
-2.40995e+06
78147.8
2.38603e+06
-2.36999e+06
75262.1
-50712
116578
-41745.6
2.18562e+06
255581
38731.6
-191432
-41391.7
887678
-813472
434613
-430469
110905
2.92313e+06
-2.90959e+06
3.78342e+06
-3.76975e+06
-157393
3.38064e+06
-3.3698e+06
-5.46351e+06
5.48557e+06
-85595.4
85392.6
-17397.7
192189
-191936
-134349
360177
-1.11444e+06
-561523
-70390
68784.7
18587
-17222
-2.02283e+06
2.03529e+06
446428
-56888.9
75616.3
76232.2
-167161
60126.8
-34646.7
-148002
40260.1
2.88521e+06
-2.87457e+06
35021.2
-2.30929e+06
-21600.3
-43483.9
-1.19831e+06
-925409
2.28309e+06
-2.26252e+06
2.19132e+06
-41049.6
-362526
371771
-81862.5
121235
-48680.3
-2.73014e+06
2.74666e+06
56298.3
-846541
1.69641e+06
-2.62355e+06
2.75137e+06
54609.1
2.6393e+06
-78744.7
150784
1.29822e+06
1.55414e+06
-837666
472387
57265.4
-15450.7
-47009.6
7315.04
162220
-1.68177e+06
19552.9
121522
-119824
19683.6
611648
-819417
-978217
169120
-3.32706e+06
397951
-150610
84751.4
62728.8
3.33978e+06
189725
-357067
378711
-9385.96
40836.7
-55008.2
-114851
557464
-552824
53176.9
-3.48335e+06
3.49757e+06
116819
3.43494e+06
-3.42314e+06
425908
8.03413e+06
-8.00025e+06
112124
58163.4
-309897
116336
-115326
223666
-30154.6
-57914.7
-174231
3.72855e+06
-3.71531e+06
-2.35169e+06
707841
602098
-43568.7
1.20301e+06
-1.1906e+06
327456
-323202
348591
5004.6
7.24616e+06
-7.2153e+06
2.65935e+06
-2.64786e+06
-2094.41
178326
775553
3.09908e+06
-3.0858e+06
-90108.3
-509889
515633
44760
-38224.7
-2.43834e+06
2.44781e+06
47384.9
341618
-341470
3.79284e+06
-3.77493e+06
-257712
-59008.5
-365389
21295.4
1.82516e+06
298895
-10676.9
904146
2.42462e+06
-67778.1
349075
-31357.8
210114
-209242
-1.11352e+06
-5.46364e+06
5.48476e+06
2.27637e+06
-2.26873e+06
-810969
-2.76235e+06
2.7816e+06
1.05442e+06
-1.03778e+06
-386370
1.14597e+06
-1.13201e+06
19742.2
-113536
116485
8808.17
3818.39
-182511
43610.9
2.06063e+06
-2.08687e+06
88632.6
53503.9
-847595
-84873.9
-177901
180858
-1.59375e+06
1.59884e+06
-14599
144237
3.21023e+06
-3.20015e+06
-60281.1
1.77909e+06
86432
-462878
383508
2.31522e+06
-156390
-139305
-78568.1
-2.8345e+06
2.8436e+06
-959035
972717
-748289
746022
778363
-766703
-31993.3
90262.6
73648.4
85881.8
-1.7644e+06
-371927
2.18325e+06
-2.17543e+06
11752.8
4865.21
779990
-2.68056e+06
2.7002e+06
1.53332e+06
276736
-2868.47
2.31864e+06
-2.30383e+06
-2.48377e+06
-51027
-525232
521465
-1.46921e+06
-2.91825e+06
2.9354e+06
-127034
-1.0348e+06
-2.42122e+06
-108982
-164119
130804
32338.2
689604
4.59202e+06
-4.56828e+06
-45596.6
5.64477e+06
-5.61814e+06
518121
2.45634e+06
-2.44314e+06
-7.02775e+06
7.05888e+06
-47141.4
-964352
974916
-383905
383512
61409.3
-1.68547e+06
86230.8
6.35466e+06
-6.3259e+06
-45458.8
-160635
-2.07324e+06
2.08959e+06
46751.6
4.8217e+06
-4.80601e+06
865570
-32952.1
11168.4
-10704.9
-586119
591981
-4.07494e+06
2.71884e+06
-2.70736e+06
142670
1.19136e+06
-1.18215e+06
1.91829e+06
-1.90884e+06
130188
1.67221e+06
4.27701e+06
-4.26269e+06
-1.60542e+06
1.61025e+06
1.04963e+06
86951.1
-5.32853e+06
5.34756e+06
296367
109415
-107838
65179.1
-65357.3
-1.51526e+06
5.99976e+06
-5.97624e+06
289591
-2.45333e+06
2.4641e+06
-1.24435e+06
-439939
-614179
615478
-3.69273e+06
3.70566e+06
-756632
180925
-86260.9
1.41467e+06
-100059
-513329
1.54692e+06
2.06551e+06
64437
-103785
-973399
975453
255558
-254923
110489
-32256.6
34752.1
149661
74808.2
-1224.37
-35430.2
24561.2
34288.6
1.11818e+06
-1.10807e+06
-6.86763e+06
6.89867e+06
451475
-7017.11
-1.65702e+06
-77078.3
-88089.7
557348
-1.16214e+06
-417544
1.321e+06
-1.30944e+06
136695
-1.82999e+06
1.8466e+06
-853526
-3.44311e+06
3.45375e+06
-2.95084e+06
2.96112e+06
-1.01281e+06
-2.91365e+06
2.93065e+06
937199
-934632
3.07465e+06
-3.06165e+06
8.15213e+06
-8.11729e+06
-44478.7
845657
474435
-157991
-5.93021e+06
5.95837e+06
-2.94353e+06
2.9598e+06
-8668.33
-173891
-873601
111877
-111737
527868
128238
-94651.1
-988897
-174928
-58995.2
-215200
1.79564e+06
-1.77645e+06
-101385
-271880
303082
1.61466e+06
-1.60778e+06
40732.5
286796
798250
-437968
-102834
49671.2
-63469.9
6.18582e+06
-6.15982e+06
1.10153e+06
-1.09776e+06
5.44523e+06
-5.41921e+06
-13400.3
45337.5
-41143.9
939799
-1.31619e+06
31549.1
-24816.4
70739.2
461105
-512578
511533
3.33767e+06
-3.32776e+06
325755
1.09042e+06
-423151
409911
8.75254e+06
-8.71597e+06
34711.8
-33644.7
-955056
-51084
84125.8
295584
-119599
119526
-268049
268690
49905.2
-492.307
3.48447e+06
-3.47027e+06
-155433
81352.3
262124
-65084.7
-107761
109541
2.04564e+06
-2.06643e+06
5.50926e+06
-5.48446e+06
-82305.9
901371
-898950
3.73176e+06
-3.71755e+06
-40255.8
2.23767e+06
-2.24637e+06
-4.60542e+06
4.62729e+06
-720612
-76038.5
-2.80103e+06
-1.44251e+06
1.45447e+06
-5.16045e+06
5.17943e+06
97289.4
2.86452e+06
-2.74453e+06
2.76302e+06
60599.8
3369.17
-1.75003e+06
1.75571e+06
-30969.7
34385.7
-79298.8
310104
-3.09117e+06
-2.71769e+06
2.73324e+06
1.52423e+06
2.63188e+06
-2.61839e+06
628790
973195
3.10369e+06
-2.56385e+06
2.5833e+06
-730475
1.38328e+06
24658.4
634784
-633422
388834
492494
1.92387e+06
-1.90901e+06
12394.5
-884078
872782
4.08554e+06
1.0836e+06
-1.05039e+06
1.05033e+06
-1.04332e+06
686351
-500441
-100249
-35988.4
98539.4
-892933
-285441
-6708.1
1.62541e+06
60551.4
-713262
4.78249e+06
-4.76558e+06
-1.93361e+06
2.16108e+06
-2.15415e+06
3.16985e+06
-3.15824e+06
322985
-3.4207e+06
3.43269e+06
457228
310259
116322
-1.34408e+06
1.34815e+06
350224
-1.60517e+06
1.6135e+06
-1.99752e+06
16012.8
2.41947e+06
-138932
-71406.6
-139954
-722853
732681
6.57387e+06
-6.54475e+06
28956.5
62879.6
1.40058e+06
-3.07914e+06
3.09157e+06
-11504.5
1.66605e+06
-1.65546e+06
140086
-110899
110757
-154106
1.30969e+06
-296530
-551259
437170
1.29681e+06
-1.28493e+06
-1.37106e+06
65704.2
173074
-9206.9
-104316
-326261
-1934.16
-296978
220013
-626908
1.31024e+06
-1.29929e+06
118111
5.63999e+06
-5.61635e+06
151171
-144168
183354
-102366
157513
-1.13413e+06
2.34405e+06
43612
79166.2
37053.4
-40882.5
652493
-35429.7
-130451
224.866
-904311
903575
2.69759e+06
-2.68656e+06
623679
-392608
1.11437e+06
-1.44139e+06
1.45224e+06
-64923.1
-13944.6
59477.9
-2.70891e+06
2.72153e+06
958469
157786
-111518
31302.4
-59432.9
-179421
182500
136607
27102
-168765
-992999
291292
2.54811e+06
-2.52928e+06
-3.13695e+06
3.15188e+06
1.51423e+06
18399.6
225246
-225024
-3.12048e+06
3.13466e+06
-1422.1
1.27562e+06
58678.1
540750
34395
6703.82
309947
202803
-206904
-8.84165e+06
8.87902e+06
-57112.3
6.81397e+06
-6.78385e+06
1.22488e+06
-1.21352e+06
2.31913e+06
-263996
216177
-890060
789601
-3510.9
-1.03066e+06
-1.57754e+06
3.64464e+06
-3.63247e+06
-1.65701e+06
1.59061e+06
-1.33431e+06
1.34294e+06
702814
-132747
-8437.25
142085
6.21671e+06
-6.188e+06
142340
-2.79606e+06
2.80606e+06
1.91263e+06
43419.4
-1.10096e+06
86988.9
2.78168e+06
-2.76166e+06
590788
70807.2
-14363.4
-89230.6
91120.3
-192654
193504
1.92932e+06
-2.05872e+06
-68316.7
-462737
461623
100195
-5743.9
-66396.6
117093
-9590.54
-3.04877e+06
3.06605e+06
-75290.5
150596
-2.67374e+06
2.68868e+06
36979.5
-2.77898e+06
-13736.6
-1.06888e+06
2.79474e+06
-1748.51
4208.02
58137.9
2.39187e+06
-3.34034e+06
3.3539e+06
2.13951e+06
-141241
-36838.5
204365
-201743
1.04439e+06
3.40693e+06
-3.39505e+06
-22724.6
34871.5
4192.16
125846
-24702.5
-129553
-150734
925635
-920718
135064
-53783.6
394808
619477
-614891
2.48614e+06
-2.36431e+06
2.38237e+06
2.76724e+06
-2.7582e+06
-8.70914e+06
8.7461e+06
81159.6
993222
-1.01646e+06
-86861.2
74290.2
1.40848e+06
-232509
-1.50489e+06
-1.95484e+06
111205
-90144
-1.72199e+06
1.73127e+06
-99951.9
-1.99133e+06
149813
873694
-100670
-31124.2
-75862.2
81905.3
3.46129e+06
-3.45087e+06
-80421.7
540.781
-681304
667698
-155368
-119094
-5975.56
-27590.6
86519
-84786.6
129861
1.12655e+06
-1.11577e+06
-107729
-3.21546e+06
3.22714e+06
-102567
-2.17139e+06
22081.1
2.1887e+06
47577
-50621.3
281299
-974233
-295894
-26427.3
-3.14695e+06
3.15835e+06
137559
-88021.7
-36936.3
174553
-2.0317e+06
2.03779e+06
8.51906e+06
-8.48295e+06
-1.59196e+06
-227682
-195699
-2.90888e+06
2.92221e+06
62668.7
-59942
-47450.4
-141950
1.97811e+06
55748
1.60414e+06
670832
-2.57164e+06
2.58976e+06
-381386
28941.8
-2.04534e+06
-88142.8
-110942
-1.64199e+06
1.24609e+06
-1.23875e+06
-213059
-119029
119023
206313
-203998
82719.3
2.06444e+06
-23659.4
-2.27915e+06
-364898
365151
-316133
1.95911e+06
-98156
2.01773e+06
-98572.7
-522050
523466
126095
-7.93763e+06
7.96937e+06
-1.96579e+06
1.97229e+06
25683.8
163262
-160929
-11176.3
-69019.2
69131.4
-1.56937e+06
1.58108e+06
-5.10225e+06
5.12056e+06
-18876.4
854100
702789
-702569
-71916.6
-34285.4
2.51129e+06
-2.49315e+06
-549240
7411.97
2.81429e+06
-2.80294e+06
-1.37408e+06
3.06427e+06
-3.04994e+06
52423.4
47820.5
-538735
2.97663e+06
-2.9674e+06
32199.9
1.03062e+06
-1.02198e+06
-3.01574e+06
3.03615e+06
2.12561e+06
-2.11546e+06
1.09646e+06
11228.8
-1.69716e+06
1.70759e+06
-1.30028e+06
1.30788e+06
-826187
-277647
687933
315624
42178
519114
4.84318e+06
-4.82561e+06
2.38948e+06
-2.37627e+06
-1.53688e+06
1.54141e+06
-26685.5
-768608
667825
1.83296e+06
-1.82295e+06
-1.91761e+06
-325886
329627
-11915.3
-61155.9
1.07404e+06
-1.05548e+06
-166250
-140687
96641.7
-44161.4
45831.3
-69533.2
-2.28252e+06
2.28155e+06
23340.8
579164
-263714
86164.1
-3.99533e+06
4.01077e+06
138004
-2.118e+06
189076
-5.76703e+06
5.79375e+06
285340
2.27318e+06
-2.26112e+06
-80826.3
-1.51432e+06
-347464
27719.1
-1.14313e+06
-23065.4
-420583
419582
176507
-175914
219729
-1.69675e+06
1.70308e+06
-1.04999e+06
-533810
1.06074e+06
-1.8242e+06
1.84038e+06
1.14656e+06
-716570
-31264.4
286641
-1.42175e+06
985583
144165
-143500
161020
-1.86486e+06
-182164
-726114
-41812.3
107636
-174967
563195
101556
-60738.5
-1.36408e+06
1.36847e+06
-292085
292713
-73958.8
893795
-877992
-422425
-831448
1.44041e+06
-103936
575388
11780.6
-278812
334144
-439216
440420
-930940
-1929.76
138199
8.79337e+06
-8.7557e+06
37669.6
118041
414236
2190.91
170067
-430732
210288
89130.2
-1.22724e+06
28189.6
22158.3
-22390.3
986308
-999495
105017
215129
2.81333e+06
-2.79888e+06
982801
-48249.6
997042
-2.18539e+06
2.20302e+06
16191.9
126943
2.50125e+06
-1.11999e+06
176775
-36338.7
190102
-28842.7
54728.4
44779.5
37991.3
52471.3
929148
7793.13
125675
-123907
-873212
876160
171057
-132161
151612
-120577
1.71671e+06
-4.41284e+06
4.43644e+06
-30267.8
67316.6
17401.6
1.58406e+06
-2.29554e+06
-1.70008e+06
106248
-545666
548028
-1.38974e+06
1.40203e+06
-3.56632e+06
3.57877e+06
-26413.5
-2.97055e+06
275760
-174782
-120531
1.72032e+06
-45315.9
-95750.7
153482
-28147.2
2.98679e+06
-129980
378021
2.87149e+06
-58383.2
60995.5
-60391.2
158542
-586302
631718
-631547
2.33204e+06
-2.31724e+06
-1.55567e+06
272455
-181309
-1.06031e+06
1.07167e+06
1.08592e+06
150081
-102497
77940
72774.1
-14381
-7580.98
-420190
585291
-575989
111200
-2.32153e+06
-64694.5
-73855.9
-2.80456e+06
2.81851e+06
-306476
1.97646e+06
-1.96027e+06
159526
-158325
-146934
2.34215e+06
-2.32835e+06
-49388.6
-122992
-68905.8
-473441
-377052
395434
-2.41734e+06
2.4337e+06
44957.7
236229
2.36971e+06
3.03509e+06
-3.02421e+06
2.97138e+06
-2.95717e+06
375596
-2.67027e+06
2.68482e+06
1.57046e+06
-69080.7
-764988
766735
-925414
93218.7
82316.8
570451
171737
-169877
-2.12296e+06
2.13995e+06
-1.36815e+06
1.37985e+06
3.00051e+06
-2.98888e+06
26354.9
1.74268e+06
-1.73555e+06
-144166
-45007.1
-30572.4
1.92257e+06
-1.90715e+06
252754
-29053.6
424720
-207589
-4532.78
-6.77677e+06
6.80679e+06
-263568
250231
-67175.5
-3.01505e+06
3.02567e+06
-5489
174011
-173733
2.24255e+06
-2.22548e+06
110541
-108652
1.35185e+06
1.3969e+06
1.3125e+06
71342.9
2.07362e+06
1.567e+06
-1.3382e+06
-1.06817e+06
685434
-683429
244528
157537
-155340
125564
-791268
788237
-2039.28
-52014.1
-2.71753e+06
2.73067e+06
-152842
1.2762e+06
2.77393e+06
1.13126e+06
-57575.1
-2.37607e+06
2.39361e+06
895079
-877872
-860290
-25617.3
30311.1
40013
-144788
245981
-229006
-803134
-201262
202007
-2.7788e+06
2.79279e+06
-67824.1
-328468
333464
100688
19729.4
137374
-138773
34067.5
-5923.19
65393.1
-70446.7
71469.2
504242
-1.60584e+06
-77261.6
2.01881e+06
-2.00218e+06
290150
-1.70209e+06
1.70778e+06
553749
-561458
-2.14515e+06
-54379.9
-437793
43142.6
84019.6
576586
-575595
-122118
96.8504
936351
-110410
629805
-624697
-24630
28919.3
3.07017e+06
-3.05517e+06
-6.69379e+06
6.72311e+06
-1.43094e+06
1.44184e+06
-2.89277e+06
323295
-109026
2.89965e+06
73787.2
1.92872e+06
-1.90269e+06
189164
-3.1631e+06
3.18354e+06
-2.00308e+06
-113545
116729
8765.04
1.3553e+06
23603.5
2.02688e+06
171055
-554651
-265752
-371977
372225
2.53765e+06
-3.46549e+06
3.48668e+06
-1.03588e+06
1.03927e+06
524008
1.58943e+06
-3.1489e+06
3.16273e+06
-79911.5
-9141.22
1.09091e+06
2.24594e+06
-1.29874e+06
137969
4.16625e+06
-4.14329e+06
55425.1
5.24711e+06
-5.2295e+06
-45298.4
45295.6
-2.49989e+06
-2.63791e+06
-71250.7
-1.97379e+06
2.64036e+06
-117776
836210
-831284
2.49198e+06
-2.4754e+06
-148257
-1.29532e+06
-211429
140957
-1.77804e+06
138258
-136436
2.94583e+06
5170.41
-25820.5
2824.96
20465.8
-1.44427e+06
1.45633e+06
13950.1
-120239
119903
654057
1.21153e+06
-1.2015e+06
-105919
1.64429e+06
218005
7.38581e+06
-7.35264e+06
79698.7
-55753
-12664.4
-87250.1
-368734
39671.9
176660
-492399
-3.22109e+06
3.23211e+06
144378
103209
286.275
16975.1
-1.26424e+06
40874.3
146252
-87665
-5.96447e+06
5.98947e+06
-3.05207e+06
-56415.7
3.04975e+06
793373
8.0161e+06
-7.98174e+06
98295
-3.19838e+06
-138591
3.17844e+06
557647
-567786
-475140
473404
73846.8
-73231.5
122961
-54366.5
1.92447e+06
-1.90737e+06
-13998.3
-1.18248e+06
-268581
201682
387124
2.57329e+06
-2.56564e+06
-569135
-115866
-337116
-3.02302e+06
3.03473e+06
2.70462e+06
-2.69666e+06
-28576.5
-7710.26
20903
-63629.7
-225929
-216071
380327
-379320
43504.9
10950.5
457138
32367.4
90785.8
-747391
749936
49291.2
1.46104e+06
-29632.3
-2.52055e+06
2.54074e+06
1.06711e+06
-1.0566e+06
-1.67876e+06
-90712.2
2.04609e+06
-2.03436e+06
-327547
-1.42708e+06
116250
327289
-1.0266e+06
3.23528e+06
-3.22138e+06
-61290.3
-1.28262e+06
-609435
610694
886580
-882294
108162
3.21212e+06
-3.19854e+06
5.56105e+06
-5.53593e+06
154295
-161616
-1.61115e+06
-805288
598140
-70047.4
2.9157e+06
-2.90174e+06
76702.4
-3.20397e+06
3.21837e+06
199123
309540
-4167.06
1.40455e+06
-1.39801e+06
-1415.72
-454997
5590.49
72008.1
-674.846
-1.00418e+06
1.00651e+06
-133304
443176
1.30663e+06
3.87781e+06
-3.86367e+06
-8.13336e+06
8.16829e+06
-1.90038e+06
-1.04579e+06
-3.11486e+06
3.1353e+06
-8.64261e+06
8.67906e+06
-2.15384e+06
2.16972e+06
-1.51176e+06
1.51767e+06
353663
581977
7.10866e+06
-7.08005e+06
109554
619349
-618216
860528
81079.5
98379.7
834163
-836279
2.64106e+06
-1.78076e+06
151183
-93646.2
2.59015e+06
1.30083e+06
-30516.8
134735
-794563
3.42535e+06
-3.41314e+06
4.69726e+06
-4.67882e+06
1.64032e+06
-1.6326e+06
-2.62139e+06
982286
-978196
-586229
576824
48404.4
37107.9
-113568
99467.4
2.9366e+06
-2.91724e+06
-1.34147e+06
1.34602e+06
8.90082e+06
-8.86305e+06
61635.8
-270593
-11680.9
187620
-155689
-1.00318e+06
1.01502e+06
-37153.1
-19140.4
-796131
30915.8
-691972
-2.5719e+06
-2.96981e+06
2.9831e+06
-960832
96912.9
-27704
-2.31449e+06
2.33419e+06
132343
1.88241e+06
-1.86375e+06
-13021.5
-487458
-355421
-183602
183778
-244228
6.12585e+06
-6.09793e+06
-1.44743e+06
338780
211846
1.50886e+06
-35465.2
-16083.5
105097
-103846
-744832
50197.8
-462319
-670313
2.39816e+06
2.59972e+06
99393.5
1.06983e+06
-847935
908684
79322.5
-57554
-3.05189e+06
835731
555825
-4527.16
-99304.6
6.96671e+06
-6.93674e+06
946395
3.05605e+06
337000
-334060
-464475
407819
-408357
-2.28587e+06
2.30734e+06
265927
-8.24062e+06
8.27431e+06
105682
1.88861e+06
45380.7
27905.2
116957
1.41345e+06
-1.40524e+06
87664.8
2.83876e+06
-2.82125e+06
-63782.3
37702.7
26136.3
-25808.4
-981525
-333538
-152867
6.95414e+06
-6.92303e+06
1.16969e+06
-74273.3
356659
164411
621985
-620035
3.56713e+06
-3.55499e+06
20362.7
-121166
-582569
138042
754158
947403
179773
-179075
202318
-29932.9
83524.9
30211.4
-179846
32159.4
107377
-154353
332694
4.78889e+06
-4.76516e+06
-35869.2
-2.51651e+06
2.53607e+06
-847435
843940
52391.5
-2.35793e+06
2.37507e+06
-1.1895e+06
-1.7036e+06
2.58877e+06
354404
164253
-172515
174440
-3.12055e+06
3.13487e+06
787684
227521
-224914
7.95381e+06
-7.91985e+06
-9038.77
-3.00388e+06
3.03721e+06
38676.6
142924
180337
2.17376e+06
-2.16524e+06
-915850
-18332.1
1.4149e+06
-1.40929e+06
-105693
-25988.3
12302.4
1.08793e+06
-3.25015e+06
3.26261e+06
757936
141867
4160.61
-607772
3.86459e+06
-3.8432e+06
1603.39
2.96106e+06
-2.73147e+06
-1.77545e+06
3.72567e+06
-3.70613e+06
2.74391e+06
-8098.51
559315
-106912
705004
-703627
450323
-264188
2.63022e+06
-2.61817e+06
2.3601e+06
-2.3474e+06
121195
44956.4
-2.90852e+06
53020.7
-4.89866e+06
4.92186e+06
-16861.9
166527
25934.6
-37896.4
-1.27226e+06
-2.44768e+06
2.47004e+06
123686
25829.5
-197860
193812
-162061
6.25333e+06
-6.22433e+06
-60703.9
-21431.3
2.23764e+06
-2.22934e+06
-463774
-42810
-196481
-19377.3
34572.4
-1.10951e+06
-86923
-141115
1.18673e+06
20115.3
2.27904e+06
487222
39431.5
3.05522e+06
-3.04076e+06
433548
-428421
-476873
-35545.7
2.05514e+06
-2.0442e+06
-1.56054e+06
166090
-2.89608e+06
737896
-735607
-1.77429e+06
1.77985e+06
-577425
118094
-268282
233258
-40873.8
2.93994e+06
1.99434e+06
31716.1
-3.05529e+06
-186100
1.53686e+06
26870.7
-27155.6
-14978.7
128472
417869
-413023
-296205
491992
-492847
1.67301e+06
190111
-188703
1.81326e+06
1.02743e+06
-1.02381e+06
45806.4
53983.1
1.99947e+06
100910
13974.4
-8665.38
3.45803e+06
-3.44539e+06
-112414
115483
-1.52326e+06
1.71925e+06
-1.71043e+06
288712
-5.8053e+06
5.82858e+06
1.93572e+06
-1.91892e+06
-1.98864e+06
2.01424e+06
-581779
16209.4
2.66709e+06
-2.6474e+06
338365
292738
-1.38001e+06
1.38416e+06
-23270.3
-52988.3
52906.4
393140
-388344
-802757
801466
8.6398e+06
-8.60401e+06
-1.38471e+06
1.38862e+06
70272.8
288448
-126762
79228.8
109989
-464297
-1.29402e+06
1.3026e+06
-1.0511e+06
607409
-29646.8
-3.73678e+06
3.7508e+06
264032
33626.7
712094
396069
-391813
-69566.1
-134457
-184409
20942.5
42962.2
140862
-1.14519e+06
83999
-1.37879e+06
109767
-111619
2.53501e+06
-2.52422e+06
-308537
1.53505e+06
1.02176e+06
-60752.5