/*--------------------------------*- C++ -*----------------------------------*\
| =========                 |                                                 |
| \\      /  F ield         | OpenFOAM: The Open Source CFD Toolbox           |
|  \\    /   O peration     | Version:  v3.0+                                 |
|   \\  /    A nd           | Web:      www.OpenFOAM.com                      |
|    \\/     M anipulation  |                                                 |
\*---------------------------------------------------------------------------*/
FoamFile
{
    version     2.0;
    format      ascii;
    class       volVectorField;
    location    "5000";
    object      D;
}
// * * * * * * * * * * * * * * * * * * * * * * * * * * * * * * * * * * * * * //

dimensions      [0 1 0 0 0 0 0];

internalField   nonuniform List<vector> 
24076
(
(3.9632e-06 3.90427e-06 0)
(4.47853e-09 4.99231e-08 0)
(3.50548e-11 7.03963e-10 0)
(3.55448e-11 6.83639e-10 0)
(1.03947e-06 3.0452e-06 0)
(5.72051e-09 5.93124e-08 0)
(4.32713e-09 5.01895e-08 0)
(4.05634e-06 3.93272e-06 0)
(-3.46483e-12 5.22671e-11 0)
(9.19118e-06 2.85347e-05 0)
(-1.22038e-06 2.60322e-06 0)
(9.37222e-06 2.88185e-05 0)
(1.60674e-06 1.67353e-06 0)
(9.56153e-07 3.02984e-06 0)
(9.99878e-06 2.32788e-05 0)
(1.70033e-06 2.19136e-05 0)
(-1.73448e-05 0.000145138 0)
(1.96287e-05 0.00014523 0)
(1.02689e-06 1.20429e-05 0)
(1.91402e-06 2.20352e-05 0)
(9.74696e-06 2.31037e-05 0)
(-1.18457e-06 5.13521e-06 0)
(5.59886e-09 8.01713e-08 0)
(-1.17444e-06 2.53986e-06 0)
(3.22976e-07 1.31881e-06 0)
(8.64101e-07 1.19903e-05 0)
(-1.30561e-07 2.09549e-07 0)
(5.59e-09 5.84768e-08 0)
(1.23016e-07 2.60217e-05 0)
(2.54072e-07 1.29833e-06 0)
(-2.44883e-07 2.59905e-05 0)
(1.19933e-10 1.2127e-08 0)
(3.59469e-06 1.45429e-05 0)
(2.06908e-06 5.96659e-06 0)
(3.77446e-06 1.45982e-05 0)
(6.8966e-06 2.11348e-05 0)
(1.68143e-06 1.74372e-06 0)
(-1.72674e-05 0.000146221 0)
(1.95781e-05 0.000146324 0)
(3.24914e-06 1.93496e-06 0)
(-6.32422e-07 3.86829e-07 0)
(-7.69792e-07 5.33294e-05 0)
(1.48501e-06 2.16332e-06 0)
(1.97571e-06 5.9733e-06 0)
(6.63786e-06 2.10236e-05 0)
(-6.70664e-06 1.982e-05 0)
(7.56602e-10 5.41524e-08 0)
(3.21874e-06 2.85074e-05 0)
(-1.38873e-07 2.13943e-07 0)
(-4.85292e-06 2.11028e-05 0)
(1.1594e-10 1.8109e-09 0)
(-1.16011e-07 1.90731e-07 0)
(-9.48923e-12 6.74761e-11 0)
(5.4984e-09 6.43529e-08 0)
(-3.46615e-12 5.59552e-11 0)
(9.34999e-06 7.7647e-05 0)
(1.40647e-06 5.25604e-06 0)
(5.88723e-06 8.55639e-06 0)
(4.09504e-06 0.000387456 0)
(1.00585e-05 7.77513e-05 0)
(-6.74983e-06 2.00817e-05 0)
(-1.13321e-09 2.42886e-08 0)
(-4.59941e-06 8.56272e-06 0)
(-4.59717e-06 2.09741e-05 0)
(-7.87574e-07 2.82392e-06 0)
(5.77064e-06 8.55463e-06 0)
(1.78724e-06 4.80009e-06 0)
(-7.10654e-07 2.81443e-06 0)
(2.05471e-09 3.64896e-08 0)
(1.81133e-06 4.71915e-06 0)
(2.84869e-06 0.000384533 0)
(-4.0378e-09 1.05401e-07 0)
(-9.87915e-06 5.56923e-05 0)
(-5.27057e-10 5.68495e-09 0)
(-6.24656e-07 3.81879e-07 0)
(2.94947e-06 2.84411e-05 0)
(-1.27599e-06 5.20183e-06 0)
(-1.02419e-05 5.61331e-05 0)
(3.56557e-06 5.84697e-06 0)
(-4.4991e-06 8.43199e-06 0)
(1.14427e-09 5.45461e-08 0)
(4.49856e-06 4.96597e-05 0)
(-3.56069e-07 6.83193e-06 0)
(3.40605e-08 2.13479e-06 0)
(-3.76412e-07 3.23184e-07 0)
(-8.32673e-12 5.82045e-11 0)
(1.19523e-05 0.000241218 0)
(-1.06304e-05 8.23687e-05 0)
(4.38174e-07 0.000383936 0)
(9.98943e-06 0.000241387 0)
(4.11977e-06 4.99766e-05 0)
(2.70039e-06 0.000389625 0)
(-1.86961e-06 9.09778e-06 0)
(1.49019e-06 5.30262e-06 0)
(-1.30165e-09 2.19644e-06 0)
(-1.05791e-06 1.10808e-06 0)
(-2.01712e-06 0.000163548 0)
(7.36929e-06 0.000249014 0)
(2.89912e-11 1.17598e-08 0)
(1.63744e-06 3.59592e-06 0)
(-4.14519e-07 6.95505e-06 0)
(-9.01018e-07 1.80931e-06 0)
(-4.93705e-07 5.3825e-05 0)
(3.49793e-06 5.74994e-06 0)
(-8.97295e-07 3.68432e-05 0)
(-6.85827e-07 4.75335e-07 0)
(-1.58811e-10 2.37431e-09 0)
(-5.84979e-10 1.00221e-07 0)
(-2.70418e-06 7.2008e-06 0)
(-2.8641e-06 3.97403e-05 0)
(-2.27391e-06 0.000164944 0)
(2.54757e-06 2.88746e-05 0)
(-2.67804e-12 1.57114e-10 0)
(-1.25896e-09 2.37847e-08 0)
(1.7235e-05 0.000313255 0)
(9.95005e-11 1.76599e-09 0)
(-1.05499e-06 2.70381e-06 0)
(-2.49498e-06 3.95932e-05 0)
(7.04437e-06 0.000250606 0)
(-3.28701e-06 3.96325e-05 0)
(6.05115e-07 3.23043e-05 0)
(-5.50198e-06 3.19878e-05 0)
(-6.63649e-07 4.8598e-07 0)
(3.16041e-06 1.88304e-06 0)
(6.67658e-06 2.4504e-05 0)
(-1.08531e-05 8.30913e-05 0)
(-2.73493e-06 7.31932e-06 0)
(7.69094e-06 4.07252e-05 0)
(-1.18856e-06 3.65505e-05 0)
(4.66386e-10 8.48548e-09 0)
(-5.48532e-06 3.16544e-05 0)
(-3.50838e-06 3.93424e-05 0)
(-3.86794e-06 7.54836e-05 0)
(5.1987e-09 8.09433e-08 0)
(-1.82051e-06 9.21809e-06 0)
(-1.56748e-07 2.08745e-07 0)
(1.26845e-06 8.68861e-06 0)
(1.40928e-06 2.10379e-06 0)
(3.05284e-06 0.000221261 0)
(1.55629e-06 9.43265e-06 0)
(1.69218e-06 9.46086e-06 0)
(-3.28985e-12 1.48105e-10 0)
(-1.07537e-08 2.57628e-08 0)
(-2.64187e-06 0.000185135 0)
(1.49389e-05 0.000191369 0)
(2.66217e-06 2.85913e-05 0)
(-4.10511e-06 7.61084e-05 0)
(9.78663e-06 0.000112408 0)
(1.19894e-06 1.03712e-05 0)
(1.74841e-10 3.9932e-09 0)
(-4.72508e-06 1.77778e-05 0)
(-3.35376e-13 2.59111e-12 0)
(1.50456e-06 5.25871e-07 0)
(1.52437e-06 2.78927e-06 0)
(4.14796e-06 8.28737e-06 0)
(2.49893e-06 5.09554e-05 0)
(3.35149e-06 2.40784e-06 0)
(-6.29362e-07 3.25787e-05 0)
(1.18952e-06 8.78045e-06 0)
(-2.43237e-11 8.63565e-10 0)
(1.72832e-08 -4.09763e-08 0)
(-3.46829e-12 4.19207e-11 0)
(1.16634e-05 3.03939e-05 0)
(-3.08665e-06 6.08591e-06 0)
(1.19058e-06 7.98452e-05 0)
(2.34821e-05 0.000222203 0)
(-2.14582e-05 0.000222207 0)
(-1.7739e-06 1.31381e-05 0)
(-1.21018e-06 3.91726e-06 0)
(-4.87241e-07 2.47629e-07 0)
(2.86053e-06 8.2983e-06 0)
(1.92435e-09 9.60544e-08 0)
(2.80335e-07 1.51245e-05 0)
(2.8329e-06 1.24603e-05 0)
(-3.06324e-06 1.31667e-05 0)
(5.09603e-06 1.31693e-05 0)
(-1.06672e-05 7.7821e-05 0)
(1.26617e-05 7.78258e-05 0)
(1.11113e-05 3.28883e-05 0)
(-5.27857e-06 1.64458e-05 0)
(-4.35676e-06 8.41923e-06 0)
(-8.49205e-10 6.22317e-09 0)
(2.64571e-06 5.6886e-06 0)
(-1.65031e-07 -1.6106e-08 0)
(-1.80808e-07 -6.99314e-09 0)
(-9.6454e-08 3.84162e-06 0)
(-1.22818e-06 4.0148e-06 0)
(-5.63555e-07 4.82352e-07 0)
(-1.58818e-06 3.08595e-06 0)
(9.76813e-07 5.1733e-07 0)
(1.12725e-09 1.52601e-08 0)
(-3.22859e-06 1.79942e-05 0)
(-1.23805e-05 0.000214966 0)
(-6.50616e-06 5.00606e-05 0)
(5.89726e-06 4.70647e-05 0)
(7.13791e-06 1.38811e-05 0)
(5.45495e-09 6.13315e-08 0)
(1.14402e-05 7.69375e-05 0)
(-9.43692e-06 7.69256e-05 0)
(-5.11016e-06 1.38794e-05 0)
(2.64236e-06 5.584e-06 0)
(-5.14845e-07 4.3956e-07 0)
(-2.18483e-05 0.000246617 0)
(2.38758e-05 0.000246617 0)
(3.61753e-06 0.000192384 0)
(1.35357e-06 3.13701e-06 0)
(-5.93472e-06 1.87373e-05 0)
(-1.16217e-05 0.000107022 0)
(2.86704e-06 1.95998e-06 0)
(5.52992e-08 1.51908e-05 0)
(-2.44768e-09 6.46638e-08 0)
(1.52577e-06 1.72073e-05 0)
(-4.45921e-08 1.44646e-07 0)
(-4.8214e-06 1.75009e-05 0)
(-3.68647e-12 4.15873e-11 0)
(4.6381e-07 1.25631e-05 0)
(-1.62582e-07 2.11952e-07 0)
(-4.68028e-06 1.12074e-05 0)
(-2.47582e-05 0.000374192 0)
(2.67867e-05 0.000374192 0)
(-5.0221e-07 0.000138066 0)
(1.03326e-05 2.3197e-05 0)
(4.62382e-06 3.90746e-06 0)
(-1.01511e-06 6.19694e-06 0)
(7.56651e-06 1.63229e-05 0)
(-5.7595e-11 3.62352e-10 0)
(-4.33974e-11 7.92154e-10 0)
(-6.8647e-06 4.20075e-05 0)
(-7.33905e-11 5.00086e-10 0)
(8.6598e-06 0.000239035 0)
(-3.14249e-11 8.05976e-10 0)
(-3.30024e-06 1.82179e-05 0)
(-8.28015e-11 1.44195e-09 0)
(-9.51939e-10 7.09457e-09 0)
(1.51904e-06 6.82816e-06 0)
(5.76918e-06 8.72971e-05 0)
(-7.86322e-07 6.9597e-07 0)
(7.7703e-07 1.84332e-07 0)
(-6.6073e-06 7.83243e-05 0)
(-1.27785e-05 5.60636e-05 0)
(1.48476e-05 5.60793e-05 0)
(-3.88754e-07 3.27301e-07 0)
(-8.59581e-06 9.97245e-05 0)
(-7.7487e-06 9.89581e-05 0)
(1.86965e-05 0.000103647 0)
(-1.67612e-05 0.000103673 0)
(-6.54597e-06 5.68072e-05 0)
(7.38015e-06 1.39707e-05 0)
(-5.35288e-06 1.39691e-05 0)
(-1.07463e-06 2.31595e-06 0)
(-1.67431e-05 0.000186673 0)
(5.41416e-06 0.000161097 0)
(5.72751e-08 -4.67751e-08 0)
(5.04744e-06 6.6763e-06 0)
(1.95126e-05 0.000104096 0)
(-1.74857e-05 0.000104096 0)
(2.0578e-09 3.133e-08 0)
(-5.385e-11 1.0395e-08 0)
(-6.54112e-08 1.49308e-07 0)
(7.61519e-06 0.000227254 0)
(1.43791e-06 2.72893e-06 0)
(5.34735e-06 5.26516e-06 0)
(5.50538e-06 1.56712e-05 0)
(-2.30766e-12 4.44777e-11 0)
(-1.73649e-06 8.01676e-06 0)
(4.18294e-07 1.2949e-06 0)
(-5.83846e-06 1.85227e-05 0)
(1.93027e-06 4.63537e-05 0)
(-6.20109e-06 5.03804e-05 0)
(3.1904e-11 4.70576e-10 0)
(-1.32032e-05 0.000177398 0)
(1.53194e-05 0.000177434 0)
(4.92799e-06 6.61333e-06 0)
(2.09488e-06 2.95287e-05 0)
(-2.0448e-07 2.47902e-07 0)
(-7.16409e-06 7.00637e-05 0)
(-1.10849e-05 8.4935e-05 0)
(2.02579e-09 9.51828e-08 0)
(-5.55698e-06 2.03974e-05 0)
(1.19009e-05 3.06893e-05 0)
(1.3385e-10 2.9074e-09 0)
(-2.25203e-07 0.000197485 0)
(1.12261e-06 8.41374e-05 0)
(-1.22344e-07 1.8079e-07 0)
(9.25971e-07 7.75623e-06 0)
(-7.58684e-07 6.52206e-07 0)
(-1.18049e-09 1.16478e-08 0)
(5.95936e-06 1.57134e-05 0)
(-2.1439e-06 3.09647e-06 0)
(2.53655e-06 4.9364e-06 0)
(-3.95193e-06 0.000184834 0)
(4.13704e-06 4.74504e-06 0)
(2.76218e-06 1.26076e-05 0)
(1.50465e-06 3.67566e-06 0)
(2.43543e-05 0.000223964 0)
(-2.23271e-05 0.000223963 0)
(-3.55102e-06 1.86441e-05 0)
(1.4371e-11 7.26664e-10 0)
(-2.60918e-10 2.8264e-09 0)
(5.60701e-06 3.40648e-05 0)
(-6.83152e-06 5.74075e-05 0)
(8.93208e-06 5.74486e-05 0)
(-9.70169e-06 0.000114172 0)
(1.17616e-05 0.000114259 0)
(-7.68914e-07 6.3316e-07 0)
(-4.04005e-12 1.07874e-10 0)
(-6.51764e-07 0.000140839 0)
(-6.66597e-06 4.16182e-05 0)
(-1.36752e-07 6.13396e-06 0)
(-3.77946e-06 0.000167007 0)
(-1.18661e-06 2.67481e-05 0)
(1.46622e-06 4.62273e-05 0)
(2.96045e-12 8.64785e-11 0)
(-4.47349e-06 2.53643e-05 0)
(-2.05885e-06 1.7491e-05 0)
(6.31829e-06 8.35954e-06 0)
(4.73654e-06 2.52841e-05 0)
(-2.30986e-10 1.36577e-09 0)
(-1.5446e-06 1.86513e-06 0)
(5.21398e-07 1.23935e-05 0)
(9.34129e-06 6.2311e-05 0)
(-5.54662e-06 1.63469e-05 0)
(-4.1647e-06 2.52953e-05 0)
(-1.26481e-09 1.84816e-08 0)
(5.11216e-09 6.39412e-08 0)
(5.25822e-06 1.57852e-05 0)
(2.26885e-05 0.00016887 0)
(-2.06687e-05 0.000168862 0)
(2.94361e-06 2.05185e-06 0)
(-1.69617e-07 2.75745e-06 0)
(-3.28645e-07 7.87546e-06 0)
(1.32804e-05 7.72717e-05 0)
(-1.12565e-05 7.72703e-05 0)
(1.93718e-06 8.4419e-05 0)
(6.0712e-06 3.85294e-05 0)
(6.22382e-06 1.47336e-05 0)
(-1.11149e-06 2.67327e-06 0)
(6.22665e-09 6.91127e-08 0)
(-3.46848e-06 1.02505e-05 0)
(9.8296e-07 7.69348e-07 0)
(-3.73999e-06 6.70016e-06 0)
(-3.45482e-07 0.000149534 0)
(1.93049e-09 2.87962e-08 0)
(-6.51401e-06 8.56839e-05 0)
(1.01002e-06 3.23524e-05 0)
(-8.08427e-07 7.08128e-07 0)
(-6.80042e-08 1.55387e-07 0)
(9.36137e-08 4.37679e-06 0)
(2.46815e-06 5.17127e-05 0)
(8.5195e-06 2.82497e-05 0)
(-1.02229e-06 4.07037e-06 0)
(3.65789e-07 2.86577e-06 0)
(-6.66095e-06 4.00846e-05 0)
(1.64449e-06 1.29174e-05 0)
(4.73811e-06 5.53894e-06 0)
(5.56685e-06 4.66574e-05 0)
(4.5561e-06 1.3977e-05 0)
(1.40251e-06 1.0846e-05 0)
(-1.39116e-05 0.00021387 0)
(4.47722e-07 1.07908e-06 0)
(1.03296e-06 3.12031e-05 0)
(4.70176e-06 8.32194e-06 0)
(2.07707e-06 4.86537e-06 0)
(-1.18786e-09 2.90586e-08 0)
(-4.63349e-06 9.23205e-06 0)
(7.01166e-08 4.61323e-09 0)
(-8.54502e-07 2.6879e-05 0)
(8.08882e-06 2.82421e-05 0)
(3.32701e-06 5.79495e-06 0)
(1.41107e-06 1.70349e-05 0)
(4.84443e-06 5.58156e-06 0)
(8.05149e-07 1.35981e-06 0)
(9.85065e-06 2.44157e-05 0)
(-2.64705e-08 1.22328e-07 0)
(7.07136e-06 1.36727e-05 0)
(-5.04371e-06 1.36706e-05 0)
(-8.89482e-11 3.38608e-09 0)
(-1.48974e-05 0.000149718 0)
(1.69076e-05 0.00014954 0)
(-1.18226e-07 1.94107e-07 0)
(-6.23896e-07 5.38285e-07 0)
(-9.29161e-07 3.28884e-05 0)
(1.39473e-06 8.18231e-07 0)
(-4.5314e-07 1.69051e-06 0)
(-7.51311e-06 5.60942e-05 0)
(1.20308e-09 2.20737e-08 0)
(-1.49473e-06 1.25205e-05 0)
(2.17918e-09 9.57011e-08 0)
(8.87591e-12 5.15812e-10 0)
(3.89091e-06 4.99642e-06 0)
(2.49547e-07 2.58816e-06 0)
(-2.33064e-05 0.00024559 0)
(2.53339e-05 0.00024559 0)
(9.08939e-06 0.000228232 0)
(-1.24024e-05 0.000106374 0)
(-4.86506e-06 1.35278e-05 0)
(6.89303e-06 1.353e-05 0)
(-2.11697e-06 4.53293e-06 0)
(-6.9684e-06 5.60461e-05 0)
(1.59739e-06 3.66648e-06 0)
(-5.45598e-06 2.55245e-05 0)
(1.01327e-05 8.50596e-05 0)
(-5.84309e-12 3.98708e-10 0)
(-6.8976e-07 2.35826e-06 0)
(8.86215e-06 1.9955e-05 0)
(-1.25856e-05 0.000178857 0)
(1.47557e-05 0.000178889 0)
(4.03533e-06 3.34848e-05 0)
(1.50992e-06 1.40875e-05 0)
(-2.58294e-06 0.000197447 0)
(-7.98058e-06 2.06401e-05 0)
(1.18857e-05 4.44967e-05 0)
(4.63591e-12 4.93383e-10 0)
(7.48104e-07 1.45739e-05 0)
(6.2227e-06 0.0001627 0)
(9.40618e-07 5.53693e-07 0)
(1.30813e-05 0.000189286 0)
(5.5578e-12 1.32158e-10 0)
(-2.1549e-06 3.15012e-06 0)
(-9.31502e-06 0.000113235 0)
(1.13736e-05 0.000113317 0)
(-1.73455e-06 8.13288e-06 0)
(2.33904e-06 2.45815e-06 0)
(-6.14312e-07 1.17419e-06 0)
(6.73878e-06 0.000244374 0)
(-1.06518e-06 4.00562e-06 0)
(1.44001e-06 3.14034e-06 0)
(2.9274e-06 4.96086e-06 0)
(-3.33219e-07 7.9902e-06 0)
(-6.3955e-08 1.48606e-07 0)
(4.32112e-06 6.92716e-06 0)
(-2.33005e-06 2.49981e-05 0)
(-5.52828e-08 3.91043e-06 0)
(1.27e-06 6.08499e-06 0)
(1.24925e-05 0.000180825 0)
(-1.24788e-06 1.96154e-05 0)
(7.39626e-09 6.4284e-08 0)
(5.00949e-06 0.000154155 0)
(-6.5231e-07 5.42808e-07 0)
(1.9553e-06 3.27564e-06 0)
(4.12179e-10 1.53614e-08 0)
(-8.68036e-08 1.52213e-07 0)
(-1.42911e-06 2.36232e-06 0)
(2.5113e-06 4.85651e-06 0)
(8.5109e-07 8.05693e-05 0)
(5.19933e-06 5.35914e-06 0)
(4.68144e-09 5.43313e-08 0)
(1.13816e-05 4.47119e-05 0)
(-4.84647e-06 5.48311e-05 0)
(2.46289e-06 1.08995e-05 0)
(1.24939e-06 5.98999e-06 0)
(-6.47739e-06 7.9184e-05 0)
(1.41158e-05 0.000269157 0)
(1.04856e-05 5.07156e-05 0)
(2.20204e-06 2.8416e-06 0)
(-2.00115e-10 5.48742e-09 0)
(1.48813e-05 0.000313453 0)
(1.46336e-09 3.45255e-08 0)
(-6.46888e-10 4.24386e-09 0)
(2.36885e-07 1.98846e-06 0)
(-5.42827e-09 6.16211e-06 0)
(1.18125e-05 3.90041e-05 0)
(3.37495e-06 5.72496e-06 0)
(-1.71673e-10 2.02743e-09 0)
(-5.03443e-12 3.57548e-11 0)
(-1.57603e-05 0.000124547 0)
(1.80149e-05 0.000124615 0)
(8.12484e-06 4.09262e-05 0)
(-1.40069e-09 1.7367e-08 0)
(-1.17011e-06 1.28735e-06 0)
(-4.00278e-12 1.3019e-10 0)
(7.45966e-07 1.063e-05 0)
(-1.585e-06 7.47795e-06 0)
(-9.36045e-06 4.47324e-05 0)
(-1.3656e-05 0.000149498 0)
(1.5667e-05 0.000149321 0)
(3.5955e-06 3.85627e-06 0)
(6.10979e-06 3.62003e-05 0)
(-1.08356e-10 1.22457e-09 0)
(2.74093e-06 6.05729e-06 0)
(1.66422e-06 2.27023e-06 0)
(-5.97626e-06 5.66911e-05 0)
(-4.82139e-06 4.60708e-05 0)
(6.40215e-06 8.51976e-06 0)
(3.08522e-06 7.78834e-06 0)
(1.30508e-06 1.32365e-06 0)
(4.93484e-06 3.11591e-05 0)
(-3.12475e-06 6.01425e-06 0)
(9.33355e-06 0.000104477 0)
(9.04243e-06 6.31062e-05 0)
(2.16732e-05 0.000167729 0)
(-1.96534e-05 0.00016772 0)
(-1.82216e-08 1.23075e-07 0)
(1.00252e-05 2.06517e-05 0)
(-1.69751e-06 7.4596e-06 0)
(7.86996e-06 0.000122586 0)
(-7.26881e-10 5.87474e-09 0)
(-1.55911e-05 0.000164421 0)
(-2.79725e-10 2.47149e-09 0)
(1.11223e-05 9.70284e-05 0)
(-1.36881e-06 1.26104e-05 0)
(8.16573e-06 1.78067e-05 0)
(-9.66451e-12 3.90573e-10 0)
(6.25173e-07 0.000239291 0)
(-6.21564e-09 5.64594e-08 0)
(-5.30996e-07 1.44845e-05 0)
(-4.50473e-07 1.11531e-05 0)
(5.65684e-06 1.52813e-05 0)
(-3.36483e-06 5.79985e-06 0)
(-6.2197e-06 2.91475e-05 0)
(-1.13249e-05 5.11994e-05 0)
(-1.66274e-07 2.27818e-07 0)
(1.32728e-05 0.00018221 0)
(1.1203e-05 5.1759e-05 0)
(5.52694e-13 4.83055e-11 0)
(2.56292e-06 1.21016e-06 0)
(1.22341e-05 0.000212152 0)
(-9.2933e-09 6.1199e-08 0)
(-1.87977e-06 4.83208e-06 0)
(6.3353e-06 9.15417e-05 0)
(1.89299e-07 1.92528e-06 0)
(1.93465e-06 0.0001262 0)
(-1.53522e-06 3.00664e-06 0)
(-5.35465e-10 5.20517e-09 0)
(-5.70772e-07 6.12181e-07 0)
(4.78706e-10 1.08135e-08 0)
(1.64081e-06 1.4257e-05 0)
(-1.66633e-05 0.000272462 0)
(1.85708e-05 0.000272418 0)
(-3.19217e-06 2.48649e-05 0)
(-1.4389e-09 1.79909e-08 0)
(4.40236e-06 4.00666e-06 0)
(-1.14473e-09 9.2707e-09 0)
(8.04875e-06 3.02068e-05 0)
(2.4425e-05 0.000389606 0)
(-2.24156e-05 0.000389586 0)
(-1.02652e-11 1.55077e-10 0)
(-8.05831e-09 1.11494e-07 0)
(4.51205e-06 3.82804e-06 0)
(-3.42906e-06 3.29747e-05 0)
(-2.13086e-06 4.44361e-06 0)
(2.56785e-07 2.51917e-06 0)
(8.87002e-06 0.000244225 0)
(-1.37268e-06 4.17159e-05 0)
(5.99824e-11 7.52604e-10 0)
(1.07541e-06 4.95297e-05 0)
(1.99379e-05 0.000257915 0)
(-1.7776e-05 0.000258016 0)
(-1.08226e-11 6.76436e-10 0)
(1.11795e-10 2.83079e-09 0)
(6.11263e-06 4.14906e-05 0)
(-1.41013e-05 0.000272773 0)
(1.6016e-05 0.000272919 0)
(4.63601e-06 9.54856e-06 0)
(3.59664e-07 6.92232e-06 0)
(-1.03814e-10 1.16414e-09 0)
(9.37151e-06 0.000260455 0)
(5.32949e-06 1.45435e-05 0)
(4.74747e-07 5.10092e-06 0)
(1.66752e-05 9.93398e-05 0)
(-1.46482e-05 9.9339e-05 0)
(-5.23032e-06 1.4504e-05 0)
(7.26545e-06 1.45018e-05 0)
(4.90275e-06 4.88699e-06 0)
(-1.30533e-12 7.71466e-12 0)
(9.46836e-11 1.98488e-08 0)
(8.98326e-07 1.73924e-05 0)
(3.35442e-06 3.36872e-05 0)
(-1.98884e-10 1.34272e-09 0)
(5.11104e-06 5.84652e-06 0)
(1.30286e-06 2.12171e-06 0)
(2.91646e-12 5.78154e-10 0)
(1.12659e-05 6.37115e-05 0)
(-1.88365e-05 0.000249265 0)
(2.08639e-05 0.000249265 0)
(-6.64873e-07 1.1722e-06 0)
(-2.42525e-06 3.0382e-05 0)
(5.1666e-06 1.45703e-05 0)
(1.37658e-05 0.00027121 0)
(9.99874e-07 1.29949e-05 0)
(-9.72047e-11 1.85413e-09 0)
(4.22915e-06 4.75086e-06 0)
(-2.28708e-11 1.38362e-09 0)
(-3.39651e-09 5.89286e-08 0)
(-5.44835e-06 5.45786e-05 0)
(-4.87938e-07 3.91559e-07 0)
(-7.18915e-07 1.45947e-05 0)
(-1.76686e-06 2.2523e-06 0)
(2.12031e-05 0.000259724 0)
(-1.91006e-05 0.000259781 0)
(4.73373e-06 0.000152868 0)
(1.03516e-05 0.000262688 0)
(-2.49971e-06 3.07102e-05 0)
(-3.16609e-07 2.97995e-07 0)
(2.66641e-06 6.10758e-06 0)
(-3.66749e-08 1.31264e-07 0)
(4.85038e-06 3.14559e-05 0)
(-1.71915e-10 2.2334e-09 0)
(-3.13377e-06 7.03597e-06 0)
(-6.64549e-06 2.9345e-05 0)
(-3.46527e-06 1.52825e-05 0)
(1.58381e-06 1.30739e-05 0)
(-1.27646e-06 1.99104e-05 0)
(1.84687e-06 2.82212e-06 0)
(-1.75693e-07 4.35943e-06 0)
(1.44054e-05 0.000190006 0)
(2.59469e-06 1.67671e-06 0)
(4.49875e-06 9.58943e-06 0)
(-4.59772e-06 1.13246e-05 0)
(5.92238e-06 3.65796e-05 0)
(6.13387e-07 2.98485e-06 0)
(3.00618e-06 1.16018e-05 0)
(-2.01097e-06 8.86875e-05 0)
(-5.05158e-07 3.99946e-07 0)
(1.05721e-05 5.13349e-05 0)
(1.0616e-05 2.3496e-05 0)
(-6.46433e-07 5.6035e-07 0)
(-9.76454e-06 0.00019875 0)
(1.18656e-05 0.000198707 0)
(4.3652e-09 6.41045e-08 0)
(-2.91362e-06 0.000232718 0)
(-1.07097e-06 6.30765e-06 0)
(3.83688e-11 1.28688e-09 0)
(6.1967e-06 1.58166e-05 0)
(-1.33439e-05 8.42312e-05 0)
(2.41143e-05 0.000299634 0)
(-2.21197e-05 0.000299661 0)
(-6.16329e-06 3.48055e-05 0)
(-2.06177e-12 5.79302e-10 0)
(3.88465e-07 1.08755e-05 0)
(-5.7142e-06 2.18988e-05 0)
(1.50658e-06 5.42766e-06 0)
(-7.32391e-06 7.07339e-05 0)
(-2.94664e-06 2.50432e-05 0)
(1.08567e-09 3.29476e-08 0)
(-6.38668e-11 5.18651e-10 0)
(1.40492e-06 1.82271e-05 0)
(9.75021e-06 0.000107134 0)
(2.65018e-06 0.000127184 0)
(-5.4139e-07 1.13131e-05 0)
(-2.23575e-11 1.33567e-09 0)
(-2.33081e-11 1.57439e-10 0)
(-5.43627e-06 2.18798e-05 0)
(-4.60703e-07 2.32747e-07 0)
(-1.46985e-05 0.000163351 0)
(1.47754e-06 5.48622e-07 0)
(2.75427e-06 5.06177e-06 0)
(-1.83898e-06 1.75352e-05 0)
(-2.2688e-10 1.52193e-09 0)
(-5.77957e-07 4.60833e-07 0)
(1.18398e-05 5.15455e-05 0)
(1.28568e-05 5.00611e-05 0)
(1.10578e-05 3.25319e-05 0)
(1.1788e-05 0.000189614 0)
(-5.76138e-06 0.00024991 0)
(7.04119e-06 9.23567e-05 0)
(1.84704e-06 6.93901e-06 0)
(2.36852e-06 1.10446e-05 0)
(9.92491e-06 2.47849e-05 0)
(-9.86706e-06 4.45142e-05 0)
(-3.67713e-06 1.08893e-05 0)
(-7.38337e-06 2.92037e-05 0)
(-1.72449e-12 4.44181e-11 0)
(1.58233e-09 3.53161e-08 0)
(3.64465e-07 1.79626e-06 0)
(-4.00372e-06 8.13967e-06 0)
(-3.80498e-09 1.04657e-07 0)
(-3.52826e-06 3.33167e-05 0)
(1.98347e-06 6.78644e-06 0)
(1.48724e-06 4.93074e-05 0)
(-9.64088e-11 1.7713e-09 0)
(-2.12716e-06 2.0958e-05 0)
(1.76305e-06 7.00778e-06 0)
(-1.75364e-06 3.77528e-05 0)
(-1.03975e-06 1.06882e-06 0)
(2.57682e-05 0.000263155 0)
(-2.37406e-05 0.000263154 0)
(1.27165e-05 0.000214401 0)
(1.83466e-05 9.0805e-05 0)
(-1.63194e-05 9.08055e-05 0)
(-5.44965e-06 2.06314e-05 0)
(-1.48583e-06 1.80616e-06 0)
(1.04814e-09 2.37689e-08 0)
(-3.44807e-06 1.37974e-05 0)
(9.9608e-06 2.13563e-05 0)
(-2.06922e-07 2.48346e-07 0)
(-8.66028e-10 6.26111e-09 0)
(-2.21549e-05 0.000237358 0)
(2.41832e-05 0.000237358 0)
(3.19468e-06 7.84799e-06 0)
(-1.77566e-06 1.04841e-05 0)
(9.40879e-07 7.87612e-06 0)
(5.48649e-06 1.38097e-05 0)
(4.43433e-06 2.98282e-05 0)
(5.35205e-09 6.2097e-08 0)
(2.38837e-06 1.87542e-06 0)
(-3.36569e-06 5.90098e-06 0)
(8.28447e-07 7.96667e-06 0)
(-8.20584e-07 6.28183e-06 0)
(1.65615e-05 0.000100271 0)
(-1.45372e-05 0.000100257 0)
(-5.19037e-09 5.22495e-08 0)
(5.11325e-06 5.93497e-06 0)
(-7.55339e-12 7.8276e-11 0)
(4.632e-06 5.75574e-06 0)
(-6.31625e-11 6.68601e-10 0)
(3.3359e-06 1.33309e-05 0)
(4.01693e-06 2.98407e-05 0)
(1.16131e-07 -8.72224e-08 0)
(-7.93533e-06 2.13468e-05 0)
(-8.816e-11 1.49935e-09 0)
(1.17648e-06 6.16557e-07 0)
(-7.39324e-07 5.88951e-07 0)
(3.45767e-06 1.32171e-05 0)
(1.1837e-09 5.32026e-08 0)
(-9.0861e-06 0.00019994 0)
(1.11449e-05 0.000199934 0)
(-4.25557e-06 8.27997e-06 0)
(8.10345e-06 2.14481e-05 0)
(1.33085e-06 1.80849e-06 0)
(-3.67667e-06 6.6252e-05 0)
(5.27157e-06 6.37494e-06 0)
(-1.30484e-06 1.416e-06 0)
(4.32039e-09 8.34722e-08 0)
(1.04944e-06 1.76551e-05 0)
(7.92608e-07 9.50073e-05 0)
(1.77711e-10 6.69118e-09 0)
(-5.39726e-08 1.58448e-07 0)
(-2.11628e-06 5.28296e-06 0)
(-1.7951e-05 0.000226876 0)
(1.99784e-05 0.000226876 0)
(-6.40588e-07 2.29616e-06 0)
(-3.71431e-12 3.6051e-11 0)
(8.008e-06 0.00021981 0)
(-4.29048e-07 8.70366e-06 0)
(-3.32964e-06 2.18359e-05 0)
(-8.33188e-07 6.38948e-06 0)
(6.30476e-06 4.11305e-05 0)
(-5.54157e-07 4.72184e-07 0)
(-5.1129e-06 1.24336e-05 0)
(7.13828e-06 1.24392e-05 0)
(-1.78832e-06 4.74526e-06 0)
(-2.11334e-08 -9.82848e-09 0)
(1.96735e-09 4.39208e-08 0)
(-6.71201e-06 2.98176e-05 0)
(3.16179e-06 1.17293e-05 0)
(5.16948e-06 6.34752e-06 0)
(4.21157e-06 3.2685e-06 0)
(1.32818e-05 8.1727e-05 0)
(8.31533e-08 -6.09407e-08 0)
(-5.30147e-07 4.51328e-07 0)
(-1.6851e-06 1.44705e-05 0)
(-7.5732e-07 1.07068e-05 0)
(-5.36089e-06 5.39126e-05 0)
(-6.55985e-06 3.51376e-05 0)
(3.91008e-07 5.09968e-06 0)
(-6.50805e-07 4.70854e-07 0)
(4.47748e-07 0.000244763 0)
(-1.03993e-07 2.70128e-06 0)
(5.60238e-06 9.29366e-06 0)
(3.036e-07 3.82976e-06 0)
(-1.01112e-07 1.68837e-07 0)
(-1.67268e-12 1.11902e-10 0)
(-1.01618e-06 3.57137e-06 0)
(-1.45944e-11 1.52843e-09 0)
(-3.3324e-06 1.50994e-05 0)
(-1.86283e-06 7.14361e-06 0)
(6.59576e-06 5.63151e-05 0)
(-6.17885e-08 1.47534e-07 0)
(-5.56951e-08 1.13628e-07 0)
(-2.3761e-05 0.000270201 0)
(2.57888e-05 0.0002702 0)
(-2.09402e-06 3.03285e-06 0)
(-4.96845e-07 6.26115e-07 0)
(-9.61174e-12 3.83251e-11 0)
(4.89618e-10 2.55939e-08 0)
(1.88611e-05 0.000105897 0)
(-1.69172e-05 0.000105906 0)
(-6.94827e-06 0.000122195 0)
(1.28824e-10 6.71084e-09 0)
(3.54841e-06 1.19417e-05 0)
(-7.93493e-07 6.91766e-07 0)
(-4.74855e-06 9.33628e-06 0)
(4.30908e-06 1.46491e-05 0)
(-8.12727e-07 6.01902e-07 0)
(-2.48502e-06 2.05733e-05 0)
(1.84122e-07 -4.02581e-08 0)
(-2.41782e-07 1.62274e-07 0)
(-2.04777e-07 2.22417e-07 0)
(-1.52169e-06 1.95701e-06 0)
(4.4775e-07 1.23688e-06 0)
(2.77521e-06 5.20657e-06 0)
(3.67437e-06 1.32909e-05 0)
(-1.03681e-11 1.43594e-10 0)
(-8.72126e-07 1.74998e-06 0)
(-1.53279e-06 1.86657e-06 0)
(-1.8539e-06 4.15361e-06 0)
(2.05905e-06 6.86291e-06 0)
(3.00638e-09 8.45082e-08 0)
(-1.41864e-05 8.40536e-05 0)
(4.34076e-08 5.65258e-05 0)
(6.66849e-06 0.000239475 0)
(-2.83934e-07 1.21503e-07 0)
(9.91864e-07 2.30044e-05 0)
(2.01485e-09 3.24272e-08 0)
(4.04594e-10 8.4319e-09 0)
(1.03556e-06 7.33636e-07 0)
(1.93283e-06 2.83051e-06 0)
(5.85362e-06 1.52979e-05 0)
(4.70088e-06 0.000158012 0)
(7.19377e-06 0.000323646 0)
(4.94037e-06 0.000366593 0)
(1.67258e-06 8.37811e-06 0)
(2.96907e-06 5.7397e-06 0)
(1.54671e-09 2.66371e-08 0)
(-1.21978e-06 1.28485e-06 0)
(5.1914e-06 5.46486e-06 0)
(3.7213e-06 1.20069e-05 0)
(-6.16344e-12 4.26767e-11 0)
(-1.1623e-07 2.81257e-05 0)
(1.61449e-06 8.26562e-06 0)
(-1.54741e-07 2.21041e-07 0)
(4.08439e-06 5.79517e-05 0)
(4.95397e-06 7.93797e-05 0)
(5.05285e-07 1.44537e-05 0)
(9.71728e-06 2.49034e-05 0)
(2.67361e-06 5.01621e-06 0)
(-3.16087e-10 2.84179e-09 0)
(-3.55777e-06 2.20348e-05 0)
(-3.26721e-10 2.95237e-09 0)
(1.23404e-05 9.92973e-05 0)
(2.55207e-06 5.74901e-06 0)
(-2.47049e-06 3.7448e-05 0)
(4.18171e-06 8.90131e-05 0)
(1.20652e-10 4.11533e-09 0)
(-1.09263e-11 3.76301e-11 0)
(1.46006e-06 1.00581e-05 0)
(-1.17028e-09 1.01081e-07 0)
(2.43493e-06 4.70069e-06 0)
(-1.88147e-06 1.04048e-05 0)
(-2.7095e-06 1.11459e-05 0)
(-5.33422e-06 2.12391e-05 0)
(-1.71408e-05 0.000332226 0)
(1.9305e-05 0.000332243 0)
(3.60871e-06 5.2489e-06 0)
(6.18926e-09 5.62612e-08 0)
(-1.48045e-06 3.32628e-06 0)
(5.70604e-06 9.23345e-06 0)
(-8.62346e-09 1.11945e-07 0)
(4.14601e-06 1.46564e-05 0)
(-1.3216e-06 1.42281e-06 0)
(-6.73806e-07 4.58832e-07 0)
(-1.44344e-06 1.41292e-05 0)
(4.87532e-07 9.58562e-05 0)
(-2.35402e-10 5.42542e-09 0)
(-4.84776e-06 9.55517e-06 0)
(-8.15421e-06 8.33288e-05 0)
(-2.49619e-07 2.69894e-07 0)
(1.49261e-06 1.67395e-06 0)
(-4.25936e-06 1.37783e-05 0)
(1.88236e-07 -7.52714e-08 0)
(6.2892e-06 1.37798e-05 0)
(-4.80465e-12 3.099e-11 0)
(-7.60617e-06 1.95419e-05 0)
(1.61104e-06 5.2505e-06 0)
(-9.1323e-06 0.000283162 0)
(1.18787e-05 4.40311e-05 0)
(1.4327e-06 6.76545e-06 0)
(-2.09849e-07 2.28991e-07 0)
(-6.90383e-06 0.000334891 0)
(-1.86075e-12 1.78351e-11 0)
(4.5683e-09 4.06658e-08 0)
(-3.5127e-07 2.86509e-07 0)
(1.91032e-07 4.75215e-06 0)
(2.06255e-06 9.8622e-06 0)
(-4.02507e-06 8.78267e-05 0)
(7.07833e-06 1.1415e-05 0)
(4.1377e-12 1.29847e-10 0)
(-1.07251e-05 0.000117804 0)
(-1.13024e-09 3.07844e-08 0)
(-1.80061e-06 1.06662e-05 0)
(6.99029e-07 3.1198e-05 0)
(8.38618e-06 3.32393e-05 0)
(1.3603e-05 9.3253e-05 0)
(-1.15759e-05 9.32535e-05 0)
(1.26237e-05 0.000132215 0)
(-1.05727e-05 0.000132199 0)
(-7.1511e-12 7.14019e-11 0)
(-3.86515e-06 0.000165573 0)
(5.37714e-11 7.33114e-10 0)
(7.76317e-06 0.000158902 0)
(-1.19758e-06 2.3283e-05 0)
(4.83293e-06 4.68388e-06 0)
(5.91678e-06 3.39103e-05 0)
(2.25817e-09 9.53133e-08 0)
(4.47055e-06 3.97373e-06 0)
(1.33069e-06 7.55819e-07 0)
(3.89448e-06 6.60996e-06 0)
(8.56506e-06 3.98667e-05 0)
(2.42462e-05 0.00026225 0)
(-2.22186e-05 0.000262249 0)
(1.61878e-06 5.16679e-06 0)
(1.58931e-11 3.92319e-10 0)
(3.29641e-11 6.4202e-10 0)
(1.48793e-07 -7.56345e-08 0)
(5.07457e-06 5.25813e-06 0)
(-1.4459e-05 8.99736e-05 0)
(1.64863e-05 8.99732e-05 0)
(-2.21889e-06 5.54561e-05 0)
(4.09002e-07 2.80193e-06 0)
(-7.79717e-07 7.44077e-07 0)
(1.89297e-05 0.000106817 0)
(-1.69049e-05 0.000106843 0)
(1.33414e-05 9.79633e-05 0)
(6.17613e-07 1.07167e-05 0)
(2.44383e-06 8.8466e-06 0)
(1.36093e-05 0.000131929 0)
(-1.1558e-05 0.000131913 0)
(-2.5087e-06 0.000101561 0)
(4.81283e-13 4.74913e-11 0)
(1.47137e-06 1.74217e-06 0)
(1.65239e-06 1.83938e-06 0)
(-3.28979e-10 3.71755e-09 0)
(2.47712e-06 0.00024917 0)
(-2.88792e-06 7.08349e-06 0)
(5.46105e-06 7.58097e-05 0)
(-4.17231e-06 9.15591e-05 0)
(1.28629e-05 0.000147367 0)
(-1.08318e-05 0.000147433 0)
(-1.48986e-12 9.93201e-12 0)
(6.34777e-06 4.19214e-05 0)
(1.10092e-05 5.24456e-05 0)
(-1.36178e-06 2.30999e-06 0)
(-2.17692e-06 2.06406e-05 0)
(1.27417e-06 2.62376e-05 0)
(-6.10304e-11 6.06288e-10 0)
(8.60063e-06 1.99753e-05 0)
(-4.67967e-06 9.10731e-06 0)
(5.65863e-07 2.91664e-06 0)
(-2.70663e-10 2.95993e-09 0)
(-8.17003e-07 7.15083e-07 0)
(-1.28241e-06 3.44803e-06 0)
(-5.62514e-08 1.61307e-07 0)
(-4.28845e-06 0.000116886 0)
(1.78741e-06 1.76739e-06 0)
(-1.25001e-07 1.78737e-07 0)
(1.78473e-09 2.80922e-08 0)
(3.29343e-06 3.40459e-05 0)
(-3.59666e-06 1.02171e-05 0)
(-2.30116e-06 4.70087e-06 0)
(-4.05501e-11 7.69356e-10 0)
(2.22402e-06 2.76955e-06 0)
(-8.01989e-10 4.56299e-08 0)
(-2.18128e-06 4.63105e-06 0)
(3.02094e-06 5.82847e-06 0)
(6.04752e-06 0.000159463 0)
(-1.12386e-11 1.27187e-10 0)
(4.68692e-06 4.75269e-06 0)
(-2.28106e-05 0.000271841 0)
(2.48386e-05 0.000271841 0)
(3.45206e-10 1.11001e-08 0)
(-5.59595e-06 2.12353e-05 0)
(7.05539e-07 1.43794e-07 0)
(6.02686e-06 0.000321274 0)
(3.70928e-07 1.10712e-06 0)
(-5.69652e-09 5.56034e-08 0)
(-4.27492e-06 8.8684e-05 0)
(-1.48542e-09 2.18965e-08 0)
(-2.21607e-11 1.39278e-10 0)
(3.70753e-06 2.67918e-05 0)
(8.36586e-06 3.01739e-05 0)
(4.35737e-07 -2.14138e-08 0)
(3.76749e-06 2.31389e-05 0)
(-7.42808e-06 3.1416e-05 0)
(1.20106e-05 5.09154e-05 0)
(-7.48883e-07 9.20054e-07 0)
(-7.16975e-06 3.04329e-05 0)
(6.82886e-12 3.96545e-10 0)
(4.90506e-06 8.97928e-05 0)
(-9.97644e-07 2.29439e-05 0)
(-9.63044e-06 3.0374e-05 0)
(8.37207e-07 1.30173e-06 0)
(4.54337e-06 2.67635e-05 0)
(-8.92736e-08 4.3666e-06 0)
(1.69602e-10 4.12995e-09 0)
(-1.04848e-05 8.02294e-05 0)
(-2.77486e-06 7.09108e-06 0)
(2.70394e-06 5.23973e-06 0)
(7.10729e-07 3.02612e-06 0)
(8.59058e-06 2.481e-05 0)
(1.22309e-05 4.97275e-05 0)
(-5.14038e-06 2.54802e-05 0)
(1.34734e-05 4.99228e-05 0)
(-2.10269e-08 1.16362e-07 0)
(-2.53014e-06 1.39645e-05 0)
(5.76406e-06 3.82341e-05 0)
(-1.2311e-10 7.48342e-10 0)
(-1.55137e-06 0.000150132 0)
(-5.99949e-08 6.83132e-08 0)
(1.32081e-05 9.87747e-05 0)
(8.33252e-06 3.35818e-05 0)
(9.69741e-07 2.33725e-05 0)
(1.86665e-11 4.09437e-10 0)
(-7.35701e-07 3.48352e-05 0)
(-5.00766e-06 4.94417e-05 0)
(1.02578e-05 6.21174e-05 0)
(-7.38451e-08 1.45969e-07 0)
(-4.88293e-06 1.0618e-05 0)
(-4.25293e-07 2.76507e-07 0)
(-7.42261e-06 8.26621e-05 0)
(-1.3579e-07 -3.29648e-08 0)
(-1.89003e-07 7.77373e-06 0)
(-4.9266e-06 5.65572e-05 0)
(-7.81439e-10 2.62074e-08 0)
(-1.21752e-06 8.90598e-05 0)
(-8.31346e-06 5.04711e-05 0)
(-1.47181e-06 1.81689e-06 0)
(-3.35076e-12 2.92185e-11 0)
(-3.31026e-06 7.82412e-06 0)
(-8.70962e-06 3.7561e-05 0)
(-7.26782e-07 9.42353e-07 0)
(1.83909e-09 3.62081e-08 0)
(-1.62036e-06 3.404e-06 0)
(2.49254e-06 1.93249e-06 0)
(-1.98119e-05 0.000143539 0)
(2.18377e-05 0.00014354 0)
(4.19855e-06 2.15495e-05 0)
(2.66576e-06 1.76062e-05 0)
(1.36209e-06 1.03936e-05 0)
(1.52828e-06 1.10645e-05 0)
(3.61067e-06 2.93125e-06 0)