/*--------------------------------*- C++ -*----------------------------------*\
| =========                 |                                                 |
| \\      /  F ield         | OpenFOAM: The Open Source CFD Toolbox           |
|  \\    /   O peration     | Version:  v3.0+                                 |
|   \\  /    A nd           | Web:      www.OpenFOAM.com                      |
|    \\/     M anipulation  |                                                 |
\*---------------------------------------------------------------------------*/
FoamFile
{
    version     2.0;
    format      ascii;
    class       volSymmTensorField;
    location    "5000";
    object      sigma;
}
// * * * * * * * * * * * * * * * * * * * * * * * * * * * * * * * * * * * * * //

dimensions      [1 -1 -2 0 0 0 0];

internalField   nonuniform List<symmTensor> 
24076
(
(-7.20012e+07 2.23358e+06 -4.61114e-12 663706 1.2691e-13 -1.77003e+07)
(-6902.71 -81926.6 3.90355e-15 958415 -6.88035e-15 236089)
(-179.736 -1799.87 -5.53129e-17 14169.6 1.42176e-16 3471.16)
(320.435 -1354.62 -1.61967e-17 14636.1 1.11756e-16 3711.02)
(-1.07075e+07 4.04954e+06 2.49252e-12 5.6189e+06 -9.08127e-13 -1.26258e+06)
(-3408.26 -62801 1.27914e-15 1.11377e+06 4.10017e-14 275503)
(6720.03 -94939.3 -9.1022e-17 993649 -1.30314e-14 248212)
(-7.67864e+07 1.34224e+06 -5.84937e-12 406182 1.46933e-12 -1.89515e+07)
(240.176 -884.484 -1.15121e-18 1068.07 4.65683e-17 324.602)
(-6.55898e+07 -1.17331e+06 4.95499e-12 79272.8 -1.15702e-11 -1.62545e+07)
(5.11283e+07 -7.64418e+06 -1.01662e-12 1.14541e+07 1.91924e-12 1.5528e+07)
(-6.37655e+07 -1.08826e+06 -1.97388e-12 -20720 5.83189e-12 -1.58267e+07)
(-3.16502e+07 8.77306e+06 -1.96607e-12 2.07702e+06 -1.82385e-12 -7.33771e+06)
(-6.82481e+06 4.52793e+06 -2.66864e-12 5.48353e+06 -6.72939e-13 -332799)
(-7.87641e+07 -993504 9.68604e-13 -377532 -8.52552e-12 -1.96366e+07)
(-6.10091e+06 -1.7861e+06 -5.58067e-12 -233535 -1.3977e-11 -1.5717e+06)
(4.18128e+07 -824300 7.55696e-12 -39976.1 -3.12187e-11 1.03647e+07)
(-4.24738e+07 -1.11158e+06 -9.42928e-12 37540.3 2.49116e-11 -1.05293e+07)
(-513379 -2.98622e+06 -1.0245e-11 370484 5.74952e-12 -35455.2)
(-7.91953e+06 -3.19965e+06 -1.8483e-11 -159855 1.66975e-11 -2.00466e+06)
(-7.75487e+07 154675 5.01939e-13 -345269 -2.59207e-12 -1.93271e+07)
(4.44677e+07 -3.86914e+06 1.23288e-12 6.15877e+06 -3.18193e-12 1.25614e+07)
(-6791.24 -59229.8 1.64043e-15 1.40493e+06 -1.61808e-16 346907)
(5.1913e+07 -6.93049e+06 1.81065e-12 1.10561e+07 -4.09805e-13 1.56239e+07)
(1.71694e+06 6.95244e+06 3.032e-13 3.53267e+06 -3.21126e-13 1.30253e+06)
(2.87141e+06 -1.95266e+06 -8.56015e-12 297439 5.21558e-12 786257)
(2.16205e+06 -3.52774e+06 -3.02979e-14 5.53404e+06 1.76248e-14 1.90956e+06)
(4911.05 -76690.1 -1.92267e-15 1.11801e+06 1.01336e-14 278621)
(5.50974e+06 -2.60641e+06 -1.02745e-11 -286551 -9.02065e-13 1.29598e+06)
(4.32344e+06 8.22191e+06 -5.96837e-12 3.66232e+06 -1.80851e-12 1.98143e+06)
(1.22317e+07 -2.09668e+06 4.16831e-12 -300010 7.36907e-12 2.9605e+06)
(12744.1 -67964.2 -1.14675e-15 263373 -3.53647e-15 68510.3)
(-2.86166e+07 -2.05227e+06 1.64518e-11 122268 2.09704e-12 -7.07003e+06)
(-2.32544e+07 -366244 2.45674e-12 2.96854e+06 -6.97222e-12 -5.03333e+06)
(-3.32182e+07 -2.91608e+06 1.38689e-11 -190178 -1.64162e-12 -8.2893e+06)
(-5.62309e+07 -2.20554e+06 8.09743e-12 36606.7 2.90854e-12 -1.3943e+07)
(-3.09709e+07 8.14473e+06 -3.88876e-12 1.5215e+06 -1.30827e-12 -7.307e+06)
(4.2936e+07 395947 8.23362e-12 181164 -1.79304e-11 1.06982e+07)
(-4.33347e+07 264365 -1.73998e-12 -210971 3.76751e-11 -1.08046e+07)
(-7.88629e+07 40841.3 -2.26142e-12 -261244 -2.68291e-13 -1.96323e+07)
(2.37609e+07 -8.51508e+06 6.18555e-13 3.2245e+06 -6.53352e-13 6.69564e+06)
(8.16485e+06 -2.09709e+06 -1.41167e-11 316871 -2.90322e-12 2.10449e+06)
(-2.36475e+07 6.55496e+06 -8.28842e-12 3.1142e+06 -3.1318e-12 -5.09472e+06)
(-2.00539e+07 -669224 -3.9191e-12 2.77008e+06 -2.14546e-12 -4.28847e+06)
(-5.26708e+07 -1.00027e+06 4.2727e-12 75476.7 3.60972e-12 -1.305e+07)
(7.59902e+07 -1.32595e+06 -7.08834e-12 -24201.1 8.94854e-13 1.88487e+07)
(53009.1 -392622 3.10303e-15 1.22141e+06 8.39029e-15 316208)
(-1.89542e+07 -2.44612e+06 4.79366e-14 -10125.9 4.06722e-12 -4.70543e+06)
(2.90511e+06 -3.89434e+06 8.08356e-14 5.71624e+06 -4.59724e-14 2.13913e+06)
(5.60061e+07 -2.31592e+06 1.265e-11 -120857 3.88082e-12 1.38663e+07)
(571.312 -2299.62 -3.78515e-16 38562.2 -1.00707e-15 9709.81)
(556381 -1.68451e+06 8.42385e-14 5.45332e+06 -1.32643e-13 1.49113e+06)
(1066.91 -2712.61 1.4414e-17 1625.58 -1.83406e-16 668.063)
(3960.08 -103096 5.31886e-15 1.21393e+06 1.25164e-14 302183)
(175.393 -859.89 -2.77178e-18 1026.27 -4.87454e-17 298.157)
(-3.2035e+07 -1.57073e+06 0 -256288 0 -8.01212e+06)
(-1.19633e+07 619334 8.88668e-13 3.86088e+06 1.11418e-12 -2.01038e+06)
(-8.06928e+07 -234932 6.34706e-12 55219.2 5.37803e-12 -2.00078e+07)
(-156550 -2.76693e+06 1.71683e-11 -33910.3 7.45089e-12 -47257.1)
(-3.73794e+07 -2.31572e+06 5.10149e-12 -242720 1.296e-11 -9.33481e+06)
(7.61598e+07 155137 2.15497e-11 -189090 -2.95491e-11 1.88499e+07)
(64648.1 -380732 1.5308e-15 532253 1.79088e-14 148103)
(9.0837e+07 -231435 -3.15511e-13 -112615 1.12696e-11 2.25106e+07)
(5.24525e+07 -943753 -3.10567e-13 27090.1 -7.26848e-12 1.30213e+07)
(3.8256e+07 -2.85358e+06 -3.77489e-12 1.01493e+07 -3.06952e-12 1.20103e+07)
(-7.63591e+07 -820669 8.96013e-12 244793 1.04105e-11 -1.88855e+07)
(-2.13661e+07 1.44843e+06 -5.31964e-12 3.92711e+06 -2.8768e-12 -4.32698e+06)
(3.37006e+07 -2.16062e+06 -2.51965e-13 1.02719e+07 1.51689e-12 1.09105e+07)
(5688.41 -137025 2.93762e-15 742892 -1.49359e-15 185738)
(-1.98959e+07 947583 2.66587e-12 3.61609e+06 -5.28071e-13 -4.03935e+06)
(-284465 -2.86581e+06 -3.63925e-11 -19296.6 -1.00286e-13 -75369.5)
(55989 -210399 -1.52311e-14 2.03128e+06 2.63973e-14 517893)
(5.70243e+07 -1.1005e+06 -2.5087e-12 -122202 -1.23535e-12 1.41186e+07)
(39528.5 -113420 -1.07437e-16 131536 -1.65543e-14 42444.5)
(2.20083e+07 -8.45828e+06 1.04514e-12 3.36279e+06 -1.02527e-12 6.29507e+06)
(-1.36856e+07 -1.81425e+06 -2.3362e-11 443032 9.44075e-12 -3.28574e+06)
(4.63774e+07 -5.41558e+06 3.00447e-12 6.769e+06 -2.20232e-12 1.31867e+07)
(5.50426e+07 -1.61336e+06 -3.72234e-11 38216 2.16063e-11 1.36667e+07)
(-5.02537e+07 721051 0 1.17356e+06 0 -1.21778e+07)
(9.20905e+07 -574584 -2.82862e-12 -198004 7.61571e-12 2.28004e+07)
(18079.2 -364296 -2.0435e-15 1.14837e+06 -2.98199e-14 289420)
(-1.81428e+07 -1.85664e+06 -6.98446e-12 -51719.5 -1.18646e-12 -4.51443e+06)
(2.463e+07 -3.23592e+06 -4.72566e-12 3.35348e+06 2.38958e-12 6.94327e+06)
(1.36829e+07 3.52033e+06 0 6.89276e+06 0 5.10523e+06)
(8.59197e+06 -8.7174e+06 1.06556e-13 8.78632e+06 -8.99996e-15 4.31191e+06)
(1310.59 -2714.61 9.76459e-18 1844.16 -9.48801e-17 782.76)
(-1.43865e+07 -2.01387e+06 7.57465e-12 144376 -9.64899e-13 -3.53376e+06)
(4.55862e+07 -1.90052e+06 -1.31061e-11 -213295 1.66874e-11 1.1258e+07)
(184488 -2.72755e+06 -2.05947e-11 13418.9 1.40027e-11 49104.8)
(-9.23093e+06 -2.40855e+06 4.10794e-11 87505.2 -1.00421e-11 -2.26867e+06)
(-1.72684e+07 -3.29198e+06 8.34593e-12 242656 -6.99887e-12 -4.22443e+06)
(-226326 -2.83834e+06 -1.6216e-11 54382.3 2.52226e-11 -42662.7)
(4.38893e+07 -2.57302e+06 3.92351e-12 1.00388e+06 -3.79557e-12 1.11389e+07)
(-1.29909e+07 -536968 6.88745e-12 3.87592e+06 4.55502e-12 -2.2616e+06)
(1.27862e+07 3.60093e+06 2.45994e-12 7.6434e+06 2.32234e-12 5.069e+06)
(4.16199e+07 -1.2697e+07 -1.01179e-12 1.07237e+07 1.40712e-12 1.29875e+07)
(6.84696e+06 -3.36566e+06 3.57842e-12 -360753 -1.94425e-11 1.60936e+06)
(-6.18229e+06 -2.89277e+06 0 77645 0 -1.51469e+06)
(5967.32 -73384.5 1.38984e-16 239679 2.60947e-15 60949.8)
(-2.11438e+07 3.9989e+06 2.20901e-12 4.35793e+06 2.98786e-12 -4.16491e+06)
(2.32913e+07 -2.84408e+06 9.92912e-12 3.16743e+06 3.52295e-12 6.56494e+06)
(3.93998e+07 -4.31512e+06 -2.22928e-12 9.49946e+06 4.53195e-13 1.21329e+07)
(9.53933e+06 -2.79164e+06 1.21331e-11 98958.7 -2.02617e-11 2.39146e+06)
(-5.13576e+07 579281 2.06851e-12 1.54284e+06 2.65866e-12 -1.236e+07)
(1.38665e+07 -2.89706e+06 4.37401e-12 63550.5 1.16867e-11 3.45633e+06)
(2.26321e+07 -1.28136e+07 4.40123e-13 9.80171e+06 -7.16211e-13 8.04749e+06)
(10204.8 -34416.9 1.54594e-17 53808.7 -3.6455e-15 15883)
(-4764.71 -73866.6 1.91831e-15 1.68385e+06 -9.03126e-15 416614)
(6.79965e+07 -4.12821e+06 -6.98301e-12 1.67933e+06 -1.55664e-12 1.7288e+07)
(2.53445e+07 -3.09449e+06 -1.58237e-11 84901.6 1.81375e-12 6.30956e+06)
(6.01556e+06 -1.78088e+06 1.14245e-11 50273.3 -2.77492e-12 1.50506e+06)
(-1.34732e+07 -2.26057e+06 1.28445e-11 421372 -1.5622e-11 -3.23844e+06)
(151.807 -1181.77 -2.37246e-17 3204.35 2.10723e-17 832.73)
(101559 -405960 6.745e-16 590325 9.27591e-15 171670)
(-1.08505e+07 -1.49963e+06 -1.02766e-11 120194 3.12766e-11 -2.6624e+06)
(-310.849 -3474.6 -3.87932e-16 35626.2 -1.53557e-15 8762.46)
(4.56868e+07 -5.709e+06 1.75785e-12 1.11197e+07 -9.29085e-13 1.40949e+07)
(2.14097e+07 -1.61394e+06 -6.53907e-12 -360722 -8.98639e-13 5.22268e+06)
(-7.30799e+06 -2.17601e+06 -3.71181e-12 -27485.7 -4.44265e-11 -1.82008e+06)
(2.84471e+07 -2.48478e+06 7.12237e-12 -157430 6.7718e-12 7.01924e+06)
(4.37124e+06 -2.84089e+06 2.41547e-12 -306846 6.48233e-12 1.00846e+06)
(4.77754e+07 -843961 4.86085e-12 11561.9 2.15115e-12 1.18569e+07)
(1.95202e+07 -1.38799e+07 -4.20232e-13 1.28577e+07 5.87326e-13 8.03362e+06)
(-7.54911e+07 1.71113e+06 -2.19574e-12 855921 -1.19869e-12 -1.85185e+07)
(-4.96171e+07 -2.24142e+06 0 199399 0 -1.22615e+07)
(4.3568e+07 -903820 4.00656e-12 -346580 6.31562e-14 1.07241e+07)
(6.78108e+07 -2.4309e+06 1.85515e-12 1.32438e+06 2.23076e-12 1.71539e+07)
(-4.04445e+07 -1.1454e+06 -4.04806e-12 124765 3.8763e-12 -1.00041e+07)
(1.47475e+07 -1.77559e+06 4.42215e-13 59486.9 1.63807e-13 3.67391e+06)
(845.341 -17087.1 7.24061e-17 177492 -1.42871e-15 44249.2)
(4.73446e+07 -2.21318e+06 -6.06851e-12 -100254 -9.21736e-13 1.17223e+07)
(2.76295e+07 -1.74751e+06 8.54229e-12 228377 2.40019e-11 6.9121e+06)
(2.09728e+07 -2.47958e+06 5.75534e-12 -149044 -4.03449e-11 5.16679e+06)
(11712.1 -91555.4 3.73185e-15 1.45595e+06 -2.54762e-14 364156)
(4.51817e+07 -2.49728e+06 -4.26019e-12 892400 5.01515e-12 1.14319e+07)
(881763 -2.08857e+06 -1.37346e-13 7.34984e+06 1.53396e-13 2.04243e+06)
(-3.61015e+06 -1.87095e+06 1.07655e-11 1.14163e+06 -1.28656e-12 -612490)
(-2.39597e+07 7.68629e+06 -5.25216e-12 3.50315e+06 -4.07975e-12 -5.07567e+06)
(-3.08693e+06 -1.64902e+06 -3.1421e-11 -109504 1.20586e-12 -793099)
(-7.62032e+06 -1.72371e+06 -6.76195e-13 1.0354e+06 -2.7764e-12 -1.63385e+06)
(-1.16131e+07 -2.13714e+06 2.30139e-12 1.13132e+06 -4.18901e-12 -2.60076e+06)
(322.9 -1313.93 1.09078e-17 3222.89 9.60163e-17 879.783)
(3.95702e+06 -3.34438e+06 3.95645e-14 1.79887e+06 -1.17586e-13 1.42815e+06)
(4.99896e+06 -2.65902e+06 -2.47524e-11 13412.2 -1.14656e-11 1.24367e+06)
(-2.23309e+07 -1.49344e+06 -3.2443e-11 -233170 4.83546e-12 -5.5986e+06)
(-1.18657e+07 -2.6992e+06 -2.13259e-12 146274 -4.16513e-13 -2.90782e+06)
(1.94407e+07 -1.78343e+06 1.10847e-12 288630 -7.61834e-12 4.89526e+06)
(-2.72877e+07 -2.33848e+06 -3.16569e-11 -21287.5 -2.83291e-12 -6.77591e+06)
(-954114 -2.35234e+06 -7.99612e-12 982114 -4.97117e-12 6947.44)
(1775.45 -10438.2 5.73229e-16 85767.1 1.68192e-15 21721.1)
(6.18492e+07 -1.51601e+06 -5.17319e-12 224991 -1.70871e-12 1.54019e+07)
(270.765 -634.746 5.35913e-18 171.376 -4.19559e-17 109.704)
(-4.14239e+07 7.12937e+06 -7.85982e-13 121433 -1.94994e-13 -1.0248e+07)
(-2.13125e+07 4.86364e+06 3.461e-12 3.91338e+06 2.41402e-12 -4.31707e+06)
(-5.03332e+07 -1.17349e+06 2.43652e-12 403388 -2.17962e-12 -1.23886e+07)
(-7.21192e+06 -3.06913e+06 3.01435e-11 531298 -2.47507e-11 -1.6576e+06)
(-7.53518e+07 1.41277e+06 3.17798e-13 -223932 4.87318e-13 -1.87519e+07)
(1.33874e+07 -2.12025e+06 -7.10934e-12 101116 3.23061e-13 3.34676e+06)
(-4.1412e+06 -2.69526e+06 8.0935e-12 1.5481e+06 -9.46142e-12 -643400)
(1703.6 -7744.38 9.17475e-17 18974.5 7.68561e-16 5130.66)
(1.99359e+06 5.61877e+06 -9.11596e-14 -3.66949e+06 1.66523e-13 -415824)
(218.535 -852.786 0 806.352 0 254.295)
(-8.147e+07 -12133.5 8.03193e-12 -75471.3 -1.20432e-13 -2.02331e+07)
(8.73906e+07 -4.63858e+06 8.57649e-13 2.10746e+06 -1.56476e-12 2.22063e+07)
(889217 -2.92115e+06 5.54143e-12 -291781 -1.1803e-11 148236)
(-3.1951e+07 -795443 -3.19467e-11 107841 -2.6278e-11 -7.90094e+06)
(3.19116e+07 -816193 -7.98702e-12 -115653 2.81013e-11 7.88923e+06)
(3.39422e+07 -1.81557e+06 -1.27709e-13 154660 6.40782e-13 8.46012e+06)
(4.80344e+07 -5.49295e+06 -4.56154e-12 9.53998e+06 2.50018e-12 1.42854e+07)
(1.94729e+07 -5.3487e+06 -1.63909e-13 -740260 9.88285e-14 4.64796e+06)
(-3.13688e+07 -1.05173e+06 -7.20396e-12 1.36753e+06 -2.23461e-12 -7.44393e+06)
(3391.69 -26939.2 -2.16144e-14 1.54402e+06 4.27542e-14 383945)
(7.25069e+06 -2.11827e+06 -3.39978e-12 89333.7 -2.73781e-12 1.82121e+06)
(-2.22968e+07 -2.05911e+06 2.99137e-12 366580 -6.20349e-12 -5.44132e+06)
(5.03424e+07 -1.32054e+06 -3.60426e-12 -26445.4 -5.30455e-12 1.24844e+07)
(-5.01504e+07 -1.33472e+06 6.34474e-12 139077 -9.60672e-12 -1.24088e+07)
(4.79349e+07 -1.85995e+06 5.82818e-12 -83626.1 -1.18225e-11 1.18729e+07)
(-4.74759e+07 -1.88474e+06 7.17764e-12 -15998.5 -4.89161e-12 -1.17837e+07)
(-7.25664e+07 180519 -1.17072e-12 55850.4 2.48353e-11 -1.79913e+07)
(6.83036e+07 -1.75852e+06 -9.72338e-12 -85898.6 7.13569e-12 1.69262e+07)
(8.80417e+07 -557413 7.90736e-12 -103530 -6.85828e-13 2.18192e+07)
(118452 -299799 -7.3547e-16 161242 9.02732e-15 69397.9)
(-3.4527e+07 1.18562e+06 5.05966e-12 2.31728e+06 -9.91755e-13 -7.99187e+06)
(1.02518e+07 1.56819e+06 -1.91302e-13 -3.67402e+06 1.44472e-13 1.63209e+06)
(1.07659e+07 1.67199e+06 3.40369e-13 -4.27034e+06 -2.17665e-13 1.61167e+06)
(1.77696e+07 -440775 -1.6037e-12 8.22906e+06 1.67923e-12 6.4508e+06)
(4.85123e+07 -4.31707e+06 5.15972e-13 9.11433e+06 -2.81594e-12 1.42983e+07)
(7.69827e+06 -1.42573e+07 0 2.67942e+07 0 8.55829e+06)
(6.35852e+07 -1.05592e+07 -3.95974e-13 1.11928e+07 2.40013e-12 1.85539e+07)
(-2.25752e+07 1.04415e+07 -5.734e-13 -371801 5.55733e-13 -5.69361e+06)
(-2847.5 -13482.1 -1.21401e-15 311606 1.19621e-15 76609.3)
(4.47231e+07 -2.43812e+06 -1.22286e-12 -35441.7 -1.31344e-12 1.10879e+07)
(1.89119e+07 -2.52199e+06 -1.43467e-11 259173 -1.02832e-11 4.75674e+06)
(4.07279e+07 -1.13561e+06 -2.04612e-11 -65052.8 -8.18373e-12 1.00893e+07)
(-2.58471e+07 -2.31045e+06 3.47452e-12 -13410.8 2.11674e-11 -6.41653e+06)
(-7.40296e+07 -287405 -5.04406e-12 165896 -1.85076e-12 -1.83271e+07)
(-203.798 -82577 -2.33424e-15 1.16205e+06 1.78783e-14 288277)
(-4.3282e+07 -1.98804e+06 2.72983e-12 28575.5 -1.94797e-11 -1.07321e+07)
(4.35241e+07 -1.91891e+06 -1.67578e-11 -84388.3 1.08893e-11 1.07783e+07)
(7.38122e+07 -218140 5.05483e-12 -153608 -1.8526e-12 1.82762e+07)
(-3.40313e+07 270943 -2.51685e-12 2.31395e+06 -2.2917e-12 -7.86972e+06)
(5.99081e+06 -1.22016e+07 2.16055e-13 2.52896e+07 -3.26874e-13 7.76131e+06)
(2.58442e+07 -1.20316e+06 7.95235e-12 -317095 7.18378e-12 6.33379e+06)
(-2.58864e+07 -1.20954e+06 0 320794 0 -6.34334e+06)
(-2.40152e+06 -2.66182e+06 -1.57889e-11 -96556.8 -8.31909e-13 -619823)
(-1.58283e+07 4.29879e+06 -3.18467e-12 4.3032e+06 -5.23671e-13 -2.85961e+06)
(6.96962e+07 -861183 -8.1112e-12 -32132.8 7.22878e-12 1.72851e+07)
(3.98565e+07 -2.10308e+06 5.84411e-12 54452.9 -2.03695e-11 9.90271e+06)
(-6.63128e+07 3.50542e+06 -4.0236e-12 100194 -1.72703e-12 -1.64287e+07)
(1.2296e+07 -2.85852e+06 -1.11712e-12 65983.4 6.92444e-12 3.06727e+06)
(156269 -674766 0 1.59489e+06 0 434498)
(-4.43313e+06 -2.84827e+06 -4.60936e-12 -10650.1 3.56572e-12 -1.10259e+06)
(128645 -539701 -2.10266e-15 3.25053e+06 -6.14336e-14 838441)
(6.01038e+07 -1.30657e+06 -3.33268e-12 -275489 6.80296e-12 1.48446e+07)
(284.478 -948.202 0 864.402 0 285.06)
(6.35226e+06 -2.29648e+06 2.74165e-12 177248 -9.0534e-12 1.6201e+06)
(665485 -2.10089e+06 6.80193e-14 6.94762e+06 -2.29974e-13 1.88897e+06)
(7.74649e+07 -358418 3.07352e-12 -70213.2 2.69884e-12 1.92032e+07)
(4.93273e+06 -123477 -1.85286e-11 98263.9 2.85727e-14 1.24829e+06)
(-4.96007e+06 -125421 1.86891e-11 -95322.3 -4.70128e-14 -1.25435e+06)
(6.02704e+06 -2.36854e+06 1.47687e-11 140704 2.48602e-12 1.53034e+06)
(-8.53489e+07 42602.2 1.09661e-11 -273344 2.60689e-12 -2.12446e+07)
(-8.99658e+07 -6104.13 -1.66584e-13 -553802 -5.07538e-13 -2.24597e+07)
(3.88754e+07 -3.82352e+06 1.98179e-12 4.60988e+06 1.86181e-12 1.07896e+07)
(-7.38923e+07 -482287 -3.8785e-12 262815 3.06092e-13 -1.8269e+07)
(10569 -22747.2 -8.56604e-17 9749.27 6.76652e-16 5041.37)
(2263.07 -9963.52 -3.7967e-17 16752.5 -4.76177e-16 4718.16)
(4.67802e+07 -1.24827e+06 -9.19915e-12 241301 1.69499e-11 1.1667e+07)
(9938.77 -21968.2 -5.66293e-17 13836.7 7.96639e-16 5899.19)
(-1.06433e+07 -1.99609e+06 3.12373e-11 -113341 7.88275e-12 -2.66893e+06)
(1546.68 -8471.37 -1.34633e-17 16683.2 -4.23374e-16 4523.19)
(4.34657e+07 -1.3221e+06 1.01998e-11 -32127.3 -9.11732e-12 1.07767e+07)
(4576.41 -17769.2 6.14027e-17 32277.5 2.52927e-16 9144.2)
(133926 -373935 1.07394e-15 166324 -1.26432e-14 74497.9)
(-9.98231e+06 -1.95732e+06 -4.24053e-12 2.54079e+06 8.82661e-13 -1.84639e+06)
(-1.84965e+07 -1.67966e+06 1.60022e-11 -193446 -9.52942e-12 -4.63736e+06)
(2.99848e+07 -5.87352e+06 3.88329e-13 4.65483e+06 1.33369e-13 8.5948e+06)
(-2.11061e+07 9.1872e+06 -1.66582e-12 -900723 -4.72321e-13 -5.46034e+06)
(2.93393e+07 -3.02099e+06 -8.62192e-12 277610 -7.11992e-12 7.34856e+06)
(7.01878e+07 -1.39961e+06 -6.30725e-12 142150 1.84673e-11 1.74503e+07)
(-6.97324e+07 -1.54991e+06 9.69886e-12 78375.3 -1.97487e-11 -1.72826e+07)
(9.97478e+06 -9.18204e+06 3.36763e-13 8.99894e+06 6.06626e-14 4.70776e+06)
(3.0067e+07 -2.69417e+06 1.66961e-11 -39970.5 1.55804e-11 7.45033e+06)
(3.04651e+07 -1.27421e+06 1.96897e-11 449972 -3.04822e-11 7.67065e+06)
(-5.71287e+07 782711 1.03656e-12 -178706 1.64828e-11 -1.42191e+07)
(5.679e+07 729954 2.69844e-12 29008.4 -1.53404e-11 1.40979e+07)
(3.91807e+07 -2.08338e+06 0 66629.9 0 9.73806e+06)
(-7.79082e+07 -1.51604e+06 2.70493e-12 461463 3.60096e-12 -1.92161e+07)
(7.76205e+07 -1.42481e+06 -6.15354e-12 -440715 9.71488e-13 1.91499e+07)
(4.79812e+07 -6.56548e+06 8.39417e-13 1.14407e+07 5.56457e-13 1.47438e+07)
(3.14217e+07 -379617 -1.68949e-11 -55000.2 -3.12693e-12 7.78272e+06)
(-1.09094e+07 -2.36498e+06 2.15323e-11 -7735.25 4.60496e-11 -2.70877e+06)
(-1.45763e+06 5.86917e+06 7.77899e-13 -3.73545e+06 -1.0264e-13 -1.28851e+06)
(-7.55118e+07 -623679 1.47489e-12 306248 3.14683e-12 -1.866e+07)
(-5.61968e+07 -168161 0 -230034 0 -1.40006e+07)
(5.6347e+07 -152447 -2.49271e-12 257478 -2.08132e-12 1.40447e+07)
(-2629.68 -80415.4 1.31194e-15 628190 1.59903e-14 155214)
(6477.23 -72221.2 1.86764e-15 211274 2.89159e-15 54028.6)
(-45567.1 -274834 -5.8594e-14 3.09842e+06 -9.20617e-14 757474)
(-9.08043e+06 -1.79266e+06 -1.37438e-11 -82232.2 3.56336e-12 -2.27344e+06)
(-2.06939e+07 6.20335e+06 -6.75568e-12 4.14286e+06 -2.52689e-12 -4.10666e+06)
(-9.26603e+07 29602.8 3.61395e-12 -625623 3.40621e-13 -2.31461e+07)
(-5.1333e+07 -924485 0 -103207 0 -1.27624e+07)
(-8.82491 -5.04279 1.13137e-18 161.4 5.1019e-18 37.8569)
(4.5357e+07 -3.49598e+06 9.26982e-14 1.49868e+06 5.34964e-12 1.16259e+07)
(-2.09937e+06 8.43344e+06 2.34485e-12 3.61603e+06 -5.63835e-13 376313)
(7.07567e+07 -1.39391e+06 5.40652e-12 -46602.4 7.83847e-12 1.75446e+07)
(-6.87587e+06 -2.66241e+06 1.7114e-11 71650.4 1.98181e-11 -1.68827e+06)
(4.05721e+07 -2.34639e+06 7.65721e-12 -241724 -8.85452e-12 1.00068e+07)
(239.682 -501.744 2.50903e-18 10253.4 1.67459e-16 2603.56)
(2.44853e+07 -1.61696e+06 -2.71493e-11 -511569 -9.6311e-12 5.94837e+06)
(-2.48416e+07 -1.60176e+06 4.91945e-12 463040 4.68907e-11 -6.04882e+06)
(-7.3063e+07 650331 1.64181e-12 240753 5.70477e-12 -1.80687e+07)
(-6.36968e+06 -2.43458e+06 -4.00595e-12 80515.2 6.36776e-12 -1.56047e+06)
(4.03115e+06 -5.24454e+06 1.50612e-13 7.36759e+06 -6.72361e-14 2.82826e+06)
(3.60841e+07 -2.73349e+06 8.08209e-12 -225137 -2.00155e-11 8.89733e+06)
(4.45583e+07 -2.01632e+06 7.96061e-12 -225166 2.50281e-11 1.1e+07)
(3715.57 -65227.2 -2.55846e-14 1.57306e+06 5.77103e-14 391229)
(6.17875e+07 -1.13784e+06 -9.63526e-12 145850 1.11542e-11 1.53669e+07)
(-7.99661e+07 -45035.4 0 -640565 0 -2.00002e+07)
(1054.96 -7279.71 0 62391.4 0 15742.3)
(-65379.3 -2.17323e+06 -2.38407e-11 279968 4.34011e-11 53243.8)
(432436 -1.68996e+06 -1.30303e-11 -7291.54 9.47454e-12 105487)
(95463.8 -766385 2.06004e-13 5.08835e+06 -1.94301e-13 1.28621e+06)
(357114 -2.74477e+06 -5.44511e-12 2.31989e+06 2.55742e-12 664218)
(3.0987e+07 -5.87899e+06 1.09212e-13 4.5542e+06 4.32346e-13 8.81848e+06)
(125146 -327726 -4.06225e-16 315086 1.62237e-14 109230)
(-5.65363e+07 -832795 3.55717e-12 64542.1 -1.85452e-12 -1.40118e+07)
(9.30217e+07 -2.53319e+07 6.13299e-13 1.00471e+07 -4.99004e-13 2.55735e+07)
(-3.46706e+07 1.4568e+06 0 2.52373e+06 0 -7.9763e+06)
(9.78345e+06 -1.89677e+06 4.4707e-12 274523 2.31915e-11 2.49559e+06)
(-6.913e+07 1.31993e+06 -7.25995e-12 509961 -5.39226e-12 -1.7026e+07)
(-2.37017e+07 -2.13891e+06 3.1211e-12 175610 -6.52524e-12 -5.8373e+06)
(-1.69817e+07 2.76371e+06 2.8054e-12 4.34379e+06 4.55303e-12 -3.13573e+06)
(-3.01709e+07 -101507 -1.9388e-11 -905451 -5.91251e-13 -7.71068e+06)
(3.01192e+07 -102106 -8.56368e-12 908275 -3.94412e-12 7.69856e+06)
(4.78521e+07 -1.93379e+06 4.50595e-12 -97296.7 -7.67897e-12 1.18489e+07)
(638.384 -3398.31 5.76475e-17 15741.9 4.50413e-18 4064.27)
(19585.1 -53957.9 2.21112e-17 68622 2.35446e-15 21886)
(-3.09026e+07 -2.7123e+06 8.72281e-12 -86948.4 -4.36711e-12 -7.68913e+06)
(3.73913e+07 -2.08976e+06 7.65781e-12 120798 1.17366e-12 9.30751e+06)
(-3.77457e+07 -2.545e+06 -2.85985e-12 -79683.9 -2.06031e-11 -9.38524e+06)
(2.98122e+07 -1.36242e+06 -7.57696e-12 248865 -3.61587e-11 7.45875e+06)
(-2.98316e+07 -1.2672e+06 2.00601e-11 -172560 2.07339e-11 -7.44464e+06)
(2.85478e+07 -6.07034e+06 -9.1324e-13 4.52765e+06 3.51488e-13 8.20669e+06)
(232.847 -1082.56 -7.11451e-19 2243.77 -4.98783e-17 614.5)
(5.70458e+06 -2.26563e+06 -1.51557e-11 -134786 3.40278e-11 1.38198e+06)
(4.85127e+07 -1.84958e+06 -2.9355e-12 50806.5 2.06579e-11 1.20496e+07)
(2.10109e+07 -2.31875e+06 1.29919e-11 3.92073e+06 -4.79779e-12 6.18604e+06)
(1.00206e+07 -1.80006e+06 2.62036e-11 124971 -2.15599e-12 2.51732e+06)
(1.90679e+07 -1.88709e+06 5.39577e-12 -238305 1.90709e-11 4.67201e+06)
(-1.20146e+06 -1.76779e+06 2.44556e-11 76918.2 -1.80456e-12 -279023)
(-19.8249 -302.553 1.0319e-17 1533.28 1.11539e-17 375.52)
(4.74676e+07 -2.0823e+06 -2.07659e-11 -29254.8 -6.43763e-13 1.17704e+07)
(3.39721e+07 -2.08206e+06 -9.97799e-12 42907.8 -5.97252e-12 8.43982e+06)
(-8.84659e+07 -900141 3.48089e-12 -148854 1.84208e-12 -2.19871e+07)
(-3.02156e+07 -2.69546e+06 -5.26707e-12 60966.8 -5.66313e-13 -7.48197e+06)
(166347 -299054 3.02289e-15 111793 -1.83747e-14 69012.4)
(6.76539e+07 -3.01402e+07 1.61344e-12 1.74108e+07 -2.47985e-12 2.11063e+07)
(7.2709e+06 -2.91935e+06 6.38695e-12 -722.69 6.32769e-12 1.80388e+06)
(-3.71654e+07 -2.0786e+06 7.30958e-12 -119253 -4.64315e-12 -9.25108e+06)
(7.34841e+07 -296252 -3.61734e-12 -92923.4 -1.31957e-12 1.82099e+07)
(4.29031e+07 -1.2814e+06 -8.2331e-12 18049.4 -4.62939e-12 1.06496e+07)
(102922 -353233 -2.77065e-16 454655 -2.67511e-14 138346)
(-5125.82 -106991 3.39179e-15 1.2103e+06 5.98008e-15 299029)
(-4.67481e+07 -2.59044e+06 3.60547e-12 75227.5 8.22543e-12 -1.15805e+07)
(-4.09014e+07 -175687 -3.60793e-11 -865483 -5.34887e-12 -1.03632e+07)
(4.09027e+07 -173381 -1.98838e-11 858550 1.43161e-11 1.03618e+07)
(-6.49921e+07 4.91914e+06 -9.55025e-14 310358 -1.26518e-13 -1.60488e+07)
(1.94917e+07 839440 2.47972e-12 8.57223e+06 -4.20625e-12 6.96322e+06)
(2.18112e+07 -3.45676e+06 -4.45664e-12 2.21033e+06 -2.61693e-12 5.96023e+06)
(-4.7508e+07 -536012 -1.17393e-11 -39311.1 6.15843e-12 -1.17975e+07)
(4.75677e+07 -577339 0 19765.2 0 1.18074e+07)
(-4.63191e+06 -3.23958e+06 -2.00139e-11 212213 1.14216e-11 -1.09662e+06)
(-3.24574e+07 -2.81619e+06 -6.10307e-12 288633 -6.88667e-12 -7.98172e+06)
(-6.25044e+07 -1.28232e+06 -3.35177e-12 48100.6 -5.61998e-12 -1.54967e+07)
(4.67288e+07 -4.85257e+06 7.78698e-13 1.01655e+07 1.69023e-12 1.41166e+07)
(-2921.84 -69720.9 -1.25284e-14 1.24681e+06 -2.52023e-14 308635)
(6.42589e+07 -1.69972e+06 6.76946e-12 152531 -9.01064e-12 1.59818e+07)
(-2.18267e+07 9.50877e+06 -1.39688e-12 96451.6 -2.43042e-13 -5.39171e+06)
(9.38671e+07 -990163 1.75243e-12 379650 2.22356e-13 2.33845e+07)
(3.74055e+06 -1.91259e+06 1.18229e-11 -128460 8.16502e-12 896232)
(-237.882 -63405.9 -3.64784e-15 584274 -3.69285e-15 144911)
(2.96998e+07 -1.71614e+06 2.81514e-11 45495.2 -5.80986e-12 7.38041e+06)
(-785060 -3.28196e+06 -1.08395e-11 48745.7 -7.46057e-12 -182695)
(2.11171e+07 -2.3149e+07 -2.29091e-12 2.7359e+07 2.16609e-12 1.20279e+07)
(2.6578e+06 -3.08706e+06 -4.59741e-14 3.98187e+06 6.16408e-14 1.64744e+06)
(1.60906e+07 -1.19789e+06 2.97248e-13 7.02361e+06 3.09074e-12 5.73511e+06)
(-7.9868e+06 -1.4506e+06 -1.79677e-11 295086 1.42823e-12 -1.90847e+06)
(-6.05239e+07 -1.22496e+06 -2.94109e-12 85956 7.77032e-12 -1.49959e+07)
(4.34223e+07 -4.39228e+06 7.98087e-13 9.14232e+06 1.62304e-12 1.30423e+07)
(4.51972e+06 3.72057e+06 3.42581e-13 7.23995e+06 -5.44446e-13 2.91781e+06)
(4.67584e+07 -1.44395e+06 -1.5327e-11 -88213.2 1.01373e-11 1.15798e+07)
(-6.47429e+06 -2.84016e+06 2.39118e-12 61497.5 -6.15208e-12 -1.59114e+06)
(-7.63172e+07 930432 -4.80021e-12 367976 -2.2166e-12 -1.88445e+07)
(-2.74949e+07 -1.7789e+06 1.47382e-11 53734.9 -3.06312e-11 -6.8087e+06)
(-4.20385e+07 -1.32004e+06 -6.67961e-12 149941 -4.95031e-12 -1.03934e+07)
(-6.67159e+06 -2.73589e+06 3.39247e-12 569515 5.88467e-12 -1.51405e+06)
(2.09283e+07 -928830 -1.15138e-11 195304 -2.41073e-11 5.24119e+06)
(-2.72659e+06 9.59811e+06 -3.06793e-12 2.27604e+06 1.80825e-14 -111791)
(-2.00346e+06 -2.41672e+06 -1.31288e-11 -305039 1.36502e-11 -572785)
(-6.02644e+07 -1.4759e+06 -3.50098e-12 439122 -2.40884e-12 -1.48439e+07)
(-2.5794e+07 1.90168e+06 2.983e-12 3.05517e+06 -1.35774e-12 -5.64196e+06)
(112285 -440781 1.95877e-15 728270 3.77069e-14 208559)
(8.94845e+07 -333037 0 83712.8 0 2.22237e+07)
(-2.58139e+07 987526 1.17502e-14 -3.88177e+06 -3.28157e-13 -7.36811e+06)
(1.48051e+07 -3.3725e+06 -6.92202e-12 -194332 -2.74765e-12 3.62522e+06)
(-5.44289e+07 -1.37124e+06 -4.72499e-12 -342402 1.34812e-11 -1.35899e+07)
(-4.77841e+07 200234 -3.06892e-14 1.71295e+06 1.13056e-12 -1.14312e+07)
(-5.44505e+06 -2.31382e+06 1.08201e-11 -32256.1 1.18345e-11 -1.35903e+06)
(-7.99076e+07 -93281.1 -5.59455e-12 252528 -5.21213e-13 -1.9764e+07)
(-1.24351e+07 8.77497e+06 2.69314e-12 2.9399e+06 1.27509e-12 -2.35594e+06)
(-7.58676e+07 -1.27094e+06 -5.4256e-12 201142 -7.06448e-12 -1.87744e+07)
(813643 -1.48165e+06 7.9236e-14 2.91725e+06 -8.71142e-14 925711)
(-7.458e+07 -1.64429e+06 5.28786e-12 122996 4.24443e-12 -1.84743e+07)
(7.43566e+07 -1.54997e+06 -4.81671e-12 -99500.5 -4.25728e-12 1.84247e+07)
(4992.38 -30317.9 -2.12491e-16 70488.2 1.09006e-16 18728.3)
(3.6745e+07 -1.91361e+06 -2.33341e-11 161363 -1.93667e-11 9.15722e+06)
(-3.68469e+07 -1.98347e+06 -1.80303e-11 -240813 -2.70449e-11 -9.20221e+06)
(628779 -1.89004e+06 1.80748e-13 5.82269e+06 -1.31146e-13 1.60074e+06)
(2.52782e+07 -2.70846e+06 -1.04809e-13 2.29762e+06 -4.8245e-13 6.84212e+06)
(1.24858e+07 -3.0034e+06 -1.59614e-12 16088.6 -8.18679e-12 3.10198e+06)
(-3.15055e+07 9.29215e+06 2.97486e-13 455087 -5.58426e-13 -7.70424e+06)
(2.64113e+07 1.175e+06 6.5197e-13 7.46747e+06 -2.05529e-12 8.40602e+06)
(4.47686e+07 -2.25104e+06 -9.78467e-13 286850 -1.6178e-11 1.11792e+07)
(4572.61 -62526.1 -2.43865e-15 460714 -5.06473e-15 115447)
(3.30577e+07 -1.56772e+06 -2.36708e-12 228014 1.29012e-11 8.25886e+06)
(11197 -32683.8 -1.8808e-15 1.48483e+06 1.44985e-15 371194)
(347.879 -2341.05 6.75428e-17 11059.8 2.32107e-16 2830.48)
(-6.35053e+07 1.69871e+06 6.19935e-12 1.2318e+06 2.91205e-12 -1.54513e+07)
(7.8419e+06 4.37975e+06 3.16921e-12 7.11262e+06 -1.12241e-12 3.71052e+06)
(2.72795e+07 -64807.2 2.3415e-11 230605 -2.20338e-12 6.82581e+06)
(-2.73219e+07 -64316.4 -4.49537e-12 -232696 -2.57744e-12 -6.83684e+06)
(-9.74222e+06 -2.81428e+06 -1.83631e-11 121577 3.86772e-12 -2.38708e+06)
(4.16926e+07 -502952 -1.17349e-11 -62042.1 -7.56132e-12 1.03294e+07)
(7.38296e+07 -553851 1.1299e-11 -15514.1 -3.32949e-12 1.83148e+07)
(-7.40441e+07 -623391 -6.83055e-12 45097.5 4.24829e-12 -1.83607e+07)
(7.55006e+07 -8.43194e+06 -1.95417e-12 8.39263e+06 5.77926e-12 2.08156e+07)
(3.77572e+07 -2.16574e+06 -6.03201e-12 -92949.7 5.47142e-12 9.34526e+06)
(-2.1154e+07 3.27368e+06 -4.2393e-12 4.76621e+06 3.40566e-12 -4.06615e+06)
(5.58611e+07 -1.65716e+06 5.93575e-12 -38883.5 -4.61112e-13 1.38506e+07)
(-3.28095e+07 -2.80141e+06 -9.02202e-12 275868 -2.05421e-11 -8.07225e+06)
(366.443 -3100.47 4.42954e-17 8225.62 8.89655e-17 2131.87)
(3.28643e+07 -1.2557e+06 2.70732e-12 9.52549e+06 9.71337e-13 1.05178e+07)
(-7.83682e+07 -421768 1.40201e-12 11081.2 -3.51325e-12 -1.9442e+07)
(2.68785e+07 -1.473e+06 7.55219e-12 -68281.6 4.21705e-11 6.65216e+06)
(-2.71136e+07 -1.41518e+06 -2.21182e-12 -150851 3.18915e-11 -6.76486e+06)
(-2.31279e+07 -2.45642e+06 -2.57084e-11 -255644 8.08382e-12 -5.80194e+06)
(-6.57788e+06 -2.09859e+06 3.60608e-12 -33865.9 1.25952e-13 -1.64051e+06)
(7.77527e+06 -2.19634e+06 -9.42566e-12 -296128 -1.66601e-11 1.85573e+06)
(8.45722e+07 -21516.3 -2.47947e-11 703247 -1.24505e-12 2.11586e+07)
(-6.45867e+07 -106215 -1.02829e-11 113116 3.15928e-12 -1.59972e+07)
(331.145 -2752.55 4.73546e-17 10351 4.81983e-16 2650.45)
(3.38781e+06 -3.36795e+06 0 192812 0 888424)
(-8.8431e+06 -2.43072e+06 -2.1996e-11 -14321.2 -2.17826e-11 -2.19771e+06)
(-2.35601e+07 9.66142e+06 9.31159e-13 -667775 8.80774e-13 -6.01142e+06)
(-2.17458e+07 -1.41443e+06 3.38959e-11 -301212 -2.67485e-11 -5.47031e+06)
(55.4131 -389.898 -1.18809e-17 2684.43 4.76831e-17 679.81)
(9.63047e+07 -2.39057e+07 -1.48704e-12 1.02012e+07 1.94521e-12 2.64263e+07)
(3.19035e+07 -2.11854e+06 -5.23036e-13 106820 2.75832e-11 7.94242e+06)
(-3.18733e+07 -1.92007e+06 2.51878e-12 170035 5.31007e-12 -7.86621e+06)
(4.65497e+07 -2.441e+06 3.66965e-12 1.56725e+06 2.58733e-12 1.19388e+07)
(-4.26349e+07 6.23273e+06 -2.43216e-12 1.7978e+06 -4.84939e-13 -1.01325e+07)