/*--------------------------------*- C++ -*----------------------------------*\
| =========                 |                                                 |
| \\      /  F ield         | OpenFOAM: The Open Source CFD Toolbox           |
|  \\    /   O peration     | Version:  v3.0+                                 |
|   \\  /    A nd           | Web:      www.OpenFOAM.com                      |
|    \\/     M anipulation  |                                                 |
\*---------------------------------------------------------------------------*/
FoamFile
{
    version     2.0;
    format      ascii;
    class       volScalarField;
    location    "5000";
    object      sigmaEq;
}
// * * * * * * * * * * * * * * * * * * * * * * * * * * * * * * * * * * * * * //

dimensions      [1 -1 -2 0 0 0 0];

internalField   nonuniform List<scalar> 
24076
(
6.55589e+07
881167
13287.7
13168.2
1.58351e+07
1.01297e+06
906120
6.96028e+07
1723.25
5.92513e+07
4.00539e+07
5.75259e+07
3.37569e+07
1.32379e+07
7.0772e+07
6.1592e+06
3.77688e+07
3.83845e+07
5.22874e+06
8.94506e+06
6.96799e+07
3.6169e+07
1.27643e+06
4.05909e+07
1.2216e+07
4.12853e+06
7.04417e+06
1.01336e+06
6.87813e+06
1.43935e+07
1.18323e+07
256526
2.61456e+07
2.32861e+07
3.024e+07
5.08867e+07
3.23396e+07
3.85927e+07
3.89263e+07
7.09286e+07
2.40838e+07
7.99691e+06
2.63209e+07
2.02731e+07
4.75934e+07
6.85933e+07
1.2607e+06
1.76047e+07
7.49267e+06
5.07633e+07
34576
5.36555e+06
4771.66
1.10635e+06
1689.03
2.88265e+07
1.38967e+07
7.28209e+07
4.79388e+06
3.37674e+07
6.88339e+07
788331
8.20136e+07
4.73151e+07
2.7669e+07
6.90702e+07
2.24811e+07
2.3417e+07
706740
2.08355e+07
4.96963e+06
1.82634e+06
5.15591e+07
216327
2.27201e+07
1.30657e+07
3.79974e+07
4.96931e+07
4.62381e+07
8.32142e+07
1.20109e+06
1.66376e+07
2.05088e+07
9.93059e+06
1.57216e+07
4790.86
1.35424e+07
4.14083e+07
4.72684e+06
9.37189e+06
1.67595e+07
4.92235e+06
3.9078e+07
1.48156e+07
9.23124e+06
3.70594e+07
8.69572e+06
7.54048e+06
246880
2.35288e+07
1.92979e+07
2.96325e+07
9.80377e+06
4.75109e+07
1.34306e+07
2.61298e+07
72384.4
1.52767e+06
6.04781e+07
2.34156e+07
6.20785e+06
1.30742e+07
3448.6
839017
1.02136e+07
32923.4
3.46219e+07
1.97835e+07
7.57451e+06
2.61335e+07
6.4555e+06
4.31051e+07
2.60338e+07
6.88029e+07
4.50696e+07
3.95896e+07
6.03018e+07
3.66261e+07
1.36078e+07
162163
4.29484e+07
2.49302e+07
1.95078e+07
1.31384e+06
4.03056e+07
6.983e+06
5.27471e+06
2.77388e+07
3.93126e+06
8.23745e+06
1.19369e+07
3504.9
6.25697e+06
6.43793e+06
2.01302e+07
1.17807e+07
1.75881e+07
2.49261e+07
4.40594e+06
78128.3
5.56733e+07
1108.39
3.94363e+07
2.38208e+07
4.57487e+07
8.72114e+06
6.78344e+07
1.25468e+07
6.8188e+06
20754.9
1.09061e+07
1583.51
7.34213e+07
7.76379e+07
5.16412e+06
2.89319e+07
2.89041e+07
3.06569e+07
3.7579e+07
2.03597e+07
2.93968e+07
1.39077e+06
7.43929e+06
2.06991e+07
4.5482e+07
4.5396e+07
4.34164e+07
4.29311e+07
6.54917e+07
6.17444e+07
7.94905e+07
525333
3.29873e+07
1.24727e+07
1.34398e+07
1.05704e+07
3.78252e+07
3.09642e+07
5.24211e+07
2.70226e+07
284173
4.05835e+07
1.74167e+07
3.6835e+07
2.36427e+07
6.68963e+07
1.05793e+06
3.92098e+07
3.94593e+07
6.66901e+07
3.24773e+07
2.80722e+07
2.36431e+07
2.36847e+07
5.06323e+06
1.91787e+07
6.29019e+07
3.60898e+07
6.01916e+07
1.20991e+07
1.76429e+06
6.34504e+06
2.98461e+06
5.44652e+07
1741.62
6.86472e+06
6.82035e+06
6.99227e+07
4.37956e+06
4.40658e+06
6.72534e+06
7.67692e+07
8.072e+07
3.23176e+07
6.68497e+07
39736.6
21868.1
4.20636e+07
38666.1
1.01219e+07
20204.2
3.92934e+07
40111.3
652678
1.15164e+07
1.67892e+07
2.57066e+07
2.42926e+07
2.67669e+07
6.32414e+07
6.30093e+07
1.66278e+07
2.75464e+07
2.72247e+07
5.14069e+07
5.1213e+07
3.54708e+07
7.06667e+07
7.03858e+07
3.68068e+07
2.83891e+07
1.06525e+07
1.04376e+07
6.83467e+07
5.05103e+07
5.06248e+07
585386
223858
2.86904e+06
8.70017e+06
2.44023e+07
8.30957e+07
4.6247e+07
152.596
4.02321e+07
1.54277e+07
6.38974e+07
7.77197e+06
3.70005e+07
9107.54
2.26482e+07
2.2927e+07
6.60893e+07
7.17598e+06
9.95528e+06
3.3057e+07
4.051e+07
1.42043e+06
5.56507e+07
7.16354e+07
56885.8
3.77639e+06
2.95371e+06
4.70782e+06
5.09365e+06
2.66054e+07
601304
5.10602e+07
8.81061e+07
3.33091e+07
9.22096e+06
6.27794e+07
2.18274e+07
1.93425e+07
2.65265e+07
2.64777e+07
4.3362e+07
14925
105031
2.81993e+07
3.38259e+07
3.42673e+07
2.68028e+07
2.6864e+07
2.47523e+07
2633.98
6.55294e+06
4.38327e+07
1.65717e+07
9.47067e+06
1.7684e+07
3.2682e+06
1493
4.29854e+07
3.08189e+07
7.96904e+07
2.76945e+07
524825
7.12576e+07
8.28121e+06
3.36224e+07
6.63489e+07
3.87446e+07
697733
1.11105e+06
4.24576e+07
3.62343e+07
3.62406e+07
5.9467e+07
1.18956e+07
1.89895e+07
4.28281e+07
4.28984e+07
7.09387e+06
2.98944e+07
5.64537e+07
3.57584e+07
1.13319e+06
5.79146e+07
2.57231e+07
8.43884e+07
4.79882e+06
538462
2.69166e+07
5.7332e+06
4.22603e+07
5.71853e+06
9.99292e+06
7.84274e+06
5.46938e+07
3.33843e+07
7.47336e+06
4.23131e+07
7.67111e+06
6.91304e+07
2.50292e+07
3.80979e+07
8.00892e+06
1.8796e+07
1.718e+07
4.47472e+06
5.47475e+07
2.58429e+07
955126
8.06454e+07
2.0485e+07
1.47106e+07
4.88874e+07
4.441e+07
6.31968e+06
7.2262e+07
2.03473e+07
6.86143e+07
3.28449e+06
6.74183e+07
6.71924e+07
79600.6
3.31839e+07
3.32276e+07
5.79568e+06
2.15947e+07
1.23935e+07
3.29592e+07
1.86041e+07
4.0348e+07
426042
2.97658e+07
1.33187e+06
10524.1
5.82912e+07
8.49317e+06
2.44286e+07
2.44653e+07
1.01293e+07
3.76603e+07
6.66064e+07
6.68243e+07
6.35407e+07
3.43299e+07
2.35177e+07
5.0493e+07
3.0194e+07
8935.74
2.2962e+07
7.06933e+07
2.44276e+07
2.44624e+07
2.10986e+07
6.9357e+06
8.17809e+06
7.5742e+07
5.83379e+07
10260
6.5191e+06
9.00906e+06
2.66517e+07
1.95382e+07
2473.08
8.94118e+07
2.89266e+07
2.90673e+07
4.10162e+07
4.12679e+07
2.0788e+07
6.54037e+06
3.2297e+07
2.25008e+07
4.03616e+07
1.86169e+07
5.35636e+06
5.57835e+07
2.55468e+07
1.18608e+07
8.75222e+06
2.02741e+07
2.10326e+07
1.03209e+06
7.84128e+06
2.30808e+07
3.01552e+07
304196
3.21897e+06
5.25155e+07
3.40019e+07
4.21475e+06
7.8925e+07
969260
5.56489e+07
2.72067e+07
1.7946e+07
1.00984e+07
2.74063e+07
1.14415e+07
4.63205e+07
3.85808e+07
133500
7.70948e+06
700871
831745
1.02732e+07
1.24827e+07
6.26683e+07
4.40723e+07
71379
2933.27
3.88634e+07
3.94818e+07
4.02869e+07
750959
4.47388e+07
3030.85
4.7101e+06
3.83664e+07
5.57504e+07
2.89929e+07
2.84538e+07
6.01645e+07
3.01178e+07
44316.3
3.25851e+07
3.13211e+07
3.11928e+07
3.21411e+07
7.94655e+07
3.22656e+07
2.70375e+07
2.54837e+07
7.83946e+07
2.40862e+07
3.52572e+07
3.89361e+07
3.89415e+07
2.70695e+06
7.60109e+07
4.23217e+07
1.6801e+07
322887
3.01028e+07
112744
2.88281e+07
2.81229e+07
6.85625e+07
9125.49
4.46388e+06
2.27045e+06
1.73051e+07
1.9623e+07
4.68911e+07
8.62207e+07
5.04739e+07
5.82784e+07
7.91757e+06
1.88762e+07
4.77027e+07
630.976
6.0465e+07
1.59762e+07
2.677e+06
5.18945e+07
1.88746e+07
1.04074e+07
5.80427e+06
5.3339e+07
215426
1.95559e+07
209791
6.79993e+06
1.5918e+07
1.59615e+07
3.20386e+07
794504
7.59003e+07
733436
4.7358e+07
2.82437e+06
2.83317e+06
4530.91
1.7611e+06
8.10057e+07
3.04032e+07
6.21244e+07
6.94424e+06
1.02355e+07
1.40454e+07
14605.2
5.70649e+06
1.91063e+07
1.91242e+07
15028.5
54890.6
3.01443e+07
1.20241e+07
1.2191e+07
5.00639e+07
9.41706e+06
41015.3
9.91725e+06
4.65209e+07
3.3721e+06
4.56085e+07
4.54658e+07
6.71596e+07
6.73894e+07
7.7477e+07
791.659
426893
3.82266e+06
1.53804e+07
108446
7.37735e+07
2.28566e+07
11782.2
4.23803e+07
1.86364e+07
1.86746e+07
2.3723e+07
2.47597e+07
4.29621e+07
1.18701e+07
4.75629e+06
48947.6
6.65031e+07
30440.1
1.87234e+06
2.96679e+07
2.00986e+07
1.93023e+07
8.54801e+07
1.73082e+07
1.72171e+07
1.03108e+07
8.29141e+06
2.34695e+07
1.40774e+07
3.11532e+07
2.05364e+06
2.66873e+07
70545
6.8591e+07
5.35776e+07
4.50426e+07
8.55904e+06
2.03058e+07
2.93556e+07
1.52497e+07
2.16877e+07
5.70901e+07
4.68288e+07
6.99941e+07
3.14627e+07
8.13015e+06
2.47303e+07
1.12765e+07
2.10742e+07
4.61982e+07
7.47881e+07
3.64665e+07
1.47258e+07
1.47101e+07
1.14952e+06
7.1508e+06
3.11775e+07
25985.1
5.37895e+07
4.79323e+07
1.63448e+07
1.62965e+07
4.50461e+07
12812.9
7.78992e+06
5.73527e+07
1.42849e+07
3.11355e+07
3.08422e+07
688756
27201.2
5.2581e+06
2.56044e+07
5.45583e+06
1.83681e+07
31103.3
13015.5
5.23577e+07
1.83196e+07
3.09478e+07
4.01575e+07
3.698e+07
2.63084e+07
120266
2.48029e+07
5.35945e+07
5.83305e+07
6.52406e+07
1.56892e+07
8.70188e+06
1.8242e+07
1.66693e+07
1.90822e+07
6.87752e+07
5.83645e+07
6.07178e+07
5.99175e+07
183.348
696316
1.2245e+07
7.7579e+07
1.76704e+06
2.84819e+07
1.98057e+07
3.6548e+06
48808.2
2.77029e+07
1.51954e+07
1.57473e+07
3.80753e+07
2.08195e+07
2.07962e+07
1.46875e+07
5.27216e+07
5.2728e+07
5.75145e+07
6.31686e+07
470464
4.82396e+07
7.63277e+07
9.95415e+06
579951
2.60851e+07
2.60911e+07
3.39093e+07
3.60797e+07
3.17733e+06
4.82335e+07
2.54556e+07
1.06945e+06
4.90807e+07
8.70956e+07
4.63865e+06
2.79089e+07
4.67553e+07
4.65943e+07
2.15941e+06
7.53502e+07
3064.64
6.56964e+07
24833.7
2.63619e+07
1.94581e+07
1.18001e+07
7.6264e+07
41802.3
2.98857e+07
2.62251e+07
2.67884e+07
1.18802e+06
1.60576e+07
1.58433e+07
8.07292e+07
6.08211e+07
2.80073e+07
1.86348e+07
7.49957e+07
7.14634e+07
1.39826e+06
4.65897e+06
6.06397e+06
130088
3.67352e+06
5.87078e+07
2.12572e+07
2.1421e+07
2.34706e+07
1781.95
1.01608e+07
1.94147e+07
3.69845e+07
2.75991e+07
2.83263e+07
3.08002e+07
7.28651e+07
7.31963e+07
5.13865e+07
7.05129e+06
898848
5.25811e+07
2.57188e+07
7.16716e+07
7.76194e+07
4.08354e+07
1.17856e+07
2.88396e+07
2.82362e+07
2.40049e+07
3.03504e+07
4.61671e+07
5.82129e+06
2.54135e+07
5.30428e+06
1.23687e+07
6.37558e+07
5.6375e+06
4.19576e+06
2433.17
3.35859e+07
34134
4.67363e+07
4.42472e+07
2.74595e+07
2.91629e+06
6.13923e+06
1.99451e+07
1.99945e+07
8.80261e+07
1.79827e+07
76.666
533811
5.0423e+07
5.05171e+07
1.90995e+07
137906
2.99889e+07
4.25484e+07
7.95207e+07
3.63253e+07
3.01227e+07
3.16622e+07
2.24559e+07
1.46532e+07
1.10432e+07
6.17291e+07
1.44137e+07
3.70536e+07
3.11947e+07
4610.45
3.06422e+07
6.97853e+07
5.55517e+07
1.88017e+07
1.46651e+06
5.26117e+07
5.56465e+06
7.27611e+06
1.64848e+07
5.75071e+06
607860
162061
2.67933e+07
3.30971e+07
5.13166e+07
8.90469e+06
4.72236e+06
4.48323e+06
1.07651e+07
3.86741e+07
503607
6.74588e+07
8.0748e+07
3.35497e+07
3612.5
9.78121e+06
1.20462e+07
7.46397e+06
1.37431e+07
1.28919e+07
6.96693e+06
6.69507e+07
3.56277e+07
123529
3.80742e+07
133534
3.46316e+07
3.13922e+07
2.09988e+07
1.11417e+07
82719.6
88.4672
8.77674e+06
1.63502e+06
3.1975e+07
3.69416e+07
4.63917e+07
5.27251e+07
8.56801e+06
8.65662e+06
5.04801e+07
948477
4.92851e+07
6.67216e+07
1.81314e+06
3.23488e+07
6.72207e+07
2.46832e+07
2.71638e+07
3.97955e+06
138409
8.10222e+07
2.99639e+07
1.15946e+07
2.9207e+07
5.91099e+07
1.25428e+07
5.92239e+07
3674.1
7.728e+07
1.75718e+07
8.87377e+06
5.77012e+07
1.01949e+07
9.08484e+06
5.2679e+06
1222.55
728355
1.61591e+07
7.62523e+06
1.64089e+07
1.83272e+07
7.54899e+07
2430.08
2.9018e+07
946819
3.59851e+07
5.93217e+06
4.635e+07
3.9517e+07
3.95211e+07
2.59282e+07
2.59769e+07
3044.45
1.05585e+07
13471.3
1.33894e+07
1.71346e+07
7.78945e+07
3.01322e+07
1.35893e+06
7.81683e+07
3.41184e+07
4.99611e+07
4.38668e+07
2.15354e+07
2.15545e+07
1.68468e+07
7669.9
12285.3
1.17771e+07
7.95807e+07
4.71665e+07
4.71444e+07
1.37979e+07
6.7834e+06
2.56163e+07
5.05237e+07
5.08291e+07
3.65996e+07
6.50359e+06
2.28521e+07
3.07442e+07
3.07669e+07
1.28652e+07
602.588
3.08788e+07
3.40706e+07
134146
5.26278e+06
6.56048e+07
1.8126e+07
1.79605e+07
2.58757e+07
2.56378e+07
807.001
2.84208e+07
4.90757e+07
4.81242e+07
2.69264e+07
6.18565e+06
25365.8
6.52659e+07
7.92791e+07
8.9844e+06
108541
2.8645e+07
4.06687e+07
4.26904e+06
1.59626e+07
3.55073e+07
5.15191e+06
539518
1.56046e+07
6.17251e+07
6.68853e+07
20878.8
3.72671e+07
1.26728e+06
6.2271e+07
3.7271e+07
9.37887e+06
4509.25
7.3594e+07
2.0697e+07
2.07618e+07
220958
5.71543e+07
2.50869e+07
5.29801e+06
1.36867e+07
2.12437e+06
1.65716e+07
898807
15811.7
2.04043e+07
5.13665e+07
2.03076e+07
2.08714e+07
5.69734e+07
5.20556e+07
2.4695e+07
5.48365e+07
7961.54
1.18502e+07
1.83098e+07
7.3609e+07
2.04381e+07
2.48958e+07
1.16324e+07
78832.7
4.02077e+07
6.0746e+07
3.50668e+07
8.4438e+06
5.79891e+07
5.50237e+07
4.57606e+07
6.28262e+07
3.00915e+06
3.8367e+07
2.93664e+07
87447.5
8.09839e+06
1.27916e+07
3.72514e+07
4.7887e+07
3.08433e+06
7645.73
1.19537e+07
3.0507e+07
4.05253e+07
2.84361e+06
7.58142e+07
1.77145e+07
2.91523e+07
1.10333e+07
1.72165e+07
2.84441e+07
739923
1.02184e+07
4.43609e+07
6.35978e+07
1818.28
6.85073e+07
5.62471e+07
2.51358e+07
713084
5.18486e+07
4.99424e+07
4.28672e+07
4.27753e+07
2.79806e+07
1.61033e+07
8.01025e+06
6.69406e+06
6.93158e+07
4.55637e+07
2.52038e+07
2.52132e+07
909625
2.49185e+07
8.28786e+06
109400
5.48925e+07
61112.4
5.25407e+06
17664.9
2.66972e+07
4.42127e+06
5.49625e+07
5.26107e+06
3.51187e+07
3.69013e+07
1.60644e+07
662923
25541.2
6.73963e+07
6.80319e+06
4.74205e+06
1.62495e+07
1.25274e+07
5.54129e+07
5.27799e+07
5.91708e+07
660722
6.65415e+06
1.39059e+07
1.6374e+07
6.17552e+06
1.83212e+07
1.32879e+07
1.82779e+07
4.23103e+06
8637.72
5.09105e+07
2.27363e+07
2.31658e+07
2.27308e+07
4.87728e+06
3.63273e+07
1.03214e+07
4.44439e+07
7.6464e+07
1.18499e+07
5435.08
7.62203e+06
4.04934e+06
5.52536e+07
6.32355e+07
2.47391e+07
4.62467e+07
3.80397e+07
3.47533e+07
69598.2
2.39016e+07
1.2686e+07
588186
288447
5.19828e+06
5.85428e+07
112288
1.01957e+07
5.78583e+07
4.22266e+07
7.9551e+06
2620.55
2.27438e+07
2.7616e+07
4.0203e+07
3.10959e+07
27099.8
3.78795e+07
1.63057e+07
2.28188e+07
1.0294e+07
4.10799e+07
5.1447e+07
4.04215e+07
5.53931e+07
2.2144e+07
70415.5
9.27613e+06
1926.67
1.54211e+07
1.89773e+07
4.9491e+06
5.68217e+07
7.49227e+07
3.43988e+07
7.17487e+07
1.02242e+06
1.16327e+07
729122
4.48729e+07
5.79619e+07
2.93153e+07
1.4459e+07
1.46152e+07
4.67249e+07
8938.8
1.57184e+07
327496
2.16494e+07
1.94992e+07
8.11447e+06
3.9242e+06
1.16243e+07
6.81609e+06
2.80926e+07
2.59342e+07
4.80929e+07
4.80849e+07
2.48607e+07
2.47134e+07
1.23436e+07
2.1775e+07
23805.7
4.35582e+07
2.53469e+07
295787
79870.2
5.02992e+07
2.45936e+07
6230.08
1.53961e+07
1.56665e+07
2.96735e+07
7.65701e+07
1.84449e+07
2.48956e+07
4.20146e+07
3.0747e+07
4.43069e+07
3.81261e+07
16893
72083.1
2.70302e+07
1.14695e+07
6.31687e+07
6.64919e+07
79441.9
2.78222e+07
3.08239e+07
3.07955e+07
2.774e+07
3.49043e+07
4.00076e+06
55480.5
1.15269e+07
4.81156e+07
665763
931366
3.20857e+07
6.90358e+06
4.41471e+07
4.41619e+07
46194.7
484324
4.98176e+06
5.47689e+07
1.56233e+07
3.32942e+07
6.42284e+07
4.36476e+07
1.30939e+06
4.32927e+07
9.20789e+06
943239
108678
220835
2702.96
6.71875e+06
1.07009e+07
744337
1.79906e+06
3.97756e+07
1.23019e+07
1.29642e+07
2.41862e+07
6.20894e+06
3.92802e+07
6.1492e+06
6.66744e+07
6.69235e+07
4.62418e+07
6.2265e+06
2.62278e+07
3.32531e+07
6.08375e+07
3.6718e+06
3.52199e+06
4.5559e+06
5.82649e+07
2.28912e+07
4.39164e+07
1.26763e+07
1.22506e+07
3.52767e+07
5.46581e+07
3.34234e+07
5.31657e+07
1.79252e+07
1.7867e+07
3.77207e+07
6.77622e+06
2.83582e+07
1.01653e+07
2.48931e+07
817.834
7.83842e+06
6.02225e+07
15665.1
2.40337e+07
5.03425e+06
4.39581e+07
1.05876e+07
1.12543e+07
4.03924e+07
13347.7
4.29213e+07
6.03186e+07
4.09636e+07
1.13233e+07
60354.8
2.41433e+07
5.16614e+06
7.93864e+07
5.42926e+06
5.80004e+07
2.53478e+07
1.08492e+07
195231
1.98623e+06
1.98671e+06
4.60155e+07
1.039e+07
1.80193e+07
4.5975e+07
4.78669e+07
4.88443e+07
4.57606e+07
4.23082e+07
21143
5.78006e+07
5.22177e+06
1.34394e+07
4.99924e+06
5.83419e+06
5.663e+06
3485.21
7.77019e+06
2.22126e+06
2.6096e+06
2.89407e+07
6.64963e+07
32997.3
1692.95
3.41162e+06
603955
4.40026e+07
3.25285e+07
5.7719e+06
7.0349e+07
4.95918e+06
4.57371e+07
1.02177e+07
4.07991e+07
1.42762e+07
2.22871e+07
1.94884e+07
2.60443e+07
6.48038e+07
2.98025e+07
7.2734e+07
2.26856e+07
6.36851e+07
5.6257e+07
511785
5.58105e+07
1.33071e+07
2.2897e+07
1.13379e+07
2.43874e+07
5.56518e+06
4.35916e+07
3.38859e+07
115301
5.30721e+07
3.81274e+07
6.44115e+07
1228.2
3.0982e+07
1.39383e+07
7.66808e+07
1.41461e+07
7.62373e+07
6.45225e+07
8.1302e+06
1.82384e+07
4.92923e+07
343600
1.99573e+07
3.08528e+06
744198
5.45855e+07
1.4217e+07
4.86358e+06
4.60626e+07
3.75513e+07
3.71997e+07
1.48457e+07
1.11865e+07
3.88056e+07
5.88334e+07
7.57249e+07
6.96736e+07
4.06204e+07
7.53425e+07
269688
4.95783e+07
6.57849e+07
1.13311e+07
4.00144e+06
7.04739e+07
1.28957e+07
3.57814e+07
8.24081e+07
8.31873e+06
1.38968e+07
8.1112e+07
1.75571e+07
1.88055e+07
8.18632e+06
5.18528e+07
9.90057e+06
1.83971e+07
4.93924e+07
450295
1.18422e+07
1.52076e+07
1.52963e+07
1.68862e+07
3.80681e+07
4.26871e+07
5.07293e+06
1.31226e+07
6.07246e+07
4.34323e+07
674016
736995
4.25646e+06
1.4326e+06
7.00053e+07
5.6526e+07
5.33269e+07
9.61755e+06
5.73424e+07
2.46e+07
2.89086e+07
552208
4.529e+07
3.38494e+07
2.09147e+07
6.89661e+07
1.55842e+07
6.91984e+07
1.9784e+07
5.40336e+06
6.37936e+07
2.94233e+07
1.88604e+07
2.80259e+07
2.62806e+07
3.96155e+07
1.84245e+07
24614.7
3.17755e+07
4.77808e+07
4.46406e+07
566.56
4.53018e+06
4087.87
2.33087e+07
2.78335e+07
221672
2.81044e+06
350492
1.81402e+06
5.39028e+07
5.40237e+07
4.75763e+07
6301.5
1.74905e+06
6.91183e+06
1.07993e+07
4.11725e+07
204776
1.00903e+07
588288
3.17705e+07
6.0337e+06
820.787
1.65043e+06
1.16812e+07
7.68823e+07
4.91895e+07
4.92885e+07
2.55953e+07
4.16193e+07
3.86811e+07
3.72771e+07
7.50823e+07
7.33644e+07
1.91411e+07
9.29733e+06
1.97401e+07
6.35966e+07
3.54504e+07
2.59332e+07
1.47721e+06
7.88111e+07
1.35439e+07
3.25998e+07
2.72205e+07
1.13566e+07
6.32167e+06
1.06136e+07
3.7473e+07
4.91224e+07
6.27078e+07
2.22687e+07
3.99828e+06
8.15412e+07
7.25982e+06
1.90484e+07
9.14702e+06
4286.05
2.78095e+06
352.934
8.3914e+06
1.02533e+07
1.97045e+07
3.91187e+07
3.00018e+06
190590
6.32906e+07
1.75197e+07
2.7818e+06
1.0468e+06
7.69677e+07
8.00052e+07
3.30642e+07
1.92363e+07
27110
9.93757e+06
2.0791e+06
7.77354e+07
4.04876e+07
3.47199e+07
4.70717e+07
1.06996e+06
3.70492e+07
3.70302e+07
4.23968e+07
1.76107e+07
209208
2.14609e+07
648465
4.38778e+07
7.53235e+07
515463
5.44079e+07
4.39502e+07
5.6393e+07
3.48597e+07
4.41424e+07
3.71454e+07
2.14102e+07
3.79061e+07
4.76188e+07
4.76099e+07
2763.26
1.47387e+06
1.45738e+06
2.72835e+07
6.7e+07
3.55332e+06
2.56655e+07
72146
5.01655e+07
1.17443e+06
469559
727.855
32266.6
1.70636e+06
4.59768e+07
5.74214e+07
2.55311e+07
3.61974e+07
5.34404e+07
2.02851e+07
8.34527e+06
4.70854e+07
4.10331e+07
6285.03
8.21256e+06
8.07159e+06
1.15909e+07
4.41157e+07
28891.1
3.39319e+06
6.40001e+07
17051.4
1.99332e+07
5.37657e+07
858382
9.81575e+06
2.85904e+07
1.83862e+06
1.30772e+07
74682.6
1.47819e+06
689431
3.61496e+07
1.58553e+07
659362
2.22416e+07
5.03312e+07
1.8306e+07
5.26681e+07
4.64891e+06
4.6417e+07
1.85266e+07
4.71959e+06
3.00208e+07
1.49112e+07
4.98717e+07
4.65328e+07
175217
7.10467e+06
1.143e+07
1.14665e+07
4.24622e+07
4.65781e+07
1.49273e+07
6.68494e+07
3.24085e+07
493535
1.44653e+07
1.46184e+07
3.18593e+07
8.74558e+06
1.00738e+07
1591.58
1.00411e+07
4.24131e+07
4.2322e+07
2.66486e+07
7.62385e+07
5281.17
5.40752e+07
1.89942e+06
6.14441e+07
7.87361e+07
3807.89
88246.3
1.11621e+07
5.69723e+07
7.45139e+06
1.86494e+07
82610.9
4.43064e+07
8.34782e+07
3.73462e+07
12187.9
3.32487e+07
5.88124e+06
3.62776e+06
4.7235e+07
7.53927e+06
15918.3
1.31855e+07
2.68812e+07
7.00635e+06
8.11302e+06
4.10091e+07
6.55451e+07
3.27939e+07
2.79621e+07
5.33959e+07
4.85945e+07
2.00345e+07
3.28878e+07
8.20299e+06
2877.64
3.72403e+07
129706
3.52688e+07
3.54335e+07
3.03703e+07
5.08651e+06
6.66671e+07
3.90957e+07
3.92106e+07
3.97108e+07
6.2883e+06
55000.4
8.63473e+06
1.18939e+07
101868
2.61503e+07
4.28515e+06
70904.7
4.87945e+07
8.19884e+06
5.47753e+06
5.05872e+07
5.80725e+07
562332
8004.32
2.89463e+07
5.44275e+06
195853
1.13457e+07
14997.7
7.12603e+07
1.98733e+07
2132.46
8.55202e+06
8.6315e+06
2.66972e+07
6.47595e+07
3.51354e+07
5027.28
48579.3
6.8303e+07
8.04654e+07
4.45065e+07
1.73713e+06
3.19394e+07
7.77217e+07
4.72181e+07
8.35955e+07
8.86739e+06
4.66788e+07
1.91717e+07
37496.7
2.6464e+07
5.42399e+07
5.09192e+07
5.25598e+07
685882
9.36192e+06
4.82497e+07
1.04456e+06
2.02856e+07
5.97715e+06
4.19686e+06
5.48572e+07
4.41669e+07
5.26971e+06
2.65203e+07
6.05411e+07
3.36195e+07
5.7404e+07
2.1378e+07
3.63288e+06
2.13595e+07
8338.31
4.10324e+07
380.755
2.66575e+07
5.20578e+07
3.97681e+07
1.07833e+07
7.04793e+07
1.98098e+07
2.37695e+07
1.8034e+07
4.49038e+07
7.86891e+07
1.62082e+07
8.50567e+07
3.9863e+07
3.93628e+07
2856.86
142469
8.07456e+07
45103
5.15759e+07
3867.29
4.0866e+06
4.60576e+07
36284.6
3.80437e+07
5.50076e+06
4.77611e+07
8.10187e+07
7.71378e+06
5.11681e+06
5890.14
5.8398e+06
1.04323e+07
3.60115e+07
3.59268e+07
11880
862620
33262.9
5.61836e+07
5.61753e+07
99600.9
6.43469e+06
4.94922e+07
6.56287e+07
2.57879e+07
635724
2.59063e+07
3.15635e+07
82631.3
4.99479e+07
6.89576e+07
4.17239e+06
3.02101e+07
524772
2.91379e+07
5.14751e+07
2.51844e+07
6.81746e+07
8.74488e+06
1.54111e+07
6.73356e+07
6.60395e+07
6.28486e+07
1.35569e+07
3.58202e+07
5.43421e+07
964132
1.57826e+07
5.0418e+07
1.39846e+07
3.86149e+07
2.97418e+06
2.10934e+07
1.53638e+06
1.15614e+06
8.34692e+07
2.61395e+07
18511.3
8.48598e+07
45126.1
6.86462e+06
7.12056e+06
7.46622e+07
4.62066e+07
1.81602e+07
1.9235e+07
1044.71
3.67998e+07
1.62133e+07
5.44231e+07
1.63447e+07
3.98604e+07
21050.1
2.13012e+07
6.57079e+07
7.50103e+07
7.76439e+07
447926
3.62328e+07
2.89225e+07
3.43783e+06
7.73794e+06
1906.31
1.93289e+07
3.82491e+07
1.05225e+07
2.65461e+07
2.3332e+07
3.01946e+07
3.53542e+07
68696.3
4022.56
2.64791e+07
2.49712e+07
8.08145e+06
212310
138719
4.85758e+06
6.43776e+07
4.64276e+07
8.54684e+07
6.35226e+07
6.36885e+07
2.63234e+07
736400
1.89066e+07
59202.8
5.09391e+07
2.7292e+07
3.58615e+07
3.74752e+07
4.04511e+07
2.97126e+07
2.61233e+06
7.71145e+07
3.98376e+06
4.11452e+07
5.24097e+07
4.62148e+07
5.29521e+06
2.591e+07
2.58726e+07
1.15712e+07
4.83956e+07
43571.5
1.817e+06
1.1519e+06
6.37023e+07
2.08669e+07
5.601e+07
6.53107e+07
1.58542e+07
1.56753e+07
7.84762e+07
4.8986e+07
1.68651e+07
2.77935e+07
2.72418e+07
5.31711e+07
2.89339e+07
3.60571e+07
1.57517e+07
7.44281e+07
730.461
5.39804e+07
6.84242e+07
2.56208e+07
95830.8
200259
33433.5
8.94903e+06
7.73934e+07
3.23305e+07
6.84738e+07
2.25551e+07
5.13403e+07
8.51791e+06
8.62767e+06
5.30298e+06
8.29343e+06
4312.02
2.25951e+07
1.24605e+07
159736
3.14967e+06
2893.41
1.94399e+07
1.21274e+07
4.17666e+07
5741.06
5.60524e+07
5.60295e+07
6.28179e+06
5.64181e+07
2.71113e+07
5.37642e+07
5.44262e+07
3.84492e+07
3.81579e+07
302769
155504
5472.12
4.87473e+06
223812
1.50357e+07
4.31857e+07
7.03643e+07
2.80421e+06
1.64615e+07
488964
6.22948e+07
1.54086e+07
7.94443e+07
4.06955e+07
7.49051e+07
2.22741e+07
1.10881e+07
6.80828e+07
750228
4.26924e+07
8.73706e+06
6.82688e+07
1.86046e+07
7.62056e+06
4.03674e+06
5.66563e+07
2.6229e+07
4524.23
7.05451e+07
2.5026e+07
2.74558e+07
5.67948e+07
1.95067e+07
5.00355e+07
220924
8.84874e+06
2.13461e+07
2.11261e+06
3.93702e+07
9.92434e+06
4938.27
6.69666e+07
3.96397e+07
412197
800781
4.76939e+07
3.58276e+07
1.31177e+07
1.04011e+07
5.20724e+06
8.41737e+07
9.16704e+06
2.83483e+07
4.28384e+07
3.43608e+07
2.06143e+07
3377.64
6.50618e+07
3.95664e+06
1.36463e+07
3.87124e+07
4.7487e+07
8.20454e+06
8.20449e+07
508508
2.86691e+07
3.48956e+07
556516
2.52453e+07
7722.58
2.29333e+07
6.68156e+07
886694
1.86148e+07
7.46722e+06
1.62768e+07
1.62907e+07
5.26982e+06
14974.9
4.79453e+06
3.36662e+06
5.31681e+07
9.97399e+06
1.03692e+07
5.13866e+07
973795
4.86534e+07
6.68196e+06
2.75828e+06
108296
7.18824e+07
4.31248e+07
6.83756e+07
1.87108e+07
3.72209e+06
1.3515e+07
1.11777e+07
1.69317e+07
2.28614e+07
1.67899e+07
698541
2.68024e+07
2.67971e+07
1.46868e+07
1.42395e+07
7.9609e+07
3.40518e+07
1.46113e+07
9.32808e+06
5.57569e+07
3.0374e+07
3.04174e+07
2.43712e+07
5.36952e+07
1.2464e+07
1.63611e+07
851992
105660
4.29492e+06
1.15722e+06
2.65154e+07
4.39929e+07
3.96767e+06
2.17168e+07
7.63779e+07
4.2744e+06
4.29711e+07
865369
1.57235e+07
2.72866e+07
5.06583e+07
4.64314e+07
4.59696e+07
489068
3.27829e+07
1.65708e+07
2.65276e+07
6.61148e+06
8.4823e+06
9.41554e+06
6.31836e+07
131034
7.44539e+07
538963
1.25309e+07
2.12396e+07
5.36867e+07
1.32106e+07
1.11113e+07
6.21261e+07
1.954e+07
4.15514e+06
4.57034e+07
2.42287e+07
2.41723e+07
2.00925e+06
6.23492e+06
204170
4.50565e+07
1.6192e+06
2.61692e+07
2.61648e+07
4.96577e+06
2.11848e+07
6.02729e+07
4.69512e+07
3135.75
7.50112e+07
2.06637e+07
2.11211e+07
7.86101e+06
2.31283e+07
5.7946e+07
2.47565e+07
2.47261e+07
3.25932e+07
82293.2
1.07069e+07
5.47051e+06
472630
3.3827e+06
5.60188e+07
849963
3.79304e+07
1.41672e+07
3.78811e+06
5.94585e+07
2.67295e+07
83197.8
9.58612e+06
5.25158e+07
4.35107e+06
4.47051e+07
1.633e+07
1.05937e+06
3.79741e+07
9.51086e+06
2.84874e+07
1.64105e+07
1.97563e+07
6.36842e+06
7.25642e+07
7.56513e+07
85430.7
1.89838e+07
2.15867e+07
5220.4
3.91385e+07
2.2143e+07
4.1593e+07
2.97444e+07
2.88506e+07
51375.1
1.86816e+07
1.29617e+07
2.29897e+07
4.52882e+07
2.80546e+07
3.47541e+07
457161
5.14138e+07
8.1642e+07
4.26729e+07
1.56502e+07
7480.38
6.86499e+06
1.58612e+07
8.22204e+07
2.04917e+07
2.05139e+07
5.45581e+07
1.44895e+07
681195
1.59836e+06
5.87415e+07
4.95003e+07
2.11e+07
8.45028e+07
1.13761e+07
115008
1.28636e+06
4.65339e+07
1.19537e+06
1.85024e+07
1.90574e+07
4.3059e+07
35426
109199
2.69944e+07
1.41714e+07
4.78079e+07
4.36983e+06
3.56943e+07
1998.24
1.61308e+07
2.28578e+07
3.43895e+07
8.74589e+07
5.9779e+07
7.46637e+07
1.57002e+07
2.37111e+07
3.38038e+07
7.42323e+07
2.44227e+07
1.4322e+07
3.7758e+07
2.04232e+07
2.38062e+07
4.33636e+07
4.33237e+07
8.02978e+07
4.86319e+07
5.03669e+06
881480
4.46689e+06
4.65715e+07
8.92319e+06
790588
9.48155e+06
302922
3.77694e+07
489018
1.1071e+07
8.33262e+07
1.90596e+07
562510
2.38667e+07
4.30961e+07
120370
6.53674e+07
1637.93
5.86284e+06
2.52856e+07
1.77018e+07
99456.3
1.83294e+07
116572
4.12539e+06
7.63911e+06
6.04414e+06
7.42886e+06
3.03158e+07
3.40652e+07
1.41969e+07
9.36981e+06
2.45486e+07
97323
5367.8
1.48694e+07
7.03401e+07
5.6695e+07
78459.9
1.31924e+07
6.36211e+07
48110.3
2.55226e+07
4.85485e+07
3.43128e+07
1.67786e+07
4.82641e+06
6.32186e+06
1.6768e+07
6.29328e+07
1.05223e+06
601191
2.38705e+07
89125.9
4.10887e+06
35067.1
2.56924e+07
1.85065e+07
6.83893e+07
6.63751e+06
403.243
10017.7
2.89361e+07
2.22289e+07
2.72874e+07
3.17848e+07
4.4277e+07
45257.3
1.92611e+06
3897.64
5.27799e+07
4.65945e+07
9.40348e+06
1.43568e+07
2.64556e+07
8.35374e+07
839826
3.77862e+06
2.66506e+07
6.96921e+07
2.25113e+07
5.66844e+06
6.28869e+07
306.246
5.71802e+07
3.90212e+07
7.7849e+06
2.15526e+07
3.50698e+07
3.30487e+07
1.5866e+07
3.53596e+07
7.40898e+06
144352
4.97589e+07
202537
5.16087e+07
2.40761e+07
2.92509e+06
4.34201e+07
6.26736e+07
1.47655e+07
7.45336e+06
5.06307e+07
108393
4.36845e+06
15777.9
22738.6
413855
5.56154e+07
1.53345e+07
1.45505e+07
4.0025e+07
4.54768e+07
2.29715e+07
4.39301e+06
4.49966e+07
2.28408e+07
3.6105e+07
1804.74
16978.5
2.5603e+06
6.24982e+07
7.61269e+06
6.17925e+06
1.55003e+07
6.71462e+07
4.39043e+07
7520.64
6.20085e+07
2.52262e+07
4.20387e+06
3.08597e+07
6.4314e+07
5.75348e+06
144581
3.55344e+07
2.97701e+07
1.67448e+07
1.22972e+07
8.01873e+07
7.35528e+07
4.36683e+07
3.64632e+07
3.9503e+07
4.55034e+06
8.0711e+07
1.66098e+07
3.5644e+06
1.11139e+07
1.6059e+07
2.54949e+07
2.3604e+07
1.49486e+07
8.00447e+07
3.8393e+07
3.82675e+07
5.88723e+07
2.0284e+06
1.37112e+06
4.58971e+07
2.45549e+07
3.10379e+07
110333
41638.9
2.63761e+07
1.98217e+07
4.22973e+07
1.03354e+06
118761
559741
1.90952e+07
1.67137e+07
6.9726e+07
2.33347e+07
3.26208e+07
15576.4
4.78232e+07
5.05081e+06
56708.1
6.97264e+07
1.86441e+06
8.38485e+07
3.14094e+07
1.50744e+07
6.85999e+07
1.24479e+06
4.65625e+07
4.66208e+07
4.58226e+06
5.77513e+07
3.47901e+07
6.01455e+07
4.85176e+07
4.17296e+07
4.17241e+07
4.8558e+07
4.83217e+07
8.72786e+07
2.22676e+07
2.24252e+07
7.38642e+07
5.31276e+07
5.31958e+07
7.36649e+07
620918
202980
5.18817e+07
6.70961e+06
4.43974e+07
4.43608e+07
7.89761e+07
4.9083e+06
2.38486e+07
3.37477e+07
2.05558e+07
9.7395e+06
1.64243e+07
15192.7
8.12364e+06
2.52843e+07
1.65123e+07
3.53401e+06
2.29225e+07
5.47714e+07
7.57233e+07
2.94679e+07
3.47817e+07
1.75432e+07
7.59005e+07
7.55161e+07
2.10223e+06
4.28849e+07
2.9735e+07
1.7196e+07
3.73291e+07
3.48737e+07
1.14273e+07
3.66222e+06
20127.4
7.7583e+07
3.92949e+07
6.30523e+07
5.51655e+07
3.64852e+07
3.64271e+07
12878.6
3235.94
3.63046e+07
2.94652e+07
3.89237e+07
5.26889e+07
44937.2
7.76205e+07
2.55672e+07
5.59128e+06
2.42248e+07
1.34512e+07
1.90428e+07
7.06076e+07
3.77308e+07
4.6517e+07
5.52822e+07
3.99066e+07
4.45037e+06
1.4688e+07
5.19807e+07
4.92481e+06
1.47744e+07
1.64883e+07
7.20229e+07
36866
545908
5.28925e+07
6.51922e+06
2.62835e+07
4.13349e+07
53690.7
7.84957e+06
8.07122e+07
5.6817e+07
1.73027e+07
1.20265e+07
2.40121e+07
3.07338e+06
3.17884e+06
3.12566e+07
7.14074e+07
6.44809e+06
8.23797e+07
8.21561e+07
196881
21105.2
16177.1
2.645e+07
7.31574e+07
1.86682e+06
1.25399e+07
1.22217e+07
2.55098e+07
1.54002e+07
1.07103e+07
897434
2.83742e+07
595274
2.32566e+07
2.32685e+07
2.75144e+07
4.49143e+07
6.77437e+06
5.03884e+07
3.87467e+06
4.42192e+06
4.1832e+07
2.40771e+07
2.79961e+07
5.03023e+07
1.19537e+07
2.73195e+07
2.31286e+07
2.13333e+07
122946
7.46466e+07
213036
979800
5.71911e+07
8.12923e+07
317135
3.34185e+07
3.49431e+07
2.51425e+07
8.84795e+06
18190.8
884939
49244.9
2.97239e+07
1.56132e+06
1.59515e+07
1.9863e+07
8.1485e+06
4.30237e+07
114717
4.99685e+07
3.51171e+07
5.8631e+07
5.85959e+07
6.55577e+06
5.17115e+07
6.82006e+07
4.94558e+07
1.59653e+07
1.98282e+07
21877.7
5.08859e+07
4.23563e+07
1.63973e+07
2.81993e+07
5.50947e+07
5.14017e+07
7.58596e+07
2.56411e+07
6.88494e+07
4173.6
1.77403e+07
3.30358e+07
9014.12
302771
3.30728e+07
733515
21552.9
9.31748e+06
1.49092e+07
9.15201e+06
5.39903e+07
2.21319e+07
1.02615e+07
759220
3.80925e+07
5.14038e+07
3.42107e+07
4.78073e+07
6.09466e+07
5.89049e+06
1.42093e+07
1.30519e+07
2.47423e+07
1.41288e+07
1.29941e+07
2.03198e+07
2.60336e+07
2.61202e+07
4.78056e+07
1.2917e+07
7.20713e+07
8.48755e+07
1.14788e+07
3.89675e+07
3.32059e+07
2281.71
4.66779e+06
7.4857e+06
5.45597e+06
1.0151e+07
2.55996e+06
373941
2.49576e+07
1.5269e+06
8.79251e+06
9.40182e+07
530452
1.76525e+07
4.55603e+07
1.06155e+06
893418
3168.13
571200
6.68204e+07
6.24233e+06
40367.6
8.74678e+06
7.05415e+06
1.35839e+06
5.56409e+07
4.66419e+07