0 	31.9371 	-0.0273816 	7.88298e-13
0.000254254 	31.9371 	-0.0273874 	1.60459e-10
0.000508509 	31.9371 	-0.0273932 	3.20129e-10
0.000762763 	31.9404 	-0.0275598 	-7.16384e-06
0.00101702 	31.9461 	-0.027848 	-1.9747e-05
0.00127127 	31.9519 	-0.0281362 	-3.23301e-05
0.00152553 	31.9577 	-0.0284244 	-2.09141e-05
0.00177978 	31.9634 	-0.0287126 	-8.34115e-06
0.00203403 	31.9711 	-0.0290311 	3.34133e-10
0.00228829 	31.9827 	-0.0294093 	1.74382e-10
0.00254254 	31.9942 	-0.0297876 	1.46306e-11
0.0027968 	32.0058 	-0.0295565 	1.45251e-10
0.00305105 	32.0174 	-0.0292641 	3.05146e-10
0.00330531 	32.0302 	-0.0292122 	-4.31135e-06
0.00355956 	32.0444 	-0.0294165 	-1.32102e-05
0.00381381 	32.0586 	-0.0296207 	-2.2109e-05
0.00406807 	32.0728 	-0.0298249 	-1.56772e-05
0.00432232 	32.0869 	-0.0300291 	-6.79448e-06
0.00457658 	32.1017 	-0.0303178 	3.48864e-10
0.00483083 	32.1185 	-0.0308816 	1.89066e-10
0.00508509 	32.1353 	-0.0314453 	2.92681e-11
0.00533934 	32.1523 	-0.0313885 	1.31365e-10
0.00559359 	32.1692 	-0.0311924 	2.92186e-10
0.00584785 	32.1863 	-0.0312505 	-7.60666e-06
0.0061021 	32.2035 	-0.0316796 	-2.63229e-05
0.00635636 	32.2208 	-0.0321087 	-4.50391e-05
0.00661061 	32.2381 	-0.0325379 	-3.49653e-05
0.00686486 	32.2553 	-0.032967 	-1.63057e-05
0.00711912 	32.2726 	-0.0334386 	3.65451e-10
0.00737337 	32.2902 	-0.0342049 	2.04793e-10
0.00762763 	32.3079 	-0.0349711 	4.4134e-11
0.00788188 	32.3256 	-0.035086 	1.16814e-10
0.00813614 	32.3435 	-0.0349543 	2.77872e-10
0.00839039 	32.3615 	-0.035076 	-9.12574e-06
0.00864464 	32.3798 	-0.0356984 	-3.62825e-05
0.0088989 	32.3981 	-0.0363208 	-6.34393e-05
0.00915315 	32.4164 	-0.0369432 	-5.38278e-05
0.00940741 	32.4347 	-0.0375656 	-2.67859e-05
0.00966166 	32.453 	-0.0381912 	3.80561e-10
0.00991592 	32.4718 	-0.0391498 	2.1973e-10
0.0101702 	32.4906 	-0.0401084 	5.88999e-11
0.0104244 	32.5095 	-0.0403839 	1.02812e-10
0.0106787 	32.5286 	-0.0402647 	2.65034e-10
0.0109329 	32.548 	-0.040388 	-9.15925e-06
0.0111872 	32.5682 	-0.0411559 	-4.26643e-05
0.0114414 	32.5883 	-0.0419238 	-7.61694e-05
0.0116957 	32.6085 	-0.0426917 	-7.0479e-05
0.0119499 	32.6286 	-0.0434596 	-3.71559e-05
0.0122042 	32.6488 	-0.0442274 	-3.83269e-06
0.0124585 	32.6699 	-0.0453233 	2.36041e-10
0.0127127 	32.6911 	-0.0464618 	7.41131e-11
0.012967 	32.7125 	-0.0469016 	8.86431e-11
0.0132212 	32.7341 	-0.0467518 	2.52099e-10
0.0134755 	32.756 	-0.0468254 	-8.32e-06
0.0137297 	32.7791 	-0.0476985 	-4.64086e-05
0.013984 	32.8022 	-0.0485716 	-8.44972e-05
0.0142382 	32.8253 	-0.0494448 	-8.50317e-05
0.0144925 	32.8484 	-0.0503179 	-4.71955e-05
0.0147467 	32.8715 	-0.051191 	-9.35919e-06
0.015001 	32.8957 	-0.0523911 	2.5265e-10
0.0152553 	32.9202 	-0.0536987 	8.95561e-11
0.0155095 	32.945 	-0.0543211 	7.40089e-11
0.0157638 	32.97 	-0.054109 	2.38147e-10
0.016018 	32.9953 	-0.0540959 	-7.08727e-06
0.0162723 	33.022 	-0.0550448 	-4.84651e-05
0.0165265 	33.0487 	-0.0559938 	-8.98429e-05
0.0167808 	33.0754 	-0.0569427 	-9.80227e-05
0.017035 	33.1021 	-0.0578917 	-5.69682e-05
0.0172893 	33.1289 	-0.0588406 	-1.59138e-05
0.0175435 	33.1566 	-0.0601078 	2.68558e-10
0.0177978 	33.185 	-0.0615763 	1.04848e-10
0.0180521 	33.2136 	-0.0624105 	5.93031e-11
0.0183063 	33.2425 	-0.0621144 	2.24242e-10
0.0185606 	33.2716 	-0.0619901 	-5.77932e-06
0.0188148 	33.3023 	-0.0629953 	-4.95809e-05
0.0190691 	33.333 	-0.0640005 	-9.33824e-05
0.0193233 	33.3637 	-0.0650058 	-0.000110076
0.0195776 	33.3944 	-0.066011 	-6.66686e-05
0.0198318 	33.4251 	-0.0670162 	-2.32613e-05
0.0200861 	33.4567 	-0.068309 	2.84768e-10
0.0203403 	33.4892 	-0.0699338 	1.20326e-10
0.0205946 	33.5218 	-0.0710169 	4.44998e-11
0.0208488 	33.5549 	-0.0706224 	2.10372e-10
0.0211031 	33.5881 	-0.0703731 	-4.59211e-06
0.0213574 	33.623 	-0.0714229 	-5.02963e-05
0.0216116 	33.658 	-0.0724727 	-9.60005e-05
0.0218659 	33.6929 	-0.0735225 	-0.000121793
0.0221201 	33.7278 	-0.0745724 	-7.6554e-05
0.0223744 	33.7628 	-0.0756222 	-3.1315e-05
0.0226286 	33.7983 	-0.0768966 	3.01339e-10
0.0228829 	33.8351 	-0.078676 	1.36032e-10
0.0231371 	33.8721 	-0.0800513 	2.95673e-11
0.0233914 	33.9094 	-0.0795485 	1.96522e-10
0.0236456 	33.9469 	-0.0791682 	-3.64236e-06
0.0238999 	33.9863 	-0.0802568 	-5.09862e-05
0.0241542 	34.0257 	-0.0813455 	-9.833e-05
0.0244084 	34.065 	-0.0824341 	-0.000133712
0.0246627 	34.1044 	-0.0835228 	-8.69057e-05
0.0249169 	34.1437 	-0.0846114 	-4.00991e-05
0.0251712 	34.1834 	-0.0858214 	3.18335e-10
0.0254254 	34.2247 	-0.0877573 	1.52015e-10
0.0256797 	34.2661 	-0.089473 	1.44666e-11
0.0259339 	34.308 	-0.0888507 	1.82652e-10
0.0261882 	34.35 	-0.0883357 	-3.00493e-06
0.0264424 	34.3939 	-0.0894627 	-5.19555e-05
0.0266967 	34.4379 	-0.0905897 	-0.000100906
0.026951 	34.4819 	-0.0917168 	-0.000146438
0.0272052 	34.5258 	-0.0928438 	-9.80993e-05
0.0274595 	34.5698 	-0.0939708 	-4.9761e-05
0.0277137 	34.6138 	-0.0950978 	-1.42279e-06
0.027968 	34.6597 	-0.0971713 	1.68312e-10
0.0282222 	34.7057 	-0.0992736 	8.30493e-13
0.0284765 	34.7523 	-0.0985146 	1.68716e-10
0.0287307 	34.799 	-0.0978459 	-2.72926e-06
0.028985 	34.8477 	-0.0990135 	-5.33614e-05
0.0292392 	34.8964 	-0.100181 	-0.000103994
0.0294935 	34.9452 	-0.101349 	-0.000154626
0.0297477 	34.9939 	-0.102516 	-0.000110395
0.030002 	35.0427 	-0.103684 	-6.0454e-05
0.0302563 	35.0914 	-0.104852 	-1.05133e-05
0.0305105 	35.1418 	-0.106915 	1.84954e-10
0.0307648 	35.1927 	-0.109217 	1.61722e-11
0.031019 	35.2441 	-0.108542 	1.5528e-10
0.0312733 	35.2956 	-0.107672 	-2.85239e-06
0.0315275 	35.3493 	-0.108881 	-5.51337e-05
0.0317818 	35.403 	-0.110089 	-0.000107415
0.032036 	35.4567 	-0.111298 	-0.000159696
0.0322903 	35.5105 	-0.112506 	-0.000123621
0.0325445 	35.5642 	-0.113715 	-7.21134e-05
0.0327988 	35.6179 	-0.114923 	-2.06055e-05
0.0330531 	35.6729 	-0.116946 	2.02763e-10
0.0333073 	35.7288 	-0.119512 	3.18788e-11
0.0335616 	35.7852 	-0.118982 	1.40555e-10
0.0338158 	35.8418 	-0.117899 	-3.41205e-06
0.0340701 	35.9007 	-0.119146 	-5.72055e-05
0.0343243 	35.9595 	-0.120393 	-0.000110999
0.0345786 	36.0184 	-0.12164 	-0.000164792
0.0348328 	36.0772 	-0.122887 	-0.000137538
0.0350871 	36.136 	-0.124133 	-8.46004e-05
0.0353413 	36.1949 	-0.12538 	-3.16632e-05
0.0355956 	36.2547 	-0.127275 	2.19501e-10
0.0358498 	36.3158 	-0.130135 	4.76338e-11
0.0361041 	36.3774 	-0.129839 	1.26675e-10
0.0363584 	36.4393 	-0.128558 	-4.44736e-06
0.0366126 	36.5035 	-0.129842 	-5.96296e-05
0.0368669 	36.5677 	-0.131125 	-0.000114812
0.0371211 	36.6319 	-0.132408 	-0.000169994
0.0373754 	36.6961 	-0.133691 	-0.000152143
0.0376296 	36.7603 	-0.134974 	-9.79003e-05
0.0378839 	36.8245 	-0.136258 	-4.36575e-05
0.0381381 	36.8891 	-0.137908 	2.38299e-10
0.0383924 	36.9557 	-0.141071 	6.40541e-11
0.0386466 	37.0226 	-0.141124 	1.12446e-10
0.0389009 	37.0901 	-0.139695 	-5.99363e-06
0.0391552 	37.1598 	-0.141012 	-6.24657e-05
0.0394094 	37.2296 	-0.14233 	-0.000118938
0.0396637 	37.2993 	-0.143647 	-0.00017541
0.0399179 	37.3691 	-0.144965 	-0.000167475
0.0401722 	37.4388 	-0.146282 	-0.000112026
0.0404264 	37.5085 	-0.147599 	-5.65768e-05
0.0406807 	37.5783 	-0.148917 	-1.12776e-06
0.0409349 	37.6504 	-0.152322 	8.09301e-11
0.0411892 	37.723 	-0.152818 	9.79729e-11
0.0414434 	37.7962 	-0.151291 	-8.08624e-06
0.0416977 	37.8717 	-0.152641 	-6.57982e-05
0.041952 	37.9472 	-0.153992 	-0.00012351
0.0422062 	38.0227 	-0.155343 	-0.000181222
0.0424605 	38.0982 	-0.156694 	-0.000183665
0.0427147 	38.1737 	-0.158044 	-0.00012706
0.042969 	38.2492 	-0.159395 	-7.04551e-05
0.0432232 	38.3248 	-0.160746 	-1.38503e-05
0.0434775 	38.4022 	-0.163889 	9.84265e-11
0.0437317 	38.4805 	-0.16492 	8.26507e-11
0.043986 	38.5598 	-0.163346 	-1.07616e-05
0.0442402 	38.6413 	-0.16473 	-6.96975e-05
0.0444945 	38.7228 	-0.166114 	-0.000128633
0.0447487 	38.8043 	-0.167498 	-0.000187569
0.045003 	38.8858 	-0.168882 	-0.00020083
0.0452573 	38.9673 	-0.170266 	-0.000143086
0.0455115 	39.0488 	-0.17165 	-8.53424e-05
0.0457658 	39.1303 	-0.173034 	-2.75986e-05
0.04602 	39.2132 	-0.175781 	1.15921e-10
0.0462743 	39.2976 	-0.177436 	6.67871e-11
0.0465285 	39.3831 	-0.175872 	-1.40451e-05
0.0467828 	39.4709 	-0.177289 	-7.41548e-05
0.047037 	39.5586 	-0.178705 	-0.000134265
0.0472913 	39.6463 	-0.180122 	-0.000194374
0.0475455 	39.7341 	-0.181538 	-0.00021887
0.0477998 	39.8218 	-0.182954 	-0.000160037
0.0480541 	39.9095 	-0.184371 	-0.000101204
0.0483083 	39.9972 	-0.185787 	-4.23718e-05
0.0485626 	40.0857 	-0.188001 	1.33399e-10
0.0488168 	40.1764 	-0.190368 	5.07047e-11
0.0490711 	40.2685 	-0.188876 	-1.79492e-05
0.0493253 	40.3628 	-0.190323 	-7.91399e-05
0.0495796 	40.457 	-0.19177 	-0.000140331
0.0498338 	40.5512 	-0.193217 	-0.000201521
0.0500881 	40.6454 	-0.194664 	-0.000237617
0.0503423 	40.7396 	-0.196111 	-0.000177787
0.0505966 	40.8338 	-0.197558 	-0.000117956
0.0508509 	40.928 	-0.199005 	-5.81261e-05
0.0511051 	41.0223 	-0.20054 	1.51286e-10
0.0513594 	41.1195 	-0.203708 	3.44494e-11
0.0516136 	41.2185 	-0.202355 	-2.24667e-05
0.0518679 	41.3194 	-0.20383 	-8.45904e-05
0.0521221 	41.4203 	-0.205305 	-0.000146714
0.0523764 	41.5213 	-0.206779 	-0.000208838
0.0526306 	41.6222 	-0.208254 	-0.000256806
0.0528849 	41.7231 	-0.209729 	-0.000196122
0.0531391 	41.8241 	-0.211203 	-0.000135439
0.0533934 	41.925 	-0.212678 	-7.47553e-05
0.0536476 	42.026 	-0.214152 	-1.40718e-05
0.0539019 	42.1292 	-0.217439 	1.77141e-11
0.0541562 	42.2354 	-0.216297 	-2.75594e-05
0.0544104 	42.3433 	-0.217794 	-9.03949e-05
0.0546647 	42.4512 	-0.219292 	-0.00015323
0.0549189 	42.5591 	-0.220789 	-0.000216066
0.0551732 	42.6671 	-0.222287 	-0.000276027
0.0554274 	42.775 	-0.223784 	-0.000214706
0.0556817 	42.8829 	-0.225282 	-0.000153384
0.0559359 	42.9908 	-0.226779 	-9.20629e-05
0.0561902 	43.0988 	-0.228277 	-3.07415e-05
0.0564444 	43.2082 	-0.231526 	6.51139e-13
0.0566987 	43.3218 	-0.23067 	-3.31482e-05
0.056953 	43.437 	-0.232184 	-9.63883e-05
0.0572072 	43.5521 	-0.233698 	-0.000159628
0.0574615 	43.6673 	-0.235212 	-0.000222869
0.0577157 	43.7825 	-0.236726 	-0.000286109
0.05797 	43.8976 	-0.238239 	-0.000233065
0.0582242 	44.0128 	-0.239753 	-0.000171404
0.0584785 	44.128 	-0.241267 	-0.000109742
0.0587327 	44.2431 	-0.242781 	-4.80806e-05
0.058987 	44.359 	-0.245137 	1.65199e-11
0.0592412 	44.4803 	-0.24543 	-3.91813e-05
0.0594955 	44.6029 	-0.246954 	-0.000102553
0.0597497 	44.7256 	-0.248479 	-0.000165924
0.060004 	44.8483 	-0.250003 	-0.000229295
0.0602583 	44.9709 	-0.251528 	-0.000292667
0.0605125 	45.0936 	-0.253052 	-0.000251092
0.0607668 	45.2162 	-0.254577 	-0.000189355
0.061021 	45.3389 	-0.256101 	-0.000127617
0.0612753 	45.4616 	-0.257625 	-6.58793e-05
0.0615295 	45.5842 	-0.25915 	-4.14164e-06
0.0617838 	45.7132 	-0.26054 	-4.5558e-05
0.062038 	45.8436 	-0.262068 	-0.000108759
0.0622923 	45.974 	-0.263597 	-0.00017196
0.0625465 	46.1044 	-0.265125 	-0.000235162
0.0628008 	46.2348 	-0.266654 	-0.000298363
0.0630551 	46.3652 	-0.268086 	-0.000267354
0.0633093 	46.4954 	-0.269434 	-0.000203794
0.0635636 	46.6257 	-0.270781 	-0.000140235
0.0638178 	46.756 	-0.272129 	-7.66759e-05
0.0640721 	46.8863 	-0.273477 	-1.31165e-05
0.0643263 	47.0224 	-0.274888 	-4.09762e-05
0.0645806 	47.1606 	-0.276216 	-0.000101526
0.0648348 	47.2988 	-0.277545 	-0.000162075
0.0650891 	47.4371 	-0.278874 	-0.000222625
0.0653433 	47.5753 	-0.280203 	-0.000283174
0.0655976 	47.7135 	-0.281532 	-0.000262447
0.0658519 	47.8518 	-0.28286 	-0.000199512
0.0661061 	47.99 	-0.284189 	-0.000136576
0.0663604 	48.1282 	-0.285518 	-7.36409e-05
0.0666146 	48.2664 	-0.286847 	-1.07056e-05
0.0668689 	48.4099 	-0.288415 	-2.79134e-05
0.0671231 	48.5564 	-0.289747 	-8.87323e-05
0.0673774 	48.7028 	-0.291078 	-0.000149551
0.0676316 	48.8492 	-0.292409 	-0.00021037
0.0678859 	48.9956 	-0.29374 	-0.000271189
0.0681401 	49.142 	-0.295072 	-0.000261257
0.0683944 	49.2884 	-0.296403 	-0.000197985
0.0686486 	49.4348 	-0.297734 	-0.000134714
0.0689029 	49.5812 	-0.299065 	-7.14418e-05
0.0691572 	49.7277 	-0.300397 	-8.17007e-06
0.0694114 	49.8787 	-0.302189 	-1.44892e-05
0.0696657 	50.0336 	-0.30353 	-7.57845e-05
0.0699199 	50.1885 	-0.30487 	-0.00013708
0.0701742 	50.3434 	-0.306211 	-0.000198375
0.0704284 	50.4982 	-0.307552 	-0.00025967
0.0706827 	50.6531 	-0.308892 	-0.000260608
0.0709369 	50.808 	-0.310233 	-0.000196791
0.0711912 	50.9628 	-0.311573 	-0.000132974
0.0714454 	51.1177 	-0.312914 	-6.91569e-05
0.0716997 	51.2726 	-0.314255 	-5.34e-06
0.071954 	51.4315 	-0.316321 	-5.46248e-07
0.0722082 	51.595 	-0.317609 	-5.95526e-05
0.0724625 	51.7586 	-0.318898 	-0.000118559
0.0727167 	51.9221 	-0.320186 	-0.000177565
0.072971 	52.0856 	-0.321475 	-0.000236572
0.0732252 	52.2492 	-0.322764 	-0.000247988
0.0734795 	52.4127 	-0.324052 	-0.000186514
0.0737337 	52.5762 	-0.325341 	-0.000125041
0.073988 	52.7397 	-0.326629 	-6.35675e-05
0.0742422 	52.9033 	-0.327918 	-2.09403e-06
0.0744965 	53.0709 	-0.330052 	6.37664e-05
0.0747508 	53.2424 	-0.331476 	-4.43051e-05
0.075005 	53.4146 	-0.33272 	-0.00010126
0.0752593 	53.5869 	-0.333965 	-0.000158214
0.0755135 	53.7591 	-0.335209 	-0.000215169
0.0757678 	53.9314 	-0.336454 	-0.000236314
0.076022 	54.1036 	-0.337698 	-0.000176949
0.0762763 	54.2759 	-0.338943 	-0.000117583
0.0765305 	54.4481 	-0.340187 	-5.82179e-05
0.0767848 	54.6204 	-0.341435 	6.05953e-06
0.077039 	54.7968 	-0.343309 	0.000138867
0.0772933 	54.9761 	-0.345314 	-2.97868e-05
0.0775475 	55.157 	-0.346518 	-8.4672e-05
0.0778018 	55.3379 	-0.347721 	-0.000139557
0.0780561 	55.5189 	-0.348925 	-0.000194442
0.0783103 	55.6998 	-0.350129 	-0.000224558
0.0785646 	55.8807 	-0.351332 	-0.000167331
0.0788188 	56.0616 	-0.352536 	-0.000110103
0.0790731 	56.2426 	-0.35374 	-5.28755e-05
0.0793273 	56.4237 	-0.354872 	2.54365e-05
0.0795816 	56.6086 	-0.355897 	0.000225427
0.0798358 	56.7957 	-0.358982 	-1.52202e-05
0.0800901 	56.9852 	-0.360082 	-6.52582e-05
0.0803443 	57.1746 	-0.361181 	-0.000115296
0.0805986 	57.3641 	-0.362281 	-0.000165334
0.0808529 	57.5536 	-0.36338 	-0.000201654
0.0811071 	57.7431 	-0.36448 	-0.000149472
0.0813614 	57.9326 	-0.36558 	-9.72904e-05
0.0816156 	58.122 	-0.366679 	-4.51089e-05
0.0818699 	58.312 	-0.367485 	4.80827e-05
0.0821241 	58.5051 	-0.367115 	0.000321993
0.0823784 	58.6999 	-0.371836 	-2.74646e-06
0.0826326 	58.8977 	-0.372797 	-4.64306e-05
0.0828869 	59.0955 	-0.373759 	-9.01147e-05
0.0831411 	59.2933 	-0.374721 	-0.000133799
0.0833954 	59.4911 	-0.375683 	-0.000173233
0.0836496 	59.689 	-0.376644 	-0.00012768
0.0839039 	59.8868 	-0.377606 	-8.2126e-05
0.0841582 	60.0846 	-0.378568 	-3.65725e-05
0.0844124 	60.2831 	-0.378845 	7.35448e-05
0.0846667 	60.4844 	-0.37656 	0.000426572
0.0849209 	60.687 	-0.382404 	6.52231e-05
0.0851752 	60.8923 	-0.384078 	-2.81931e-05
0.0854294 	61.0982 	-0.384833 	-6.25961e-05
0.0856837 	61.3041 	-0.385589 	-9.69991e-05
0.0859379 	61.5099 	-0.386344 	-0.000131402
0.0861922 	61.7158 	-0.3871 	-9.82675e-05
0.0864464 	61.9217 	-0.387855 	-6.24018e-05
0.0867007 	62.1276 	-0.388611 	-2.6536e-05
0.086955 	62.3343 	-0.388147 	0.000100306
0.0872092 	62.5436 	-0.384215 	0.00048591
0.0874635 	62.7539 	-0.389939 	0.00015884
0.0877177 	62.9662 	-0.392932 	-1.34621e-05
0.087972 	63.1797 	-0.393439 	-3.68799e-05
0.0882262 	63.3933 	-0.393947 	-6.02978e-05
0.0884805 	63.6068 	-0.394454 	-8.37157e-05
0.0887347 	63.8204 	-0.394961 	-6.53079e-05
0.088989 	64.034 	-0.395469 	-4.09065e-05
0.0892432 	64.2475 	-0.395976 	-1.6505e-05
0.0894975 	64.4621 	-0.39468 	0.000126346
0.0897518 	64.679 	-0.389614 	0.000516788
0.090006 	64.8966 	-0.394497 	0.000253624
0.0902603 	65.1154 	-0.399048 	-4.80049e-06
0.0905145 	65.3361 	-0.399355 	-1.93519e-05
0.0907688 	65.5568 	-0.399662 	-3.39033e-05
0.091023 	65.7775 	-0.399969 	-4.84547e-05
0.0912773 	65.9982 	-0.400276 	-3.95962e-05
0.0915315 	66.2189 	-0.400583 	-2.44451e-05
0.0917858 	66.4396 	-0.40089 	-9.29397e-06
0.09204 	66.6615 	-0.398777 	0.000152195
0.0922943 	66.8852 	-0.392823 	0.000545902
0.0925485 	67.1095 	-0.396606 	0.000349189
0.0928028 	67.3343 	-0.402864 	-3.8672e-07
0.0930571 	67.5613 	-0.402944 	-4.90206e-06
0.0933113 	67.7883 	-0.403023 	-9.4174e-06
0.0935656 	68.0153 	-0.403103 	-1.39327e-05
0.0938198 	68.2424 	-0.403182 	-1.19859e-05
0.0940741 	68.4694 	-0.403261 	-7.28924e-06
0.0943283 	68.6964 	-0.403341 	-2.59262e-06
0.0945826 	68.9247 	-0.400314 	0.000177461
0.0948368 	69.1544 	-0.393459 	0.000573634
0.0950911 	69.3845 	-0.395768 	0.000444886
0.0953453 	69.6148 	-0.402545 	6.02366e-05
0.0955996 	69.8467 	-0.403388 	8.59703e-06
0.0958539 	70.079 	-0.40313 	1.87901e-05
0.0961081 	70.3113 	-0.402872 	2.89831e-05
0.0963624 	70.5436 	-0.402613 	2.64026e-05
0.0966166 	70.7759 	-0.402355 	1.58143e-05
0.0968709 	71.0081 	-0.402097 	5.22594e-06
0.0971251 	71.2415 	-0.39805 	0.000199374
0.0973794 	71.476 	-0.390312 	0.00059303
0.0976336 	71.7107 	-0.390919 	0.00053402
0.0978879 	71.9455 	-0.397493 	0.000151389
0.0981421 	72.1811 	-0.39971 	1.60732e-05
0.0983964 	72.4172 	-0.399076 	4.26688e-05
0.0986507 	72.6534 	-0.398441 	6.92643e-05
0.0989049 	72.8895 	-0.397806 	6.72786e-05
0.0991592 	73.1256 	-0.397172 	3.96962e-05
0.0994134 	73.3617 	-0.396537 	1.21139e-05
0.0996677 	73.5986 	-0.391445 	0.000216259
0.0999219 	73.8362 	-0.382862 	0.000601873
0.100176 	74.0739 	-0.381649 	0.000611783
0.10043 	74.3116 	-0.387992 	0.000236464
0.100685 	74.5496 	-0.391612 	1.60315e-05
0.100939 	74.7877 	-0.390594 	5.93629e-05
0.101193 	75.0258 	-0.389577 	0.000102694
0.101447 	75.264 	-0.38856 	0.000107218
0.101702 	75.5021 	-0.387542 	6.23656e-05
0.101956 	75.7402 	-0.386525 	1.75129e-05
0.10221 	75.9787 	-0.380411 	0.000225802
0.102464 	76.2173 	-0.371032 	0.000596242
0.102719 	76.456 	-0.367939 	0.000671047
0.102973 	76.6947 	-0.374114 	0.000309925
0.103227 	76.9333 	-0.379227 	8.036e-06
0.103481 	77.1713 	-0.377907 	6.47154e-05
0.103736 	77.4093 	-0.376587 	0.000121395
0.10399 	77.6473 	-0.375267 	0.000137497
0.104244 	77.8853 	-0.373947 	7.89593e-05
0.104498 	78.1233 	-0.372628 	2.04215e-05
0.104753 	78.3609 	-0.365571 	0.000230897
0.105007 	78.5983 	-0.35544 	0.000585498
0.105261 	78.8357 	-0.350435 	0.000719863
0.105516 	79.0731 	-0.356617 	0.000373548
0.10577 	79.3105 	-0.362799 	2.72338e-05
0.106024 	79.5461 	-0.361737 	6.69048e-05
0.106278 	79.7815 	-0.360057 	0.00013952
0.106533 	80.017 	-0.358378 	0.000173244
0.106787 	80.2524 	-0.356698 	9.84403e-05
0.107041 	80.4878 	-0.355018 	2.36363e-05
0.107295 	80.7221 	-0.346875 	0.000227957
0.10755 	80.9558 	-0.335746 	0.000561212
0.107804 	81.1894 	-0.328463 	0.00074675
0.108058 	81.4229 	-0.334501 	0.000420608
0.108312 	81.6564 	-0.34054 	9.4466e-05
0.108567 	81.8876 	-0.340818 	6.38316e-05
0.108821 	82.1179 	-0.338748 	0.00015369
0.109075 	82.3482 	-0.336677 	0.000211686
0.109329 	82.5785 	-0.334607 	0.000119384
0.109584 	82.8088 	-0.332536 	2.70814e-05
0.109838 	83.037 	-0.323471 	0.000213603
0.110092 	83.2642 	-0.3115 	0.000515897
0.110346 	83.4914 	-0.301942 	0.00073823
0.110601 	83.7183 	-0.308036 	0.000441708
0.110855 	83.9452 	-0.31413 	0.000145186
0.111109 	84.1698 	-0.315928 	5.16823e-05
0.111363 	84.3921 	-0.313603 	0.000152946
0.111618 	84.6145 	-0.311279 	0.00023669
0.111872 	84.8368 	-0.308954 	0.000133001
0.112126 	85.0592 	-0.306629 	2.93124e-05
0.11238 	85.2783 	-0.296749 	0.000196378
0.112635 	85.4962 	-0.283891 	0.000470149
0.112889 	85.7141 	-0.271848 	0.000720708
0.113143 	85.9315 	-0.278075 	0.000451488
0.113397 	86.1489 	-0.284302 	0.000182267
0.113652 	86.3643 	-0.287653 	3.77958e-05
0.113906 	86.5756 	-0.284973 	0.000154816
0.11416 	86.7869 	-0.282293 	0.000271837
0.114414 	86.9981 	-0.279613 	0.000153489
0.114669 	87.2094 	-0.276933 	3.40765e-05
0.114923 	87.4164 	-0.266147 	0.00017348
0.115177 	87.6217 	-0.252123 	0.000416233
0.115431 	87.827 	-0.238099 	0.000658987
0.115686 	88.0316 	-0.243473 	0.000442914
0.11594 	88.2362 	-0.249831 	0.000203547
0.116194 	88.4397 	-0.254783 	1.98754e-05
0.116448 	88.6365 	-0.251746 	0.000152689
0.116703 	88.8334 	-0.248708 	0.000285503
0.116957 	89.0303 	-0.245671 	0.000175918
0.117211 	89.2271 	-0.242634 	4.0887e-05
0.117465 	89.4187 	-0.231087 	0.000147542
0.11772 	89.608 	-0.215844 	0.00035916
0.117974 	89.7972 	-0.200601 	0.000570779
0.118228 	89.9857 	-0.204139 	0.000420282
0.118482 	90.1741 	-0.210726 	0.000211013
0.118737 	90.3624 	-0.217312 	1.74278e-06
0.118991 	90.5415 	-0.214155 	0.000140536
0.119245 	90.7205 	-0.210917 	0.000282252
0.119499 	90.8995 	-0.207678 	0.000191775
0.119754 	91.0785 	-0.20444 	4.82518e-05
0.120008 	91.2514 	-0.192571 	0.000124761
0.120262 	91.4212 	-0.176332 	0.000312709
0.120517 	91.5909 	-0.160092 	0.000500657
0.120771 	91.7598 	-0.161679 	0.000400785
0.121025 	91.9285 	-0.168626 	0.000214359
0.121279 	92.0971 	-0.175574 	2.79337e-05
0.121534 	92.2565 	-0.17376 	0.000124926
0.121788 	92.4142 	-0.170402 	0.000271869
0.122042 	92.572 	-0.167044 	0.000205509
0.122296 	92.7297 	-0.163685 	5.72933e-05
0.122551 	92.8809 	-0.15197 	0.000101912
0.122805 	93.0278 	-0.134988 	0.00026804
0.123059 	93.1747 	-0.118006 	0.000434168
0.123313 	93.3208 	-0.117544 	0.000375902
0.123568 	93.4665 	-0.124961 	0.000210604
0.123822 	93.6122 	-0.132377 	4.53072e-05
0.124076 	93.749 	-0.132001 	0.000105369
0.12433 	93.8825 	-0.128681 	0.000250524
0.124585 	94.016 	-0.125362 	0.000212073
0.124839 	94.1495 	-0.122043 	6.62628e-05
0.125093 	94.2764 	-0.111065 	8.02679e-05
0.125347 	94.3977 	-0.0937075 	0.000227397
0.125602 	94.5191 	-0.0763501 	0.000374527
0.125856 	94.6396 	-0.0738824 	0.000349639
0.12611 	94.7597 	-0.08197 	0.000202812
0.126364 	94.8797 	-0.0900575 	5.59848e-05
0.126619 	94.9917 	-0.0912241 	8.37386e-05
0.126873 	95.0986 	-0.0881255 	0.000219083
0.127127 	95.2056 	-0.085027 	0.000208414
0.127381 	95.3125 	-0.0819284 	7.29532e-05
0.127636 	95.4134 	-0.0722125 	6.18199e-05
0.12789 	95.5073 	-0.0547735 	0.000195788
0.128144 	95.6011 	-0.0373346 	0.000329756
0.128398 	95.6944 	-0.0328819 	0.000331565
0.128653 	95.787 	-0.041773 	0.000197577
0.128907 	95.8796 	-0.0506641 	6.35892e-05
0.129161 	95.9651 	-0.0534286 	6.34755e-05
0.129415 	96.0443 	-0.0506592 	0.000184285
0.12967 	96.1234 	-0.0478899 	0.000197102
0.129924 	96.2026 	-0.0451205 	7.64448e-05
0.130178 	96.2768 	-0.0370341 	4.56274e-05
0.130432 	96.3424 	-0.0197543 	0.000170144
0.130687 	96.4081 	-0.00247445 	0.000294661
0.130941 	96.4733 	0.00395876 	0.000319186
0.131195 	96.5378 	-0.0057957 	0.000194479
0.131449 	96.6024 	-0.0155502 	6.97724e-05
0.131704 	96.6611 	-0.0199622 	4.55324e-05
0.131958 	96.7123 	-0.0175887 	0.000148894
0.132212 	96.7636 	-0.0152153 	0.000178913
0.132466 	96.8149 	-0.0128418 	7.58337e-05
0.132721 	96.8626 	-0.00661511 	3.1062e-05
0.132975 	96.9006 	0.0103363 	0.000148576
0.133229 	96.9385 	0.0272877 	0.00026609
0.133483 	96.9762 	0.0357343 	0.000310835
0.133738 	97.0132 	0.0251809 	0.000193014
0.133992 	97.0502 	0.0146275 	7.51935e-05
0.134246 	97.0826 	0.00860983 	3.11646e-05
0.134501 	97.107 	0.0105931 	0.000117301
0.134755 	97.1313 	0.0125763 	0.000158169
0.135009 	97.1557 	0.0145595 	7.23864e-05
0.135263 	97.178 	0.0188093 	1.70899e-05
0.135518 	97.1897 	0.0353061 	0.000126521
0.135772 	97.2013 	0.051803 	0.000235952
0.136026 	97.2127 	0.0622525 	0.000297757
0.13628 	97.2236 	0.0509078 	0.000187926
0.136535 	97.2345 	0.0395631 	7.8095e-05
0.136789 	97.242 	0.0319685 	2.04131e-05
0.137043 	97.2411 	0.033602 	9.10556e-05
0.137297 	97.2402 	0.0352356 	0.000137551
0.137552 	97.2393 	0.0368691 	6.72942e-05
0.137806 	97.2379 	0.0391153 	4.23179e-06
0.13806 	97.2251 	0.0552767 	0.000104552
0.138314 	97.2124 	0.0714381 	0.000204872
0.138569 	97.1995 	0.0840764 	0.000280012
0.138823 	97.1862 	0.0720984 	0.000179223
0.139077 	97.1729 	0.0601204 	7.84331e-05
0.139331 	97.1572 	0.0510986 	1.28602e-05
0.139586 	97.1331 	0.0524475 	7.0835e-05
0.13984 	97.109 	0.0537965 	0.000119626
0.140094 	97.0849 	0.0551454 	6.20433e-05
0.140348 	97.0607 	0.0564944 	4.46052e-06
0.140603 	97.0266 	0.071319 	8.66261e-05
0.140857 	96.9916 	0.087275 	0.000180525
0.141111 	96.9566 	0.102289 	0.000268168
0.141365 	96.9213 	0.0898801 	0.000173737
0.14162 	96.8859 	0.0774712 	7.93061e-05
0.141874 	96.8489 	0.0672402 	8.12423e-06
0.142128 	96.8038 	0.0684284 	5.88429e-05
0.142382 	96.7586 	0.0696166 	0.000109562
0.142637 	96.7134 	0.0708048 	6.05008e-05
0.142891 	96.6682 	0.071993 	1.0189e-05
0.143145 	96.6152 	0.0849084 	7.05026e-05
0.143399 	96.5602 	0.100802 	0.000158908
0.143654 	96.5052 	0.116695 	0.000247313
0.143908 	96.45 	0.10571 	0.000168746
0.144162 	96.3947 	0.0930479 	7.97553e-05
0.144416 	96.3385 	0.0818142 	4.86853e-06
0.144671 	96.2743 	0.0829203 	5.1776e-05
0.144925 	96.2102 	0.0840263 	9.86836e-05
0.145179 	96.1461 	0.0851323 	6.19377e-05
0.145433 	96.082 	0.0862384 	1.5463e-05
0.145688 	96.0121 	0.0972029 	5.54019e-05
0.145942 	95.9392 	0.113083 	0.000138426
0.146196 	95.8663 	0.128963 	0.000221451
0.14645 	95.7932 	0.12044 	0.000162921
0.146705 	95.7201 	0.107588 	7.92707e-05
0.146959 	95.6466 	0.0954627 	2.31631e-06
0.147213 	95.5656 	0.0965125 	4.65509e-05
0.147467 	95.4846 	0.0975623 	9.07855e-05
0.147722 	95.4036 	0.0986121 	6.42528e-05
0.147976 	95.3226 	0.0996619 	2.04767e-05
0.14823 	95.2375 	0.108611 	4.15284e-05
0.148484 	95.1486 	0.124501 	0.000119552
0.148739 	95.0598 	0.140392 	0.000197576
0.148993 	94.9709 	0.134402 	0.000156919
0.149247 	94.8819 	0.121402 	7.824e-05
0.149502 	94.7928 	0.10848 	2.35055e-07
0.149756 	94.6969 	0.109484 	4.22913e-05
0.15001 	94.6009 	0.110489 	8.43476e-05
0.150264 	94.5049 	0.111494 	6.68243e-05
0.150519 	94.4089 	0.112499 	2.52492e-05
0.150773 	94.3102 	0.119343 	2.85013e-05
0.151027 	94.2073 	0.135217 	0.000101079
0.151281 	94.1044 	0.151092 	0.000173657
0.151536 	94.0014 	0.147646 	0.000149193
0.15179 	93.8983 	0.134488 	7.59476e-05
0.152044 	93.7953 	0.12133 	2.70222e-06
0.152298 	93.6864 	0.12175 	3.76002e-05
0.152553 	93.5772 	0.122691 	7.66401e-05
0.152807 	93.4681 	0.123631 	6.75091e-05
0.153061 	93.3589 	0.124572 	2.89548e-05
0.153315 	93.2482 	0.129215 	1.6604e-05
0.15357 	93.133 	0.145025 	8.32865e-05
0.153824 	93.0177 	0.160835 	0.000149969
0.154078 	92.9025 	0.15992 	0.000139771
0.154332 	92.7872 	0.146571 	7.24249e-05
0.154587 	92.6719 	0.133222 	5.07898e-06
0.154841 	92.5518 	0.133 	3.21818e-05
0.155095 	92.4312 	0.133848 	6.6988e-05
0.155349 	92.3107 	0.134697 	6.5196e-05
0.155604 	92.1902 	0.135545 	3.08549e-05
0.155858 	92.0692 	0.137901 	6.16978e-06
0.156112 	91.9434 	0.153605 	6.69367e-05
0.156366 	91.8176 	0.169308 	0.000127704
0.156621 	91.6919 	0.170909 	0.000129605
0.156875 	91.5662 	0.157342 	6.81918e-05
0.157129 	91.4405 	0.143775 	6.77857e-06
0.157383 	91.3109 	0.142931 	2.63696e-05
0.157638 	91.1809 	0.143666 	5.60103e-05
0.157892 	91.0509 	0.144401 	5.98807e-05
0.158146 	90.9208 	0.145136 	3.0661e-05
0.1584 	90.7908 	0.145871 	1.44133e-06
0.158655 	90.6566 	0.160707 	5.25112e-05
0.158909 	90.5222 	0.176275 	0.000107746
0.159163 	90.3879 	0.18039 	0.000119654
0.159417 	90.2536 	0.166594 	6.37975e-05
0.159672 	90.1194 	0.152798 	7.94075e-06
0.159926 	89.9822 	0.151361 	2.06288e-05
0.16018 	89.8445 	0.151972 	4.46757e-05
0.160434 	89.7068 	0.152584 	5.21861e-05
0.160689 	89.5692 	0.153195 	2.8499e-05
0.160943 	89.4315 	0.153807 	4.81185e-06
0.161197 	89.2911 	0.166218 	4.01125e-05
0.161451 	89.15 	0.181636 	9.04496e-05
0.161706 	89.0089 	0.188275 	0.000110582
0.16196 	88.868 	0.174258 	5.96502e-05
0.162214 	88.7271 	0.160241 	8.71823e-06
0.162468 	88.5841 	0.158247 	1.53126e-05
0.162723 	88.4407 	0.158735 	3.37872e-05
0.162977 	88.2972 	0.159223 	4.29096e-05
0.163231 	88.1538 	0.159712 	2.47239e-05
0.163485 	88.0104 	0.1602 	6.53817e-06
0.16374 	87.8653 	0.170152 	2.95614e-05
0.163994 	87.7194 	0.185417 	7.57148e-05
0.164248 	87.5734 	0.194592 	0.000102685
0.164503 	87.4277 	0.180376 	5.59635e-05
0.164757 	87.282 	0.166159 	9.24186e-06
0.165011 	87.135 	0.163645 	1.05743e-05
0.165265 	86.9876 	0.164016 	2.37556e-05
0.16552 	86.8403 	0.164387 	3.26529e-05
0.165774 	86.6929 	0.164758 	1.96854e-05
0.166028 	86.5455 	0.165129 	6.71795e-06
0.166282 	86.3973 	0.172603 	2.05475e-05
0.166537 	86.2483 	0.18771 	6.31799e-05
0.166791 	86.0993 	0.19943 	9.59556e-05
0.167045 	85.9505 	0.185042 	5.27802e-05
0.167299 	85.8018 	0.170654 	9.60472e-06
0.167554 	85.6524 	0.167656 	6.40041e-06
0.167808 	85.5027 	0.167918 	1.46315e-05
0.168062 	85.3531 	0.168179 	2.16774e-05
0.168316 	85.2035 	0.16844 	1.35839e-05
0.168571 	85.0539 	0.168701 	5.49035e-06
0.168825 	84.9039 	0.173686 	1.27535e-05
0.169079 	84.7534 	0.18863 	5.24e-05
0.169333 	84.6028 	0.202889 	9.01928e-05
0.169588 	84.4527 	0.18836 	5.0027e-05
0.169842 	84.3025 	0.173832 	9.86134e-06
0.170096 	84.1522 	0.170385 	2.7665e-06
0.17035 	84.0018 	0.170545 	6.43282e-06
0.170605 	83.8514 	0.170705 	1.00991e-05
0.170859 	83.701 	0.170865 	6.63066e-06
0.171113 	83.5507 	0.171024 	3.02716e-06
0.171367 	83.4002 	0.173523 	5.93307e-06
0.171622 	83.2496 	0.188296 	4.30083e-05
0.171876 	83.099 	0.20307 	8.00835e-05
0.17213 	82.9488 	0.190449 	4.76167e-05
0.172384 	82.7986 	0.175818 	1.00452e-05
0.172639 	82.6487 	0.171955 	-3.98354e-07
0.172893 	82.4988 	0.17202 	-9.42466e-07
0.173147 	82.349 	0.172086 	-1.48658e-06
0.173401 	82.1992 	0.172152 	-1.07033e-06
0.173656 	82.0494 	0.172217 	-5.35724e-07
0.17391 	81.8996 	0.172283 	-1.11483e-09
0.174164 	81.7501 	0.186832 	3.47209e-05
0.174418 	81.6007 	0.20142 	6.95325e-05
0.174673 	81.4516 	0.191406 	4.54605e-05
0.174927 	81.3025 	0.176709 	1.0175e-05
0.175181 	81.1541 	0.172457 	-3.07235e-06
0.175435 	81.006 	0.172438 	-7.38998e-06
0.17569 	80.8579 	0.172419 	-1.17076e-05
0.175944 	80.7097 	0.1724 	-9.18552e-06
0.176198 	80.5616 	0.172381 	-4.94435e-06
0.176452 	80.4134 	0.172362 	-7.03175e-07
0.176707 	80.266 	0.184364 	2.7267e-05
0.176961 	80.1187 	0.198756 	5.99555e-05
0.177215 	79.9717 	0.191364 	4.33743e-05
0.177469 	79.8249 	0.17665 	1.02356e-05
0.177724 	79.6789 	0.172041 	-5.2944e-06
0.177978 	79.5333 	0.171946 	-1.29552e-05
0.178232 	79.3878 	0.171852 	-2.0616e-05
0.178486 	79.2422 	0.171758 	-1.75257e-05