/*--------------------------------*- C++ -*----------------------------------*\
| =========                 |                                                 |
| \\      /  F ield         | OpenFOAM: The Open Source CFD Toolbox           |
|  \\    /   O peration     | Version:  v3.0+                                 |
|   \\  /    A nd           | Web:      www.OpenFOAM.com                      |
|    \\/     M anipulation  |                                                 |
\*---------------------------------------------------------------------------*/
FoamFile
{
    version     2.0;
    format      ascii;
    class       volVectorField;
    location    "1000";
    object      D;
}
// * * * * * * * * * * * * * * * * * * * * * * * * * * * * * * * * * * * * * //

dimensions      [0 1 0 0 0 0 0];

internalField   nonuniform List<vector> 
24076
(
(1.56359e-06 1.58949e-06 0)
(1.84062e-09 2.12161e-08 0)
(1.48271e-11 2.98798e-10 0)
(1.50351e-11 2.90173e-10 0)
(4.04691e-07 1.24719e-06 0)
(2.34695e-09 2.5223e-08 0)
(1.77506e-09 2.13301e-08 0)
(1.60064e-06 1.60077e-06 0)
(-1.47266e-12 2.21823e-11 0)
(3.62051e-06 1.14069e-05 0)
(-4.9047e-07 1.06887e-06 0)
(3.6923e-06 1.15199e-05 0)
(6.3204e-07 6.94528e-07 0)
(3.71724e-07 1.24105e-06 0)
(3.94101e-06 9.31294e-06 0)
(6.54777e-07 8.77051e-06 0)
(-6.93783e-06 5.80041e-05 0)
(7.78066e-06 5.80414e-05 0)
(3.92064e-07 4.84019e-06 0)
(7.39272e-07 8.81894e-06 0)
(3.84107e-06 9.24322e-06 0)
(-4.7784e-07 2.08492e-06 0)
(2.27966e-09 3.41692e-08 0)
(-4.72194e-07 1.04338e-06 0)
(1.22971e-07 5.51394e-07 0)
(3.27723e-07 4.81926e-06 0)
(-5.32928e-08 8.89454e-08 0)
(2.29315e-09 2.48659e-08 0)
(2.96831e-08 1.04069e-05 0)
(9.5661e-08 5.43058e-07 0)
(-1.15848e-07 1.03945e-05 0)
(4.91172e-11 5.14987e-09 0)
(1.40644e-06 5.83555e-06 0)
(8.0859e-07 2.41662e-06 0)
(1.47753e-06 5.85753e-06 0)
(2.71148e-06 8.45952e-06 0)
(6.61561e-07 7.22828e-07 0)
(-6.90692e-06 5.84371e-05 0)
(7.76042e-06 5.84791e-05 0)
(1.288e-06 7.96989e-07 0)
(-2.55516e-07 1.66011e-07 0)
(-3.3184e-07 2.1299e-05 0)
(5.82575e-07 8.92333e-07 0)
(7.71637e-07 2.41934e-06 0)
(2.609e-06 8.4153e-06 0)
(-2.67254e-06 7.93701e-06 0)
(2.42651e-10 2.29956e-08 0)
(1.25426e-06 1.13969e-05 0)
(-5.66692e-08 9.07901e-08 0)
(-1.93835e-06 8.44777e-06 0)
(4.90465e-11 7.68636e-10 0)
(-4.72366e-08 8.16883e-08 0)
(-4.03161e-12 2.86452e-11 0)
(2.24147e-09 2.73781e-08 0)
(-1.47346e-12 2.37475e-11 0)
(3.68825e-06 3.10131e-05 0)
(5.47307e-07 2.13291e-06 0)
(2.31852e-06 3.44853e-06 0)
(1.60761e-06 0.000154872 0)
(3.97e-06 3.10548e-05 0)
(-2.68976e-06 8.04117e-06 0)
(-5.02122e-10 1.03172e-08 0)
(-1.8339e-06 3.45317e-06 0)
(-1.83699e-06 8.39652e-06 0)
(-3.18823e-07 1.1581e-06 0)
(2.27222e-06 3.4479e-06 0)
(6.98444e-07 1.95033e-06 0)
(-2.88323e-07 1.15433e-06 0)
(8.39887e-10 1.55e-08 0)
(7.0807e-07 1.91793e-06 0)
(1.10939e-06 0.000153698 0)
(-1.69727e-09 4.49943e-08 0)
(-3.94925e-06 2.22429e-05 0)
(-2.24398e-10 2.41488e-09 0)
(-2.52398e-07 1.63799e-07 0)
(1.14768e-06 1.13705e-05 0)
(-5.14102e-07 2.11156e-06 0)
(-4.0936e-06 2.24189e-05 0)
(1.40131e-06 2.36806e-06 0)
(-1.79404e-06 3.40104e-06 0)
(4.06181e-10 2.31674e-08 0)
(1.75879e-06 1.98336e-05 0)
(-1.51188e-07 2.76277e-06 0)
(7.47311e-09 8.81024e-07 0)
(-1.52699e-07 1.37245e-07 0)
(-3.53764e-12 2.47102e-11 0)
(4.72222e-06 9.63862e-05 0)
(-4.25537e-06 3.29006e-05 0)
(1.46396e-07 0.000153458 0)
(3.94186e-06 9.64538e-05 0)
(1.60843e-06 1.99602e-05 0)
(1.05072e-06 0.000155742 0)
(-7.51653e-07 3.66685e-06 0)
(5.8036e-07 2.1515e-06 0)
(-6.60585e-09 9.05864e-07 0)
(-4.25573e-07 4.628e-07 0)
(-8.3521e-07 6.53688e-05 0)
(2.90048e-06 9.94965e-05 0)
(1.06009e-11 4.99408e-09 0)
(6.40696e-07 1.46802e-06 0)
(-1.74393e-07 2.81192e-06 0)
(-3.63217e-07 7.48628e-07 0)
(-2.22353e-07 2.14968e-05 0)
(1.37466e-06 2.3293e-06 0)
(-3.7792e-07 1.4721e-05 0)
(-2.76947e-07 2.01798e-07 0)
(-6.76001e-11 1.00805e-09 0)
(-2.52739e-10 4.28361e-08 0)
(-1.08136e-06 2.91005e-06 0)
(-1.15819e-06 1.58768e-05 0)
(-9.37297e-07 6.59266e-05 0)
(9.88558e-07 1.15433e-05 0)
(-1.15037e-12 6.66868e-11 0)
(-5.55468e-10 1.01027e-08 0)
(6.83486e-06 0.000125145 0)
(4.20774e-11 7.49589e-10 0)
(-4.24814e-07 1.10958e-06 0)
(-1.01189e-06 1.58181e-05 0)
(2.77122e-06 0.000100132 0)
(-1.32575e-06 1.58338e-05 0)
(2.18687e-07 1.29108e-05 0)
(-2.20026e-06 1.27852e-05 0)
(-2.68088e-07 2.05874e-07 0)
(1.25259e-06 7.76214e-07 0)
(2.62386e-06 9.80141e-06 0)
(-4.34427e-06 3.31896e-05 0)
(-1.09361e-06 2.95736e-06 0)
(3.02585e-06 1.62682e-05 0)
(-4.93195e-07 1.46043e-05 0)
(1.97082e-10 3.60261e-09 0)
(-2.19351e-06 1.26522e-05 0)
(-1.41337e-06 1.57181e-05 0)
(-1.56485e-06 3.01477e-05 0)
(2.10968e-09 3.4496e-08 0)
(-7.32287e-07 3.71482e-06 0)
(-6.37489e-08 8.95245e-08 0)
(4.89819e-07 3.5031e-06 0)
(5.52645e-07 8.68395e-07 0)
(1.1829e-06 8.84222e-05 0)
(6.03096e-07 3.79983e-06 0)
(6.56832e-07 3.81105e-06 0)
(-1.409e-12 6.28633e-11 0)
(-4.4422e-09 1.07865e-08 0)
(-1.08393e-06 7.39968e-05 0)
(5.91075e-06 7.64874e-05 0)
(1.03394e-06 1.14304e-05 0)
(-1.6592e-06 3.03974e-05 0)
(3.86247e-06 4.49123e-05 0)
(4.61062e-07 4.17411e-06 0)
(7.37927e-11 1.6951e-09 0)
(-1.8864e-06 7.12414e-06 0)
(-1.425e-13 1.09962e-12 0)
(5.96411e-07 2.27033e-07 0)
(5.97082e-07 1.14416e-06 0)
(1.62918e-06 3.34212e-06 0)
(9.6508e-07 2.03511e-05 0)
(1.32568e-06 9.88302e-07 0)
(-2.70435e-07 1.30204e-05 0)
(4.58529e-07 3.53976e-06 0)
(-1.03697e-11 3.66571e-10 0)
(4.37713e-09 -7.87906e-09 0)
(-1.47372e-12 1.77907e-11 0)
(4.60212e-06 1.21477e-05 0)
(-1.23298e-06 2.46468e-06 0)
(4.45496e-07 3.18915e-05 0)
(9.31034e-06 8.87989e-05 0)
(-8.56817e-06 8.87996e-05 0)
(-7.16142e-07 5.2767e-06 0)
(-4.87101e-07 1.59705e-06 0)
(-1.97256e-07 1.08255e-07 0)
(1.11973e-06 3.34708e-06 0)
(7.99242e-10 4.10788e-08 0)
(9.52733e-08 6.06744e-06 0)
(1.1061e-06 5.00604e-06 0)
(-1.22635e-06 5.2882e-06 0)
(2.00119e-06 5.2881e-06 0)
(-4.26893e-06 3.1082e-05 0)
(5.00561e-06 3.10845e-05 0)
(4.38257e-06 1.31426e-05 0)
(-2.10504e-06 6.5939e-06 0)
(-1.73745e-06 3.39599e-06 0)
(-3.62831e-10 2.64548e-09 0)
(1.03715e-06 2.30524e-06 0)
(-6.79328e-08 -5.78165e-12 0)
(-7.41873e-08 3.42763e-09 0)
(-4.59041e-08 1.56693e-06 0)
(-4.94294e-07 1.63614e-06 0)
(-2.27943e-07 2.04856e-07 0)
(-6.3689e-07 1.26292e-06 0)
(3.84618e-07 2.24954e-07 0)
(4.75589e-10 6.47871e-09 0)
(-1.29413e-06 7.21024e-06 0)
(-4.95541e-06 8.59081e-05 0)
(-2.60722e-06 1.99945e-05 0)
(2.31409e-06 1.87974e-05 0)
(2.80964e-06 5.57107e-06 0)
(2.22868e-09 2.60861e-08 0)
(4.51948e-06 3.07296e-05 0)
(-3.7791e-06 3.07241e-05 0)
(-2.03733e-06 5.57199e-06 0)
(1.03595e-06 2.26342e-06 0)
(-2.08336e-07 1.87083e-07 0)
(-8.72042e-06 9.85397e-05 0)
(9.46641e-06 9.85401e-05 0)
(1.40582e-06 7.6893e-05 0)
(5.2893e-07 1.28395e-06 0)
(-2.36606e-06 7.50607e-06 0)
(-4.65485e-06 4.27592e-05 0)
(1.13393e-06 8.08312e-07 0)
(6.28024e-09 6.09385e-06 0)
(-1.11188e-09 2.74031e-08 0)
(5.87095e-07 6.89662e-06 0)
(-1.81982e-08 6.20013e-08 0)
(-1.92441e-06 7.01392e-06 0)
(-1.56618e-12 1.765e-11 0)
(1.6918e-07 5.04747e-06 0)
(-6.61157e-08 9.08886e-08 0)
(-1.86603e-06 4.50762e-06 0)
(-9.92444e-06 0.000149549 0)
(1.06757e-05 0.000149552 0)
(-2.33501e-07 5.51764e-05 0)
(4.07367e-06 9.28028e-06 0)
(1.82767e-06 1.58965e-06 0)
(-4.1148e-07 2.50934e-06 0)
(2.97816e-06 6.54346e-06 0)
(-2.4469e-11 1.53878e-10 0)
(-1.84582e-11 3.36266e-10 0)
(-2.7461e-06 1.67814e-05 0)
(-3.11809e-11 2.12352e-10 0)
(3.41327e-06 9.55154e-05 0)
(-1.33776e-11 3.4213e-10 0)
(-1.32257e-06 7.29934e-06 0)
(-3.52345e-11 6.12209e-10 0)
(-4.07905e-10 3.01589e-09 0)
(5.90326e-07 2.76088e-06 0)
(2.2654e-06 3.48709e-05 0)
(-3.17173e-07 2.9496e-07 0)
(3.06517e-07 8.74924e-08 0)
(-2.654e-06 3.12832e-05 0)
(-5.10268e-06 2.23915e-05 0)
(5.87061e-06 2.23965e-05 0)
(-1.57671e-07 1.3899e-07 0)
(-3.44928e-06 3.98413e-05 0)
(-3.11205e-06 3.95349e-05 0)
(7.4122e-06 4.14088e-05 0)
(-6.70261e-06 4.14202e-05 0)
(-2.62527e-06 2.26876e-05 0)
(2.90563e-06 5.60671e-06 0)
(-2.13358e-06 5.60772e-06 0)
(-4.32442e-07 9.53173e-07 0)
(-6.69484e-06 7.46112e-05 0)
(2.11982e-06 6.43881e-05 0)
(2.03351e-08 -1.01507e-08 0)
(1.98802e-06 2.69842e-06 0)
(7.73776e-06 4.15883e-05 0)
(-6.99171e-06 4.15896e-05 0)
(8.53121e-10 1.33046e-08 0)
(-2.42234e-11 4.41431e-09 0)
(-2.65931e-08 6.43317e-08 0)
(2.99777e-06 9.08146e-05 0)
(5.62919e-07 1.11996e-06 0)
(2.11127e-06 2.13331e-06 0)
(2.16215e-06 6.28452e-06 0)
(-9.78792e-13 1.88546e-11 0)
(-6.98314e-07 3.23579e-06 0)
(1.60819e-07 5.41744e-07 0)
(-2.32782e-06 7.42069e-06 0)
(7.4029e-07 1.8514e-05 0)
(-2.48625e-06 2.0122e-05 0)
(1.34953e-11 1.99732e-10 0)
(-5.28674e-06 7.09054e-05 0)
(6.06227e-06 7.09194e-05 0)
(1.9407e-06 2.67337e-06 0)
(8.09309e-07 1.1804e-05 0)
(-8.32428e-08 1.05338e-07 0)
(-2.87401e-06 2.79822e-05 0)
(-4.43702e-06 3.39269e-05 0)
(8.2267e-10 4.06671e-08 0)
(-2.21696e-06 8.16689e-06 0)
(4.69656e-06 1.22654e-05 0)
(5.6504e-11 1.23412e-09 0)
(-1.22446e-07 7.89295e-05 0)
(4.18825e-07 3.36079e-05 0)
(-4.97259e-08 7.78751e-08 0)
(3.55113e-07 3.13133e-06 0)
(-3.06137e-07 2.77055e-07 0)
(-5.07032e-10 4.95037e-09 0)
(2.34182e-06 6.30121e-06 0)
(-8.58934e-07 1.26645e-06 0)
(9.94889e-07 2.00445e-06 0)
(-1.60519e-06 7.38766e-05 0)
(1.63027e-06 1.92645e-06 0)
(1.07806e-06 5.06473e-06 0)
(5.87998e-07 1.50007e-06 0)
(9.65738e-06 8.95014e-05 0)
(-8.91391e-06 8.95006e-05 0)
(-1.42198e-06 7.46907e-06 0)
(6.05356e-12 3.08444e-10 0)
(-1.10941e-10 1.20019e-09 0)
(2.19955e-06 1.36125e-05 0)
(-2.7389e-06 2.29274e-05 0)
(3.51851e-06 2.29435e-05 0)
(-3.8916e-06 4.56192e-05 0)
(4.6483e-06 4.56525e-05 0)
(-3.10211e-07 2.69045e-07 0)
(-1.72288e-12 4.57864e-11 0)
(-2.93233e-07 5.62854e-05 0)
(-2.66702e-06 1.66262e-05 0)
(-6.38845e-08 2.48407e-06 0)
(-1.53638e-06 6.67518e-05 0)
(-4.88685e-07 1.06964e-05 0)
(5.56278e-07 1.84636e-05 0)
(1.25099e-12 3.66944e-11 0)
(-1.78997e-06 1.01451e-05 0)
(-8.31106e-07 7.00984e-06 0)
(2.49013e-06 3.36966e-06 0)
(1.85533e-06 1.01124e-05 0)
(-9.85664e-11 5.80817e-10 0)
(-6.20246e-07 7.69536e-07 0)
(1.92034e-07 4.9799e-06 0)
(3.68175e-06 2.48859e-05 0)
(-2.21124e-06 6.55457e-06 0)
(-1.66755e-06 1.01175e-05 0)
(-5.49823e-10 7.85271e-09 0)
(2.07722e-09 2.72002e-08 0)
(2.06424e-06 6.33001e-06 0)
(8.99867e-06 6.74955e-05 0)
(-8.26186e-06 6.74931e-05 0)
(1.1641e-06 8.45314e-07 0)
(-7.39085e-08 1.13164e-06 0)
(-1.41126e-07 3.17916e-06 0)
(5.25168e-06 3.08631e-05 0)
(-4.50328e-06 3.0862e-05 0)
(7.4259e-07 3.37204e-05 0)
(2.38342e-06 1.53927e-05 0)
(2.44698e-06 5.91091e-06 0)
(-4.47231e-07 1.09722e-06 0)
(2.54608e-09 2.94193e-08 0)
(-1.38533e-06 4.12638e-06 0)
(3.86221e-07 3.28095e-07 0)
(-1.49263e-06 2.70991e-06 0)
(-1.71536e-07 5.9763e-05 0)
(8.03491e-10 1.22275e-08 0)
(-2.61793e-06 3.42263e-05 0)
(3.79057e-07 1.29299e-05 0)
(-3.26268e-07 2.97884e-07 0)
(-2.79414e-08 6.55811e-08 0)
(2.88714e-08 1.7814e-06 0)
(9.52793e-07 2.06535e-05 0)
(3.35417e-06 1.12934e-05 0)
(-4.12692e-07 1.65845e-06 0)
(1.38098e-07 1.17526e-06 0)
(-2.66417e-06 1.60144e-05 0)
(6.35756e-07 5.18839e-06 0)
(1.86743e-06 2.24373e-06 0)
(2.18302e-06 1.86349e-05 0)
(1.78706e-06 5.61001e-06 0)
(5.4131e-07 4.36325e-06 0)
(-5.56466e-06 8.54707e-05 0)
(1.72796e-07 4.54203e-07 0)
(3.88491e-07 1.24715e-05 0)
(1.84847e-06 3.35564e-06 0)
(8.13077e-07 1.9763e-06 0)
(-5.34684e-10 1.23392e-08 0)
(-1.84735e-06 3.72015e-06 0)
(2.81521e-08 2.41332e-09 0)
(-3.5731e-07 1.07486e-05 0)
(3.18342e-06 1.12905e-05 0)
(1.30688e-06 2.3474e-06 0)
(5.41782e-07 6.82798e-06 0)
(1.90966e-06 2.26068e-06 0)
(3.14235e-07 5.68068e-07 0)
(3.88214e-06 9.76594e-06 0)
(-1.09938e-08 5.17363e-08 0)
(2.78337e-06 5.48807e-06 0)
(-2.0109e-06 5.48886e-06 0)
(-3.80541e-11 1.4376e-09 0)
(-5.96243e-06 5.9836e-05 0)
(6.69579e-06 5.97651e-05 0)
(-4.81522e-08 8.30461e-08 0)
(-2.52369e-07 2.30916e-07 0)
(-3.89258e-07 1.31439e-05 0)
(5.50349e-07 3.47568e-07 0)
(-1.85313e-07 7.01249e-07 0)
(-3.00918e-06 2.2403e-05 0)
(5.02847e-10 9.3726e-09 0)
(-6.05413e-07 5.03072e-06 0)
(9.11129e-10 4.0939e-08 0)
(3.72237e-12 2.18943e-10 0)
(1.53185e-06 2.02742e-06 0)
(9.237e-08 1.06361e-06 0)
(-9.30091e-06 9.81294e-05 0)
(1.0047e-05 9.81297e-05 0)
(3.5841e-06 9.12054e-05 0)
(-4.96575e-06 4.25002e-05 0)
(-1.94005e-06 5.43195e-06 0)
(2.71276e-06 5.43127e-06 0)
(-8.47417e-07 1.84362e-06 0)
(-2.79282e-06 2.23837e-05 0)
(6.24731e-07 1.49635e-06 0)
(-2.17952e-06 1.0209e-05 0)
(3.99993e-06 3.39759e-05 0)
(-2.51259e-12 1.69238e-10 0)
(-2.79667e-07 9.70654e-07 0)
(3.49056e-06 7.98937e-06 0)
(-5.04099e-06 7.14881e-05 0)
(5.83804e-06 7.15007e-05 0)
(1.57701e-06 1.33812e-05 0)
(5.81873e-07 5.65442e-06 0)
(-1.06015e-06 7.89144e-05 0)
(-3.17853e-06 8.26364e-06 0)
(4.69128e-06 1.77723e-05 0)
(1.92557e-12 2.09425e-10 0)
(2.80462e-07 5.84817e-06 0)
(2.44156e-06 6.50293e-05 0)
(3.70036e-07 2.39919e-07 0)
(5.17149e-06 7.56551e-05 0)
(2.34643e-12 5.60867e-11 0)
(-8.63247e-07 1.28806e-06 0)
(-3.7375e-06 4.52445e-05 0)
(4.49392e-06 4.52756e-05 0)
(-6.9763e-07 3.2821e-06 0)
(9.21142e-07 1.01028e-06 0)
(-2.48953e-07 4.91475e-07 0)
(2.64976e-06 9.76453e-05 0)
(-4.2965e-07 1.63249e-06 0)
(5.63149e-07 1.28525e-06 0)
(1.14966e-06 2.01398e-06 0)
(-1.43026e-07 3.22492e-06 0)
(-2.62948e-08 6.26785e-08 0)
(1.69933e-06 2.79921e-06 0)
(-9.40804e-07 9.99907e-06 0)
(-2.96639e-08 1.59452e-06 0)
(4.92484e-07 2.46422e-06 0)
(4.93738e-06 7.22742e-05 0)
(-5.11067e-07 7.85568e-06 0)
(3.05437e-09 2.73496e-08 0)
(1.95873e-06 6.16114e-05 0)
(-2.63684e-07 2.32557e-07 0)
(7.6709e-07 1.33927e-06 0)
(1.71926e-10 6.52333e-09 0)
(-3.52376e-08 6.58665e-08 0)
(-5.73523e-07 9.7136e-07 0)
(9.84997e-07 1.9725e-06 0)
(3.1066e-07 3.2181e-05 0)
(2.05181e-06 2.17118e-06 0)
(1.91526e-09 2.30966e-08 0)
(4.49111e-06 1.78582e-05 0)
(-1.95004e-06 2.18985e-05 0)
(9.60646e-07 4.38429e-06 0)
(4.84425e-07 2.42629e-06 0)
(-2.60246e-06 3.16269e-05 0)
(5.58554e-06 0.000107532 0)
(4.13534e-06 2.0255e-05 0)
(8.65719e-07 1.16468e-06 0)
(-8.53946e-11 2.33002e-09 0)
(5.89683e-06 0.000125224 0)
(5.91507e-10 1.4666e-08 0)
(-2.77225e-10 1.8037e-09 0)
(8.80329e-08 8.22078e-07 0)
(-1.19648e-08 2.49528e-06 0)
(4.66165e-06 1.55815e-05 0)
(1.32597e-06 2.31939e-06 0)
(-7.30221e-11 8.60819e-10 0)
(-2.13888e-12 1.51776e-11 0)
(-6.30531e-06 4.97691e-05 0)
(7.13891e-06 4.97945e-05 0)
(3.198e-06 1.63483e-05 0)
(-6.0736e-10 7.37835e-09 0)
(-4.70372e-07 5.35575e-07 0)
(-1.70941e-12 5.52593e-11 0)
(2.81713e-07 4.27734e-06 0)
(-6.37959e-07 3.02078e-06 0)
(-3.73803e-06 1.78685e-05 0)
(-5.46791e-06 5.97481e-05 0)
(6.20161e-06 5.96775e-05 0)
(1.41725e-06 1.57076e-06 0)
(2.39875e-06 1.44639e-05 0)
(-4.60646e-11 5.19961e-10 0)
(1.07446e-06 2.45257e-06 0)
(6.53489e-07 9.35268e-07 0)
(-2.39904e-06 2.26413e-05 0)
(-1.93687e-06 1.84022e-05 0)
(2.5232e-06 3.43356e-06 0)
(1.20912e-06 3.1436e-06 0)
(5.12948e-07 5.53185e-07 0)
(1.93325e-06 1.24537e-05 0)
(-1.24815e-06 2.43603e-06 0)
(3.68237e-06 4.17408e-05 0)
(3.56318e-06 2.52036e-05 0)
(8.59378e-06 6.7039e-05 0)
(-7.85696e-06 6.70366e-05 0)
(-7.56619e-09 5.23318e-08 0)
(3.95207e-06 8.26659e-06 0)
(-6.82502e-07 3.01346e-06 0)
(3.09898e-06 4.89837e-05 0)
(-3.09706e-10 2.49628e-09 0)
(-6.23756e-06 6.57169e-05 0)
(-1.18895e-10 1.04957e-09 0)
(4.39422e-06 3.87616e-05 0)
(-5.55648e-07 5.06655e-06 0)
(3.21517e-06 7.13431e-06 0)
(-4.13232e-12 1.65785e-10 0)
(2.18701e-07 9.56173e-05 0)
(-2.664e-09 2.38488e-08 0)
(-2.25253e-07 5.81263e-06 0)
(-1.91663e-07 4.48587e-06 0)
(2.22228e-06 6.12922e-06 0)
(-1.34377e-06 2.35023e-06 0)
(-2.48377e-06 1.16528e-05 0)
(-4.52218e-06 2.04499e-05 0)
(-6.7727e-08 9.70112e-08 0)
(5.24791e-06 7.28275e-05 0)
(4.42044e-06 2.06716e-05 0)
(2.30297e-13 2.0491e-11 0)
(1.01775e-06 5.04056e-07 0)
(4.83398e-06 8.47861e-05 0)
(-3.93351e-09 2.58069e-08 0)
(-7.53316e-07 1.96351e-06 0)
(2.49024e-06 3.65681e-05 0)
(6.9241e-08 7.96575e-07 0)
(7.37262e-07 5.04301e-05 0)
(-6.15801e-07 1.23105e-06 0)
(-2.27923e-10 2.21119e-09 0)
(-2.31284e-07 2.61804e-07 0)
(2.01789e-10 4.59125e-09 0)
(6.33557e-07 5.72194e-06 0)
(-6.6588e-06 0.000108851 0)
(7.35852e-06 0.000108833 0)
(-1.28209e-06 9.94603e-06 0)
(-6.24635e-10 7.64274e-09 0)
(1.73857e-06 1.62991e-06 0)
(-4.91622e-10 3.93961e-09 0)
(3.16739e-06 1.20736e-05 0)
(9.73661e-06 0.000155737 0)
(-8.99157e-06 0.000155727 0)
(-4.36865e-12 6.58286e-11 0)
(-3.31306e-09 4.77005e-08 0)
(1.78329e-06 1.55794e-06 0)
(-1.37927e-06 1.31786e-05 0)
(-8.52924e-07 1.80783e-06 0)
(9.53079e-08 1.03585e-06 0)
(3.49683e-06 9.75859e-05 0)
(-5.67881e-07 1.66646e-05 0)
(2.53993e-11 3.19436e-10 0)
(4.00681e-07 1.97819e-05 0)
(7.89996e-06 0.000103048 0)
(-7.1e-06 0.000103088 0)
(-4.62806e-12 2.87132e-10 0)
(4.71588e-11 1.20161e-09 0)
(2.39987e-06 1.65735e-05 0)
(-5.63933e-06 0.000108975 0)
(6.34215e-06 0.000109033 0)
(1.82138e-06 3.84489e-06 0)
(1.31819e-07 2.79874e-06 0)
(-4.41327e-11 4.94297e-10 0)
(3.69671e-06 0.00010406 0)
(2.09299e-06 5.83543e-06 0)
(1.78924e-07 2.07114e-06 0)
(6.60592e-06 3.96858e-05 0)
(-5.85898e-06 3.96874e-05 0)
(-2.08515e-06 5.82072e-06 0)
(2.8598e-06 5.81831e-06 0)
(1.93501e-06 1.9823e-06 0)
(-5.53782e-13 3.27464e-12 0)
(3.30179e-11 8.43095e-09 0)
(3.38892e-07 6.97034e-06 0)
(1.30731e-06 1.34619e-05 0)
(-8.45085e-11 5.70247e-10 0)
(2.01516e-06 2.36646e-06 0)
(5.10389e-07 8.75679e-07 0)
(1.19756e-12 2.45406e-10 0)
(4.44704e-06 2.54453e-05 0)
(-7.52164e-06 9.95965e-05 0)
(8.26739e-06 9.95972e-05 0)
(-2.69039e-07 4.90537e-07 0)
(-9.8056e-07 1.21447e-05 0)
(2.0285e-06 5.84613e-06 0)
(5.44672e-06 0.000108351 0)
(3.80868e-07 5.21935e-06 0)
(-4.13921e-11 7.87181e-10 0)
(1.6669e-06 1.92867e-06 0)
(-9.79898e-12 5.87348e-10 0)
(-1.50171e-09 2.49499e-08 0)
(-2.18886e-06 2.17977e-05 0)
(-1.97575e-07 1.66192e-07 0)
(-2.99615e-07 5.85654e-06 0)
(-7.09121e-07 9.26022e-07 0)
(8.40355e-06 0.00010377 0)
(-7.62699e-06 0.000103792 0)
(1.84905e-06 6.10968e-05 0)
(4.08679e-06 0.000104951 0)
(-1.01017e-06 1.22755e-05 0)
(-1.28586e-07 1.26557e-07 0)
(1.04492e-06 2.4727e-06 0)
(-1.49092e-08 5.65206e-08 0)
(1.89979e-06 1.2572e-05 0)
(-7.31475e-11 9.48258e-10 0)
(-1.25172e-06 2.84423e-06 0)
(-2.65276e-06 1.17316e-05 0)
(-1.38646e-06 6.13066e-06 0)
(6.1167e-07 5.25073e-06 0)
(-5.22485e-07 7.97315e-06 0)
(7.24877e-07 1.15714e-06 0)
(-7.77014e-08 1.77444e-06 0)
(5.69853e-06 7.59429e-05 0)
(1.02633e-06 6.94192e-07 0)
(1.76698e-06 3.86125e-06 0)
(-1.8333e-06 4.55436e-06 0)
(2.32447e-06 1.46151e-05 0)
(2.36044e-07 1.22308e-06 0)
(1.17507e-06 4.66395e-06 0)
(-8.27314e-07 3.54278e-05 0)
(-2.04494e-07 1.69709e-07 0)
(4.16973e-06 2.05023e-05 0)
(4.18626e-06 9.39942e-06 0)
(-2.61263e-07 2.37125e-07 0)
(-3.91627e-06 7.94349e-05 0)
(4.68761e-06 7.94178e-05 0)
(1.75829e-09 2.72652e-08 0)
(-1.18906e-06 9.29948e-05 0)
(-4.33671e-07 2.55355e-06 0)
(1.61797e-11 5.46216e-10 0)
(2.43571e-06 6.34224e-06 0)
(-5.33676e-06 3.36457e-05 0)
(9.57363e-06 0.000119701 0)
(-8.8387e-06 0.000119712 0)
(-2.46405e-06 1.3909e-05 0)
(-9.12403e-13 2.45894e-10 0)
(1.40207e-07 4.37518e-06 0)
(-2.28e-06 8.76477e-06 0)
(5.86697e-07 2.20149e-06 0)
(-2.93765e-06 2.82498e-05 0)
(-1.18493e-06 1.0017e-05 0)
(4.33535e-10 1.39961e-08 0)
(-2.7128e-11 2.20179e-10 0)
(5.39003e-07 7.30262e-06 0)
(3.84833e-06 4.28032e-05 0)
(1.02178e-06 5.08238e-05 0)
(-2.27714e-07 4.54961e-06 0)
(-9.57755e-12 5.66992e-10 0)
(-9.89837e-12 6.68349e-11 0)
(-2.16985e-06 8.7572e-06 0)
(-1.86877e-07 1.0408e-07 0)
(-5.88216e-06 6.5289e-05 0)
(5.85254e-07 2.36603e-07 0)
(1.08093e-06 2.05446e-06 0)
(-7.4413e-07 7.02739e-06 0)
(-9.64168e-11 6.46428e-10 0)
(-2.33734e-07 1.95306e-07 0)
(4.67354e-06 2.05863e-05 0)
(5.07787e-06 1.99934e-05 0)
(4.36132e-06 1.30004e-05 0)
(4.65673e-06 7.57862e-05 0)
(-2.32115e-06 9.98534e-05 0)
(2.77085e-06 3.68939e-05 0)
(7.19928e-07 2.80509e-06 0)
(9.2325e-07 4.44214e-06 0)
(3.91157e-06 9.91298e-06 0)
(-3.93918e-06 1.77815e-05 0)
(-1.46829e-06 4.38092e-06 0)
(-2.94545e-06 1.16754e-05 0)
(-7.32361e-13 1.88313e-11 0)
(6.40494e-10 1.5002e-08 0)
(1.38832e-07 7.44535e-07 0)
(-1.59722e-06 3.28454e-06 0)
(-1.60877e-09 4.46565e-08 0)
(-1.41876e-06 1.3315e-05 0)
(7.74009e-07 2.74415e-06 0)
(5.64043e-07 1.96931e-05 0)
(-4.10444e-11 7.52034e-10 0)
(-8.59291e-07 8.39021e-06 0)
(6.86672e-07 2.83253e-06 0)
(-7.17409e-07 1.50839e-05 0)
(-4.18329e-07 4.46809e-07 0)
(1.02207e-05 0.000105138 0)
(-9.47404e-06 0.000105138 0)
(5.02592e-06 8.56841e-05 0)
(7.27188e-06 3.62724e-05 0)
(-6.52447e-06 3.62752e-05 0)
(-2.17454e-06 8.26008e-06 0)
(-5.9659e-07 7.45786e-07 0)
(4.34909e-10 1.00936e-08 0)
(-1.37898e-06 5.53939e-06 0)
(3.92639e-06 8.54713e-06 0)
(-8.42445e-08 1.05451e-07 0)
(-3.70513e-10 2.66184e-09 0)
(-8.84285e-06 9.48456e-05 0)
(9.58828e-06 9.48449e-05 0)
(1.25238e-06 3.16735e-06 0)
(-7.15296e-07 4.2195e-06 0)
(3.60911e-07 3.17913e-06 0)
(2.15547e-06 5.54316e-06 0)
(1.73519e-06 1.19231e-05 0)
(2.18315e-09 2.64131e-08 0)
(9.42797e-07 7.75063e-07 0)
(-1.34405e-06 2.39066e-06 0)
(3.16379e-07 3.21528e-06 0)
(-3.34525e-07 2.54323e-06 0)
(6.56072e-06 4.00582e-05 0)
(-5.81503e-06 4.00543e-05 0)
(-2.23655e-09 2.20815e-08 0)
(2.01581e-06 2.40186e-06 0)
(-3.21092e-12 3.3227e-11 0)
(1.82471e-06 2.33065e-06 0)
(-2.68381e-11 2.8382e-10 0)
(1.30468e-06 5.35282e-06 0)
(1.57003e-06 1.19282e-05 0)
(4.41994e-08 -2.77032e-08 0)
(-3.1609e-06 8.54513e-06 0)
(-3.75155e-11 6.36589e-10 0)
(4.63972e-07 2.6538e-07 0)
(-2.98392e-07 2.50933e-07 0)
(1.35288e-06 5.30747e-06 0)
(4.2536e-10 2.25977e-08 0)
(-3.64625e-06 7.991e-05 0)
(4.40087e-06 7.99075e-05 0)
(-1.69725e-06 3.34044e-06 0)
(3.18955e-06 8.58399e-06 0)
(5.2211e-07 7.49299e-07 0)
(-1.4876e-06 2.64597e-05 0)
(2.07772e-06 2.5777e-06 0)
(-5.25143e-07 5.87141e-07 0)
(1.73925e-09 3.55736e-08 0)
(3.98585e-07 7.07494e-06 0)
(2.86096e-07 3.79541e-05 0)
(7.4814e-11 2.84088e-09 0)
(-2.21019e-08 6.75423e-08 0)
(-8.4738e-07 2.1439e-06 0)
(-7.17153e-06 9.06636e-05 0)
(7.91561e-06 9.06638e-05 0)
(-2.60125e-07 9.45663e-07 0)
(-1.57765e-12 1.53003e-11 0)
(3.15342e-06 8.78431e-05 0)
(-1.8147e-07 3.50955e-06 0)
(-1.33544e-06 8.73969e-06 0)
(-3.39593e-07 2.58622e-06 0)
(2.47607e-06 1.64299e-05 0)
(-2.24162e-07 2.00584e-07 0)
(-2.03789e-06 4.996e-06 0)
(2.81073e-06 4.99632e-06 0)
(-7.16981e-07 1.92877e-06 0)
(-8.71841e-09 -3.1683e-09 0)
(7.82073e-10 1.86609e-08 0)
(-2.67938e-06 1.192e-05 0)
(1.23654e-06 4.71473e-06 0)
(2.03719e-06 2.56685e-06 0)
(1.66578e-06 1.3334e-06 0)
(5.25284e-06 3.26435e-05 0)
(3.0764e-08 -1.62005e-08 0)
(-2.14498e-07 1.91918e-07 0)
(-6.81712e-07 5.80724e-06 0)
(-3.12711e-07 4.30808e-06 0)
(-2.15397e-06 2.15319e-05 0)
(-2.62146e-06 1.40414e-05 0)
(1.45811e-07 2.07066e-06 0)
(-2.62934e-07 1.99599e-07 0)
(1.48203e-07 9.78008e-05 0)
(-4.7855e-08 1.10907e-06 0)
(2.20452e-06 3.74287e-06 0)
(1.12528e-07 1.56219e-06 0)
(-4.1099e-08 7.2761e-08 0)
(-7.18751e-13 4.74935e-11 0)
(-4.09968e-07 1.45834e-06 0)
(-6.30305e-12 6.48816e-10 0)
(-1.33378e-06 6.05776e-06 0)
(-7.47817e-07 2.88734e-06 0)
(2.59062e-06 2.2491e-05 0)
(-2.51236e-08 6.35537e-08 0)
(-2.29042e-08 4.7783e-08 0)
(-9.48383e-06 0.000107949 0)
(1.02307e-05 0.000107948 0)
(-8.3901e-07 1.24089e-06 0)
(-2.01892e-07 2.67889e-07 0)
(-4.06586e-12 1.62451e-11 0)
(1.93723e-10 1.08716e-08 0)
(7.47793e-06 4.23087e-05 0)
(-6.76538e-06 4.23135e-05 0)
(-2.79669e-06 4.88289e-05 0)
(5.40734e-11 2.84927e-09 0)
(1.38933e-06 4.79928e-06 0)
(-3.20279e-07 2.91151e-07 0)
(-1.89304e-06 3.76168e-06 0)
(1.68901e-06 5.87771e-06 0)
(-3.27753e-07 2.54498e-07 0)
(-1.00074e-06 8.23704e-06 0)
(7.33465e-08 -1.41033e-08 0)
(-9.96489e-08 7.68486e-08 0)
(-8.34235e-08 9.42413e-08 0)
(-6.10747e-07 8.0698e-07 0)
(1.72583e-07 5.18238e-07 0)
(1.08903e-06 2.11238e-06 0)
(1.43856e-06 5.33685e-06 0)
(-4.41134e-12 6.09546e-11 0)
(-3.51708e-07 7.24655e-07 0)
(-6.15436e-07 7.70174e-07 0)
(-7.42756e-07 1.69164e-06 0)
(8.03852e-07 2.77466e-06 0)
(1.18143e-09 3.59927e-08 0)
(-5.67255e-06 3.35747e-05 0)
(-9.43624e-09 2.25752e-05 0)
(2.62171e-06 9.56909e-05 0)
(-1.15345e-07 5.43414e-08 0)
(3.74096e-07 9.20511e-06 0)
(8.3252e-10 1.37716e-08 0)
(1.7088e-10 3.57993e-09 0)
(4.07287e-07 3.13473e-07 0)
(7.58945e-07 1.16045e-06 0)
(2.30017e-06 6.13576e-06 0)
(1.83602e-06 6.31544e-05 0)
(2.83524e-06 0.000129301 0)
(1.94267e-06 0.000146502 0)
(6.49908e-07 3.37916e-06 0)
(1.16514e-06 2.32551e-06 0)
(6.43409e-10 1.1311e-08 0)
(-4.91152e-07 5.33798e-07 0)
(2.04831e-06 2.21354e-06 0)
(1.45767e-06 4.82519e-06 0)
(-2.61867e-12 1.81175e-11 0)
(-6.57244e-08 1.12451e-05 0)
(6.2702e-07 3.33431e-06 0)
(-6.30393e-08 9.41816e-08 0)
(1.59389e-06 2.31447e-05 0)
(1.94114e-06 3.17056e-05 0)
(1.84533e-07 5.80032e-06 0)
(3.82918e-06 9.96019e-06 0)
(1.04905e-06 2.03629e-06 0)
(-1.34362e-10 1.20686e-09 0)
(-1.42584e-06 8.81889e-06 0)
(-1.38893e-10 1.25385e-09 0)
(4.87926e-06 3.9669e-05 0)
(1.00002e-06 2.32943e-06 0)
(-1.00138e-06 1.49625e-05 0)
(1.63434e-06 3.55574e-05 0)
(5.07889e-11 1.74703e-09 0)
(-4.62093e-12 1.59508e-11 0)
(5.64574e-07 4.04925e-06 0)
(-4.99849e-10 4.31908e-08 0)
(9.54979e-07 1.91019e-06 0)
(-7.5711e-07 4.18787e-06 0)
(-1.08524e-06 4.48316e-06 0)
(-2.12911e-06 8.50207e-06 0)
(-6.86566e-06 0.000132736 0)
(7.66675e-06 0.000132743 0)
(1.41933e-06 2.12875e-06 0)
(2.55531e-09 2.39171e-08 0)
(-5.94079e-07 1.35968e-06 0)
(2.24572e-06 3.71883e-06 0)
(-3.53462e-09 4.79232e-08 0)
(1.6245e-06 5.88063e-06 0)
(-5.31507e-07 5.89941e-07 0)
(-2.72124e-07 1.95015e-07 0)
(-5.85939e-07 5.67132e-06 0)
(1.64593e-07 3.82935e-05 0)
(-1.00362e-10 2.30375e-09 0)
(-1.93245e-06 3.84895e-06 0)
(-3.26992e-06 3.32844e-05 0)
(-1.01493e-07 1.14773e-07 0)
(5.86661e-07 6.94801e-07 0)
(-1.70017e-06 5.5317e-06 0)
(7.28317e-08 -2.21838e-08 0)
(2.47335e-06 5.53096e-06 0)
(-2.04123e-12 1.31567e-11 0)
(-3.02936e-06 7.82624e-06 0)
(6.28215e-07 2.13061e-06 0)
(-3.66332e-06 0.000113123 0)
(4.68849e-06 1.75866e-05 0)
(5.5625e-07 2.73586e-06 0)
(-8.52268e-08 9.84405e-08 0)
(-2.7838e-06 0.000133801 0)
(-7.90796e-13 7.56762e-12 0)
(1.90356e-09 1.72659e-08 0)
(-1.42562e-07 1.21782e-07 0)
(6.7038e-08 1.93162e-06 0)
(8.03002e-07 3.97099e-06 0)
(-1.62834e-06 3.50834e-05 0)
(2.78793e-06 4.58811e-06 0)
(1.74427e-12 5.51073e-11 0)
(-4.29951e-06 4.70724e-05 0)
(-5.13443e-10 1.3071e-08 0)
(-7.25282e-07 4.29202e-06 0)
(2.56216e-07 1.24695e-05 0)
(3.30116e-06 1.32831e-05 0)
(5.38167e-06 3.72515e-05 0)
(-4.63424e-06 3.72543e-05 0)
(4.99091e-06 5.28348e-05 0)
(-4.24024e-06 5.28302e-05 0)
(-3.03966e-12 3.0309e-11 0)
(-1.57038e-06 6.61783e-05 0)
(2.27654e-11 3.11167e-10 0)
(3.0544e-06 6.35101e-05 0)
(-4.92162e-07 9.31602e-06 0)
(1.90786e-06 1.90093e-06 0)
(2.32228e-06 1.35508e-05 0)
(9.32578e-10 4.07505e-08 0)
(1.76598e-06 1.61656e-06 0)
(5.25015e-07 3.22168e-07 0)
(1.53064e-06 2.67283e-06 0)
(3.37251e-06 1.59258e-05 0)
(9.61504e-06 0.000104777 0)
(-8.8682e-06 0.000104777 0)
(6.31368e-07 2.09712e-06 0)
(6.70926e-12 1.66521e-10 0)
(1.39384e-11 2.72508e-10 0)
(5.70864e-08 -2.24266e-08 0)
(2.00235e-06 2.13087e-06 0)
(-5.7825e-06 3.59425e-05 0)
(6.53019e-06 3.594e-05 0)
(-9.07118e-07 2.21481e-05 0)
(1.55284e-07 1.14958e-06 0)
(-3.1455e-07 3.1491e-07 0)
(7.50524e-06 4.26764e-05 0)
(-6.76062e-06 4.26882e-05 0)
(5.27784e-06 3.91355e-05 0)
(2.30913e-07 4.31188e-06 0)
(9.5456e-07 3.56584e-06 0)
(5.38333e-06 5.27202e-05 0)
(-4.63235e-06 5.27156e-05 0)
(-1.02809e-06 4.0575e-05 0)
(2.00163e-13 2.01447e-11 0)
(5.78062e-07 7.22396e-07 0)
(6.49771e-07 7.6151e-07 0)
(-1.39915e-10 1.57866e-09 0)
(9.55174e-07 9.9559e-05 0)
(-1.15418e-06 2.86321e-06 0)
(2.14224e-06 3.02785e-05 0)
(-1.68728e-06 3.65762e-05 0)
(5.08495e-06 5.88961e-05 0)
(-4.34322e-06 5.89222e-05 0)
(-6.32319e-13 4.21536e-12 0)
(2.4931e-06 1.67454e-05 0)
(4.34349e-06 2.09458e-05 0)
(-5.46691e-07 9.50334e-07 0)
(-8.78877e-07 8.26386e-06 0)
(4.8503e-07 1.04928e-05 0)
(-2.59285e-11 2.57373e-10 0)
(3.38687e-06 7.99748e-06 0)
(-1.86569e-06 3.67038e-06 0)
(2.17296e-07 1.19568e-06 0)
(-1.15086e-10 1.25691e-09 0)
(-3.29418e-07 3.02611e-07 0)
(-5.15492e-07 1.40873e-06 0)
(-2.30719e-08 6.85714e-08 0)
(-1.73756e-06 4.6705e-05 0)
(7.03652e-07 7.32283e-07 0)
(-5.07864e-08 7.70974e-08 0)
(7.42571e-10 1.19288e-08 0)
(1.28314e-06 1.36051e-05 0)
(-1.43611e-06 4.11307e-06 0)
(-9.20672e-07 1.91085e-06 0)
(-1.72475e-11 3.26588e-10 0)
(8.74615e-07 1.13569e-06 0)
(-4.01986e-10 1.93611e-08 0)
(-8.72994e-07 1.88292e-06 0)
(1.18558e-06 2.36098e-06 0)
(2.37178e-06 6.37346e-05 0)
(-4.77911e-12 5.39913e-11 0)
(1.84933e-06 1.92877e-06 0)
(-9.10594e-06 0.000108603 0)
(9.85303e-06 0.000108603 0)
(1.45062e-10 4.71316e-09 0)
(-2.2328e-06 8.50057e-06 0)
(2.78147e-07 7.06762e-08 0)
(2.37012e-06 0.000128352 0)
(1.42271e-07 4.65552e-07 0)
(-2.44956e-09 2.3496e-08 0)
(-1.72775e-06 3.54263e-05 0)
(-6.50495e-10 9.29908e-09 0)
(-9.40908e-12 5.91287e-11 0)
(1.44787e-06 1.07131e-05 0)
(3.29312e-06 1.20604e-05 0)
(1.7138e-07 1.0957e-09 0)
(1.47233e-06 9.25828e-06 0)
(-2.9643e-06 1.25574e-05 0)
(4.74142e-06 2.03346e-05 0)
(-3.02326e-07 3.87359e-07 0)
(-2.86132e-06 1.21653e-05 0)
(2.86346e-12 1.68318e-10 0)
(1.92177e-06 3.58691e-05 0)
(-4.1304e-07 9.18101e-06 0)
(-3.83843e-06 1.21419e-05 0)
(3.27062e-07 5.4454e-07 0)
(1.77878e-06 1.07017e-05 0)
(-4.35023e-08 1.77732e-06 0)
(7.15593e-11 1.75318e-09 0)
(-4.19692e-06 3.20449e-05 0)
(-1.10934e-06 2.86625e-06 0)
(1.06077e-06 2.12569e-06 0)
(2.7455e-07 1.23963e-06 0)
(3.38237e-06 9.92314e-06 0)
(4.82893e-06 1.98601e-05 0)
(-2.05439e-06 1.01913e-05 0)
(5.32318e-06 1.99381e-05 0)
(-8.76454e-09 4.92458e-08 0)
(-1.01577e-06 5.60584e-06 0)
(2.26169e-06 1.5275e-05 0)
(-5.23042e-11 3.17806e-10 0)
(-6.51004e-07 6.00022e-05 0)
(-2.70033e-08 3.84178e-08 0)
(5.2248e-06 3.94599e-05 0)
(3.27988e-06 1.34197e-05 0)
(3.65247e-07 9.35168e-06 0)
(7.88513e-12 1.73787e-10 0)
(-3.13311e-07 1.39202e-05 0)
(-2.01214e-06 1.97472e-05 0)
(4.046e-06 2.48086e-05 0)
(-2.99734e-08 6.31445e-08 0)
(-1.94639e-06 4.27274e-06 0)
(-1.72938e-07 1.23323e-07 0)
(-2.97883e-06 3.30178e-05 0)
(-5.62041e-08 -6.90854e-09 0)
(-8.5831e-08 3.13855e-06 0)
(-1.98223e-06 2.25878e-05 0)
(-3.53982e-10 1.11332e-08 0)
(-5.11851e-07 3.55768e-05 0)
(-3.32498e-06 2.01587e-05 0)
(-5.90906e-07 7.50209e-07 0)
(-1.42309e-12 1.24003e-11 0)
(-1.32197e-06 3.15882e-06 0)
(-3.47612e-06 1.50081e-05 0)
(-2.9354e-07 3.96571e-07 0)
(7.48248e-10 1.53808e-08 0)
(-6.49741e-07 1.39083e-06 0)
(9.84171e-07 7.97952e-07 0)
(-7.92209e-06 5.73641e-05 0)
(8.66239e-06 5.73649e-05 0)
(1.64321e-06 8.62524e-06 0)
(1.0378e-06 7.05539e-06 0)
(5.25595e-07 4.18301e-06 0)
(5.90924e-07 4.45028e-06 0)