/*--------------------------------*- C++ -*----------------------------------*\
| =========                 |                                                 |
| \\      /  F ield         | OpenFOAM: The Open Source CFD Toolbox           |
|  \\    /   O peration     | Version:  v3.0+                                 |
|   \\  /    A nd           | Web:      www.OpenFOAM.com                      |
|    \\/     M anipulation  |                                                 |
\*---------------------------------------------------------------------------*/
FoamFile
{
    version     2.0;
    format      ascii;
    class       volSymmTensorField;
    location    "1000";
    object      sigma;
}
// * * * * * * * * * * * * * * * * * * * * * * * * * * * * * * * * * * * * * //

dimensions      [1 -1 -2 0 0 0 0];

internalField   nonuniform List<symmTensor> 
24076
(
(-2.81733e+07 742918 -1.83966e-12 262513 5.78618e-14 -6.92523e+06)
(-2577.91 -35567.2 1.69052e-15 408691 -2.94596e-15 100765)
(-74.3681 -763.132 -2.34569e-17 6014.43 6.03761e-17 1473.85)
(137.59 -574.768 -6.86946e-18 6212.11 4.74326e-17 1575.49)
(-4.04427e+06 1.29137e+06 9.87922e-13 2.29051e+06 -3.65666e-13 -435145)
(-1028.44 -27719.1 4.49117e-16 476182 1.75263e-14 117895)
(3388.07 -41212 -2.67441e-18 423877 -5.55983e-15 106013)
(-3.00574e+07 397927 -2.33976e-12 164481 5.99067e-13 -7.41704e+06)
(102.18 -375.315 -4.91157e-19 453.584 1.9768e-17 137.896)
(-2.6002e+07 -791259 1.96578e-12 412.887 -4.6112e-12 -6.45152e+06)
(2.04027e+07 -3.28542e+06 -4.04713e-13 4.67382e+06 7.72419e-13 6.222e+06)
(-2.52785e+07 -766460 -7.83126e-13 -25586.1 2.32439e-12 -6.27846e+06)
(-1.23316e+07 3.25478e+06 -7.77081e-13 880400 -7.35505e-13 -2.84127e+06)
(-2.51455e+06 1.48064e+06 -1.05577e-12 2.22921e+06 -2.69519e-13 -70798.7)
(-3.11946e+07 -596294 3.8656e-13 -175958 -3.39695e-12 -7.78368e+06)
(-2.27679e+06 -1.13065e+06 -2.20326e-12 -99192.1 -5.56673e-12 -589528)
(1.66608e+07 -741074 3.01281e-12 40685.7 -1.24869e-11 4.14397e+06)
(-1.68782e+07 -861887 -3.76297e-12 -5657.93 9.9667e-12 -4.18922e+06)
(-36528.3 -1.52546e+06 -4.05428e-12 152784 2.29208e-12 28845.4)
(-3.00787e+06 -1.69902e+06 -7.31733e-12 -72500.4 6.65417e-12 -764302)
(-3.07557e+07 -167797 1.99459e-13 -175938 -1.03273e-12 -7.67477e+06)
(1.77628e+07 -1.8314e+06 4.90508e-13 2.47977e+06 -1.27301e-12 5.0226e+06)
(-2268.39 -27527.7 7.03381e-16 604444 -4.09862e-17 149412)
(2.07102e+07 -3.00701e+06 7.19725e-13 4.52039e+06 -1.6298e-13 6.26023e+06)
(819757 2.50213e+06 1.20683e-13 1.52145e+06 -1.2994e-13 580901)
(1.27719e+06 -1.11795e+06 -3.38696e-12 111768 2.07895e-12 344629)
(891822 -1.46289e+06 -1.22583e-14 2.32835e+06 7.68867e-15 798991)
(2709.19 -33704.8 -8.48126e-16 478129 4.33414e-15 119306)
(2.2954e+06 -1.50408e+06 -4.06406e-12 -123958 -3.58343e-13 538780)
(1.84153e+06 3.0073e+06 -2.36554e-12 1.57286e+06 -7.36627e-13 847179)
(4.93838e+06 -1.30292e+06 1.64751e-12 -137345 2.93574e-12 1.19123e+06)
(5481.66 -28843.4 -4.86026e-16 111914 -1.49981e-15 29128.2)
(-1.11418e+07 -1.15285e+06 6.50801e-12 44383.4 8.30918e-13 -2.7535e+06)
(-8.97046e+06 -459216 9.79705e-13 1.19221e+06 -2.78776e-12 -1.92994e+06)
(-1.29723e+07 -1.49359e+06 5.48783e-12 -63817.1 -6.56811e-13 -3.23453e+06)
(-2.2255e+07 -1.20036e+06 3.20757e-12 -27855.7 1.15667e-12 -5.52882e+06)
(-1.20579e+07 3.007e+06 -1.54319e-12 649690 -5.2489e-13 -2.83062e+06)
(1.7158e+07 -272642 3.28352e-12 111127 -7.17097e-12 4.28482e+06)
(-1.7245e+07 -318314 -6.95311e-13 -87074.5 1.50688e-11 -4.30043e+06)
(-3.09904e+07 -16677.1 -9.08907e-13 -115774 -1.074e-13 -7.71808e+06)
(9.5769e+06 -3.52247e+06 2.47962e-13 1.45021e+06 -2.69791e-13 2.73605e+06)
(3.32745e+06 -1.38976e+06 -5.60117e-12 145597 -1.15878e-12 861733)
(-9.1424e+06 2.34641e+06 -3.28319e-12 1.29298e+06 -1.25613e-12 -1.9476e+06)
(-7.71833e+06 -576210 -1.5487e-12 1.10786e+06 -8.55475e-13 -1.64019e+06)
(-2.08542e+07 -724750 1.69221e-12 -19099.6 1.43669e-12 -5.17909e+06)
(3.02975e+07 -745392 -2.81144e-12 28202 3.55827e-13 7.52443e+06)
(24672.1 -168982 1.29951e-15 518659 3.59932e-15 134812)
(-7.47517e+06 -1.44734e+06 1.86881e-14 -20758.9 1.621e-12 -1.85989e+06)
(1.19521e+06 -1.61414e+06 3.27621e-14 2.40381e+06 -1.97273e-14 892991)
(2.23991e+07 -1.22829e+06 5.00881e-12 -22570.9 1.54488e-12 5.55207e+06)
(246.753 -973.718 -1.60478e-16 16370.1 -4.2718e-16 4122.98)
(232519 -703637 3.48477e-14 2.31586e+06 -5.33639e-14 632304)
(453.37 -1151.45 6.13093e-18 690.051 -7.78504e-17 283.706)
(2567.59 -45555.6 2.25123e-15 519746 5.3773e-15 129597)
(74.6521 -364.847 -1.17269e-18 435.705 -2.06818e-17 126.63)
(-1.27847e+07 -1.15392e+06 0 -84672.1 0 -3.19315e+06)
(-4.49306e+06 -85948.5 3.50205e-13 1.56226e+06 4.45216e-13 -727191)
(-3.16814e+07 -274261 2.51324e-12 33059.9 2.14235e-12 -7.8526e+06)
(-183663 -1.94891e+06 6.85977e-12 32206.2 2.99194e-12 -37579.4)
(-1.4946e+07 -1.4479e+06 2.03027e-12 -93294.1 5.17884e-12 -3.73155e+06)
(3.03709e+07 -161675 8.55857e-12 -56059.8 -1.17641e-11 7.52172e+06)
(28536.8 -162125 6.27986e-16 226027 7.60594e-15 63162.6)
(3.60694e+07 -205951 -1.22341e-13 -17792.8 4.49681e-12 8.94512e+06)
(2.09943e+07 -686161 -1.19319e-13 49207.4 -2.89372e-12 5.22132e+06)
(1.531e+07 -1.42723e+06 -1.4941e-12 4.12798e+06 -1.23694e-12 4.82295e+06)
(-2.99669e+07 -509857 3.54388e-12 110378 4.14888e-12 -7.40801e+06)
(-8.22785e+06 256337 -2.10143e-12 1.5798e+06 -1.14839e-12 -1.64952e+06)
(1.35108e+07 -1.15179e+06 -1.01142e-13 4.1857e+06 6.10007e-13 4.39086e+06)
(2861.01 -58706.6 1.26208e-15 316026 -6.42943e-16 79122.4)
(-7.65467e+06 64415.3 1.05558e-12 1.45472e+06 -2.12634e-13 -1.53833e+06)
(-219647 -1.99867e+06 -1.45383e-11 33036.3 -4.25716e-14 -46301.9)
(25033.1 -93130.2 -6.24535e-15 873873 1.13295e-14 223037)
(2.2917e+07 -882637 -9.96311e-13 -115387 -4.92701e-13 5.65755e+06)
(16836 -48167.9 -4.36447e-17 55912.5 -7.02933e-15 18050.4)
(8.88089e+06 -3.49556e+06 4.19256e-13 1.50926e+06 -4.2704e-13 2.57801e+06)
(-5.39525e+06 -1.19694e+06 -9.24809e-12 154156 3.76456e-12 -1.30042e+06)
(1.85118e+07 -2.43353e+06 1.19194e-12 2.7119e+06 -8.80753e-13 5.26604e+06)
(2.21142e+07 -1.07081e+06 -1.48042e-11 -44596.3 8.63264e-12 5.47592e+06)
(-1.9614e+07 -443.64 0 481154 0 -4.74725e+06)
(3.6562e+07 -362398 -1.12281e-12 -48362.3 3.03847e-12 9.05977e+06)
(9790.46 -157064 -8.13734e-16 488055 -1.26834e-14 123526)
(-7.17028e+06 -1.30131e+06 -2.77225e-12 -35797.6 -4.73403e-13 -1.78797e+06)
(9.9225e+06 -1.60728e+06 -1.87037e-12 1.34272e+06 9.54265e-13 2.79513e+06)
(5.579e+06 1.11147e+06 0 2.85094e+06 0 2.09164e+06)
(3.5047e+06 -3.5713e+06 4.29457e-14 3.67877e+06 -3.63406e-15 1.78236e+06)
(556.781 -1152.3 4.15098e-18 782.842 -4.02741e-17 332.388)
(-5.64977e+06 -1.3633e+06 3.01179e-12 36591 -3.85308e-13 -1.39274e+06)
(1.83441e+07 -1.28116e+06 -5.22245e-12 -112957 6.6757e-12 4.52353e+06)
(-16440.5 -1.90873e+06 -8.22623e-12 65694.2 5.61802e-12 12220.9)
(-3.69144e+06 -1.54029e+06 1.63313e-11 -37630.3 -4.00901e-12 -925259)
(-6.81915e+06 -1.86889e+06 3.31309e-12 85716.1 -2.79562e-12 -1.6707e+06)
(-164877 -2.00845e+06 -6.47618e-12 128882 1.01241e-11 -8931.11)
(1.75274e+07 -1.30026e+06 1.55514e-12 419687 -1.51287e-12 4.45304e+06)
(-4.89561e+06 -544734 2.71847e-12 1.55967e+06 1.81819e-12 -827714)
(5.22682e+06 1.14327e+06 9.72561e-13 3.14551e+06 9.36746e-13 2.07735e+06)
(1.66781e+07 -5.24148e+06 -4.04012e-13 4.47311e+06 5.70789e-13 5.24803e+06)
(2.69773e+06 -2.11438e+06 1.42258e-12 -111282 -7.77382e-12 641749)
(-2.43765e+06 -1.69014e+06 0 33886.8 0 -596422)
(2605.94 -31145 5.82278e-17 101852 1.10844e-15 25918.1)
(-8.12853e+06 1.28339e+06 8.70596e-13 1.77783e+06 1.1975e-12 -1.57574e+06)
(9.38801e+06 -1.44826e+06 3.92439e-12 1.26961e+06 1.40501e-12 2.64437e+06)
(1.576e+07 -1.96299e+06 -8.86356e-13 3.94463e+06 1.79345e-13 4.88912e+06)
(3.86638e+06 -1.67637e+06 4.81632e-12 53725.6 -8.08755e-12 972657)
(-2.0043e+07 -57499.1 8.15729e-13 641268 1.06187e-12 -4.81396e+06)
(5.63487e+06 -1.70026e+06 1.72893e-12 -14091.9 4.66021e-12 1.39463e+06)
(9.13533e+06 -5.23854e+06 1.76711e-13 4.10964e+06 -2.93481e-13 3.28634e+06)
(4345.16 -14608.1 6.9689e-18 22853.9 -1.5477e-15 6748.65)
(-1405.97 -34698.1 5.5259e-16 729833 -4.43499e-15 180738)
(2.70715e+07 -1.87836e+06 -2.76775e-12 680494 -6.22385e-13 6.88584e+06)
(1.02375e+07 -1.7605e+06 -6.27088e-12 44766.5 7.24306e-13 2.55124e+06)
(2.37022e+06 -1.44641e+06 4.54463e-12 -27570.6 -1.10982e-12 581258)
(-5.29246e+06 -1.3746e+06 5.08612e-12 170648 -6.22688e-12 -1.27083e+06)
(65.1185 -501.54 -1.00646e-17 1360.53 8.95949e-18 353.731)
(44299.9 -172861 2.75191e-16 250681 3.93944e-15 73190.7)
(-4.68259e+06 -1.13502e+06 -4.08797e-12 -33574.7 1.25067e-11 -1.17018e+06)
(-126.236 -1471.94 -1.6442e-16 15125.1 -6.51543e-16 3721.53)
(1.82458e+07 -2.53621e+06 6.98325e-13 4.53627e+06 -3.72513e-13 5.65271e+06)
(8.70552e+06 -1.17102e+06 -2.59072e-12 -121879 -3.57997e-13 2.12978e+06)
(-2.85718e+06 -1.39001e+06 -1.47314e-12 -56019.7 -1.77175e-11 -722825)
(1.14824e+07 -1.50262e+06 2.82011e-12 -53852 2.70016e-12 2.83566e+06)
(1.90029e+06 -1.62623e+06 9.54649e-13 -139961 2.58484e-12 436773)
(1.91803e+07 -741491 1.927e-12 3298.05 8.57493e-13 4.75985e+06)
(7.89489e+06 -5.66436e+06 -1.68696e-13 5.34351e+06 2.43292e-13 3.28472e+06)
(-2.96861e+07 639346 -8.76981e-13 322894 -4.79131e-13 -7.2856e+06)
(-1.96076e+07 -1.22892e+06 0 88393.6 0 -4.8431e+06)
(1.75192e+07 -834561 1.59572e-12 -216851 2.46785e-14 4.29308e+06)
(2.70064e+07 -1.20573e+06 7.34655e-13 538408 8.90879e-13 6.83443e+06)
(-1.60904e+07 -899135 -1.60558e-12 35381.5 1.54619e-12 -3.98357e+06)
(6.00503e+06 -1.24361e+06 1.75099e-13 -8651.57 6.52627e-14 1.48782e+06)
(388.709 -7248.35 3.10254e-17 75353.1 -6.06638e-16 18793.1)
(1.89583e+07 -1.28321e+06 -2.40636e-12 -57942.2 -3.67011e-13 4.68957e+06)
(1.11562e+07 -1.19336e+06 3.37719e-12 104938 9.57155e-12 2.79411e+06)
(8.43649e+06 -1.60195e+06 2.29276e-12 -52053.8 -1.61246e-11 2.08035e+06)
(6028.61 -41300.9 1.54643e-15 626711 -1.09619e-14 156996)
(1.80374e+07 -1.28373e+06 -1.68891e-12 366507 1.99941e-12 4.56639e+06)
(366285 -867744 -5.62121e-14 3.10567e+06 6.27692e-14 861464)
(-1.21307e+06 -1.07398e+06 4.25934e-12 471748 -5.15639e-13 -183936)
(-9.26986e+06 2.78875e+06 -2.07576e-12 1.45044e+06 -1.64088e-12 -1.94016e+06)
(-1.21591e+06 -1.28137e+06 -1.24943e-11 -21298.1 4.80864e-13 -306976)
(-2.79401e+06 -1.02579e+06 -2.6534e-13 425485 -1.10739e-12 -587678)
(-4.36333e+06 -1.18752e+06 9.13815e-13 465563 -1.67155e-12 -967116)
(137.732 -557.564 4.61707e-18 1368.3 4.07456e-17 373.678)
(1.63546e+06 -1.40001e+06 1.6382e-14 745366 -4.93067e-14 590731)
(1.98099e+06 -1.72842e+06 -9.84828e-12 14657.8 -4.58217e-12 495161)
(-8.83948e+06 -1.18279e+06 -1.2913e-11 -108907 1.93327e-12 -2.22028e+06)
(-4.66859e+06 -1.54909e+06 -8.44151e-13 45341.3 -1.6585e-13 -1.14712e+06)
(7.82625e+06 -1.35103e+06 4.41475e-13 142450 -3.04546e-12 1.9772e+06)
(-1.08061e+07 -1.6021e+06 -1.25945e-11 -120801 -1.1275e-12 -2.71119e+06)
(-207097 -1.25394e+06 -3.16046e-12 379476 -1.97945e-12 42770.6)
(767.853 -4427.89 2.43041e-16 36423.2 7.13758e-16 9227.85)
(2.46799e+07 -914242 -2.04753e-12 82997.2 -6.80069e-13 6.14417e+06)
(115.019 -269.366 2.27718e-18 72.7297 -1.78051e-17 46.5843)
(-1.6314e+07 2.73612e+06 -3.1594e-13 56150.1 -7.71545e-14 -4.0339e+06)
(-8.21604e+06 1.64808e+06 1.36781e-12 1.60165e+06 9.6814e-13 -1.64117e+06)
(-1.96763e+07 -751194 9.66722e-13 164740 -8.70737e-13 -4.84122e+06)
(-2.76211e+06 -1.79835e+06 1.19635e-11 212991 -9.88386e-12 -632488)
(-2.9558e+07 466481 1.24663e-13 -74353.3 1.96132e-13 -7.35239e+06)
(5.50273e+06 -1.36165e+06 -2.81555e-12 36075.8 1.29665e-13 1.37429e+06)
(-1.41633e+06 -1.40394e+06 3.20901e-12 636073 -3.77611e-12 -193598)
(725.828 -3287.04 3.8857e-17 8055.42 3.26178e-16 2178.81)
(898251 2.10325e+06 -3.75783e-14 -1.40445e+06 7.17424e-14 -125599)
(92.9453 -361.866 0 342.466 0 108.034)
(-3.23895e+07 -195498 3.19301e-12 -26443.2 -4.84018e-14 -8.04305e+06)
(3.4716e+07 -2.01018e+06 3.4081e-13 839090 -6.25236e-13 8.82193e+06)
(317413 -1.83842e+06 2.20139e-12 -117927 -4.71849e-12 49496.7)
(-1.25287e+07 -744166 -1.2714e-11 55954.3 -1.04876e-11 -3.09475e+06)
(1.24896e+07 -770772 -3.17469e-12 -67928.6 1.12194e-11 3.08207e+06)
(1.35821e+07 -1.02728e+06 -5.08282e-14 57901.5 2.55134e-13 3.38435e+06)
(1.9159e+07 -2.4466e+06 -1.81098e-12 3.82247e+06 1.00149e-12 5.70218e+06)
(7.86439e+06 -2.24748e+06 -6.60206e-14 -165354 4.33636e-14 1.91029e+06)
(-1.21936e+07 -725358 -2.84763e-12 576148 -8.88944e-13 -2.88252e+06)
(1667.7 -12892.7 -8.8128e-15 672183 1.86461e-14 167196)
(3.03597e+06 -1.19995e+06 -1.34287e-12 69443.7 -1.08979e-12 770517)
(-8.63063e+06 -1.15361e+06 1.18647e-12 160250 -2.47143e-12 -2.10167e+06)
(2.00902e+07 -812894 -1.42429e-12 -7588.2 -2.11255e-12 4.9829e+06)
(-1.96812e+07 -829902 2.51756e-12 66348.6 -3.82968e-12 -4.86685e+06)
(1.92976e+07 -1.20866e+06 2.32308e-12 -47597.8 -4.72551e-12 4.77631e+06)
(-1.90158e+07 -1.22414e+06 2.85488e-12 8070.56 -1.95429e-12 -4.7162e+06)
(-2.88653e+07 -275488 -4.63494e-13 -33049.8 9.90921e-12 -7.17028e+06)
(2.71891e+07 -935903 -3.85512e-12 -31504.7 2.83999e-12 6.73835e+06)
(3.49882e+07 -370699 3.14301e-12 -6413.89 -2.71132e-13 8.6797e+06)
(50647.7 -127429 -3.13316e-16 68640.6 3.835e-15 29597.8)
(-1.34177e+07 163629 2.0041e-12 966092 -3.98624e-13 -3.0895e+06)
(4.19557e+06 505423 -7.80296e-14 -1.39848e+06 6.43185e-14 694013)
(4.40131e+06 551389 1.34886e-13 -1.63274e+06 -8.23606e-14 686939)
(7.2051e+06 -486294 -6.36411e-13 3.33555e+06 6.7309e-13 2.61535e+06)
(1.9365e+07 -1.9823e+06 2.0643e-13 3.65339e+06 -1.12867e-12 5.71134e+06)
(3.16385e+06 -5.84791e+06 0 1.09878e+07 0 3.51131e+06)
(2.53513e+07 -4.41513e+06 -1.57761e-13 4.53609e+06 9.65402e-13 7.41566e+06)
(-8.8251e+06 3.98342e+06 -2.31162e-13 -96829 2.28975e-13 -2.21371e+06)
(-1163.89 -5709.32 -5.15797e-16 132312 5.10212e-16 32540.4)
(1.78391e+07 -1.31574e+06 -4.83498e-13 -22274.1 -5.23014e-13 4.42071e+06)
(7.47293e+06 -1.57702e+06 -5.70892e-12 73705.4 -4.10629e-12 1.87247e+06)
(1.63944e+07 -925966 -8.11973e-12 -98138.6 -3.26183e-12 4.04343e+06)
(-1.0181e+07 -1.42586e+06 1.37636e-12 6029.2 8.44894e-12 -2.52462e+06)
(-2.91525e+07 -352243 -1.99879e-12 88813.8 -7.35982e-13 -7.2113e+06)
(481.881 -36415.1 -1.03644e-15 496907 7.63744e-15 123412)
(-1.73153e+07 -1.26932e+06 1.08286e-12 49491.6 -7.78187e-12 -4.284e+06)
(1.74927e+07 -1.25712e+06 -6.66903e-12 -43581.7 4.35228e-12 4.32949e+06)
(2.93833e+07 -310548 2.00448e-12 -76312.4 -7.37915e-13 7.27166e+06)
(-1.32138e+07 -197468 -9.93628e-13 947298 -9.15048e-13 -3.04357e+06)
(2.4675e+06 -5.01562e+06 8.68865e-14 1.03917e+07 -1.30738e-13 3.19062e+06)
(1.02436e+07 -900123 3.16598e-12 -33635 2.86767e-12 2.53331e+06)
(-1.02986e+07 -925300 0 46742.6 0 -2.54369e+06)
(-934694 -1.68155e+06 -6.27984e-12 -6440.5 -3.32585e-13 -233515)
(-6.06306e+06 1.3922e+06 -1.26025e-12 1.75894e+06 -2.08961e-13 -1.06794e+06)
(2.77934e+07 -569127 -3.2185e-12 42092.2 2.87678e-12 6.90655e+06)
(1.60056e+07 -1.36709e+06 2.33091e-12 1664.61 -8.14711e-12 3.97172e+06)
(-2.6004e+07 1.27657e+06 -1.60365e-12 55085.4 -6.89459e-13 -6.43845e+06)
(5.0181e+06 -1.49198e+06 -4.44529e-13 61739.7 2.75672e-12 1.26041e+06)
(69042.7 -288710 0 673072 0 184134)
(-1.65667e+06 -1.50792e+06 -1.82322e-12 24779.7 1.41956e-12 -404904)
(55197.4 -229368 -2.22504e-16 1.39589e+06 -2.37151e-14 360044)
(2.39641e+07 -813139 -1.32288e-12 -127692 2.7088e-12 5.91429e+06)
(120.964 -402.419 0 367.155 0 121.112)
(2.68332e+06 -1.24307e+06 1.08909e-12 79785 -3.60625e-12 685582)
(278394 -874733 2.87591e-14 2.93926e+06 -9.12717e-14 798365)
(3.07936e+07 -329127 1.21911e-12 -37676.1 1.07568e-12 7.63118e+06)
(2.3755e+06 -449798 -7.41495e-12 53494.2 1.19419e-14 602683)
(-2.52907e+06 -456229 7.47931e-12 -33101.2 -1.83812e-14 -635726)
(2.4862e+06 -1.66296e+06 5.8764e-12 112798 9.94869e-13 644864)
(-3.38478e+07 -162102 4.35747e-12 -112486 1.03742e-12 -8.42624e+06)
(-3.52631e+07 -55057.6 -5.68814e-14 -225977 -2.0496e-13 -8.80555e+06)
(1.55521e+07 -1.80751e+06 7.83217e-13 1.85053e+06 7.43526e-13 4.31794e+06)
(-2.91035e+07 -413874 -1.53776e-12 113686 1.22878e-13 -7.19295e+06)
(4490.39 -9658.07 -3.63931e-17 4141.25 2.87279e-16 2141.68)
(963.49 -4229.52 -1.60662e-17 7111.58 -2.02108e-16 2003.59)
(1.88525e+07 -904207 -3.66e-12 95547.4 6.76182e-12 4.7014e+06)
(4222.7 -9326.56 -2.4057e-17 5877.79 3.38139e-16 2506.14)
(-4.19764e+06 -1.38206e+06 1.24174e-11 -51070.1 3.1442e-12 -1.05419e+06)
(659.292 -3595.89 -5.67226e-18 7082.84 -1.7971e-16 1920.98)
(1.73551e+07 -871275 4.04068e-12 -10396.5 -3.63121e-12 4.30356e+06)
(1950.05 -7541.49 2.6043e-17 13711.5 1.07277e-16 3885.94)
(57477.7 -158931 4.63888e-16 70795.9 -5.37126e-15 31827.3)
(-3.76196e+06 -1.11952e+06 -1.67661e-12 1.06197e+06 3.52796e-13 -669923)
(-7.38737e+06 -1.39282e+06 6.35968e-12 -163205 -3.81294e-12 -1.87345e+06)
(1.20351e+07 -2.50622e+06 1.54874e-13 2.04237e+06 5.85817e-14 3.49291e+06)
(-8.27412e+06 3.52011e+06 -6.64916e-13 -328559 -1.9322e-13 -2.1345e+06)
(1.17534e+07 -1.8164e+06 -3.427e-12 174136 -2.84696e-12 2.95946e+06)
(2.81747e+07 -819675 -2.5175e-12 66372.6 7.3723e-12 7.00718e+06)
(-2.78281e+07 -882729 3.86082e-12 647.986 -7.88695e-12 -6.90455e+06)
(4.06331e+06 -3.76082e+06 1.35713e-13 3.76662e+06 2.55403e-14 1.94276e+06)
(1.20792e+07 -1.6197e+06 6.64193e-12 -60399.7 6.22682e-12 2.98211e+06)
(1.22811e+07 -1.0553e+06 7.84158e-12 82148.3 -1.21865e-11 3.06758e+06)
(-2.29019e+07 -57815.6 4.15798e-13 -63293.6 6.59351e-12 -5.69813e+06)
(2.29143e+07 -8070.66 1.08128e-12 -3096.72 -6.13387e-12 5.68473e+06)
(1.57879e+07 -1.37135e+06 0 50871.9 0 3.92993e+06)
(-3.066e+07 -831259 1.07012e-12 202675 1.43365e-12 -7.55709e+06)
(3.08628e+07 -784825 -2.4397e-12 -191738 3.86865e-13 7.61011e+06)
(1.91591e+07 -2.86509e+06 3.33434e-13 4.67884e+06 2.25667e-13 5.91468e+06)
(1.23529e+07 -736893 -6.72479e-12 -56037 -1.24985e-12 3.05111e+06)
(-4.39475e+06 -1.73815e+06 8.56599e-12 -77866.5 1.84151e-11 -1.10975e+06)
(-473435 2.20112e+06 3.10505e-13 -1.42862e+06 -4.03827e-14 -471938)
(-2.95736e+07 -436353 5.79862e-13 103781 1.25604e-12 -7.31206e+06)
(-2.24019e+07 -352868 0 -76535.6 0 -5.57736e+06)
(2.26704e+07 -348753 -9.92923e-13 110237 -8.37832e-13 5.65235e+06)
(-923.527 -34288.4 5.27965e-16 266995 6.79636e-15 66017.7)
(2812.12 -30648.2 7.92702e-16 89787.7 1.22398e-15 22975.9)
(-18311.8 -117885 -2.30013e-14 1.34343e+06 -3.55777e-14 328790)
(-3.69709e+06 -1.29111e+06 -5.46555e-12 1677.52 1.42145e-12 -916907)
(-7.9776e+06 2.17824e+06 -2.67294e-12 1.69695e+06 -1.01194e-12 -1.55836e+06)
(-3.63248e+07 -51600.6 1.43976e-12 -251306 1.36261e-13 -9.07529e+06)
(-2.01548e+07 -683199 0 -54352 0 -5.01431e+06)
(-3.69782 -2.06203 4.81431e-19 69.0474 2.16776e-18 16.2145)
(1.81376e+07 -1.67305e+06 3.28056e-14 583618 2.13376e-12 4.64512e+06)
(-684023 3.09004e+06 9.30973e-13 1.55207e+06 -2.27732e-13 215380)
(2.82119e+07 -793578 2.13957e-12 42469.3 3.12052e-12 7.01047e+06)
(-2.6356e+06 -1.60603e+06 6.7845e-12 -7372.66 7.90751e-12 -655775)
(1.6357e+07 -1.42988e+06 3.04357e-12 -138280 -3.5354e-12 4.0242e+06)
(102.553 -213.036 1.03999e-18 4351.76 7.10731e-17 1105.2)
(9.6856e+06 -1.22681e+06 -1.08074e-11 -410506 -3.84398e-12 2.30134e+06)
(-9.91649e+06 -1.19334e+06 1.96254e-12 364444 1.87377e-11 -2.37006e+06)
(-2.86181e+07 59755 6.41715e-13 86179.1 2.27829e-12 -7.07935e+06)
(-2.50015e+06 -1.43737e+06 -1.58597e-12 39785.3 2.53733e-12 -610467)
(1.65461e+06 -2.16323e+06 6.11437e-14 3.09032e+06 -2.7683e-14 1.17731e+06)
(1.44851e+07 -1.61314e+06 3.21526e-12 -67778.4 -7.99262e-12 3.57723e+06)
(1.78859e+07 -1.27816e+06 3.16538e-12 -148120 1.00087e-11 4.40111e+06)
(2328.14 -30348.7 -1.04683e-14 682840 2.50424e-14 170004)
(2.46387e+07 -742893 -3.8222e-12 71506 4.44165e-12 6.13109e+06)
(-3.17781e+07 -185380 0 -273663 0 -7.9527e+06)
(457.514 -3086.1 0 26489.2 0 6686.03)
(-75369.1 -1.476e+06 -9.47952e-12 97996.4 1.73283e-11 5614.3)
(125694 -1.35816e+06 -5.17952e-12 -81757.5 3.79008e-12 10901.5)
(40294.7 -322898 8.41381e-14 2.17689e+06 -8.07317e-14 550128)
(346903 -1.3971e+06 -2.15537e-12 918428 1.02143e-12 313954)
(1.24318e+07 -2.50951e+06 4.33931e-14 1.99824e+06 1.80354e-13 3.58038e+06)
(53672.4 -139368 -1.81094e-16 134049 6.89229e-15 46577.4)
(-2.22029e+07 -647591 1.40896e-12 30252.4 -7.39538e-13 -5.50147e+06)
(3.70981e+07 -1.01901e+07 2.45743e-13 4.0526e+06 -2.00159e-13 1.02103e+07)
(-1.34654e+07 280485 0 1.0316e+06 0 -3.08507e+06)
(3.86565e+06 -1.40588e+06 1.77944e-12 102482 9.26721e-12 984575)
(-2.70319e+07 337231 -2.87423e-12 199122 -2.15194e-12 -6.65776e+06)
(-9.20191e+06 -1.18051e+06 1.23796e-12 71877.6 -2.5998e-12 -2.26535e+06)
(-6.47306e+06 788520 1.10408e-12 1.77358e+06 1.82424e-12 -1.16604e+06)
(-1.18812e+07 -404912 -7.71908e-12 -333185 -2.37979e-13 -3.03062e+06)
(1.18216e+07 -406533 -3.41384e-12 343015 -1.58865e-12 3.01828e+06)
(1.90507e+07 -1.09834e+06 1.78535e-12 -19201.8 -3.05646e-12 4.72209e+06)
(273.422 -1442.39 2.44489e-17 6682.76 1.89434e-18 1725.97)
(8334 -22906.3 9.20036e-18 29156.6 9.99555e-16 9302.18)
(-1.22447e+07 -1.58372e+06 3.45622e-12 -31401.7 -1.74231e-12 -3.04595e+06)
(1.50926e+07 -1.33571e+06 3.04174e-12 60021.1 4.68198e-13 3.75968e+06)
(-1.49956e+07 -1.51428e+06 -1.13556e-12 -88835.9 -8.22735e-12 -3.74275e+06)
(1.20315e+07 -1.16746e+06 -3.01095e-12 163994 -1.44671e-11 3.02596e+06)
(-1.18507e+07 -1.10043e+06 7.98614e-12 -162726 8.2913e-12 -2.98078e+06)
(1.14658e+07 -2.57835e+06 -3.64542e-13 1.99301e+06 1.37045e-13 3.33939e+06)
(99.3404 -459.353 -2.97161e-19 952.794 -2.11721e-17 261.056)
(2.34572e+06 -1.67326e+06 -6.03117e-12 30160.6 1.36113e-11 589503)
(1.95626e+07 -1.1441e+06 -1.17648e-12 15391.3 8.23983e-12 4.8577e+06)
(8.50484e+06 -1.242e+06 5.14269e-12 1.54915e+06 -1.91949e-12 2.4946e+06)
(4.05623e+06 -1.40338e+06 1.04272e-11 -17666.5 -8.64143e-13 1.00205e+06)
(7.67832e+06 -1.21208e+06 2.12964e-12 -105326 7.59797e-12 1.87901e+06)
(-380654 -1.2522e+06 9.69926e-12 -23666.4 -7.23802e-13 -100320)
(-8.24316 -128.335 4.3771e-18 650.785 4.72632e-18 159.428)
(1.8986e+07 -1.18584e+06 -8.23049e-12 -35730.3 -2.54326e-13 4.70195e+06)
(1.35504e+07 -1.16074e+06 -3.94584e-12 -8698.45 -2.3763e-12 3.35996e+06)
(-3.47222e+07 -496301 1.38122e-12 -62319.9 7.32752e-13 -8.63073e+06)
(-1.18851e+07 -1.48776e+06 -2.08453e-12 -5835.3 -2.2461e-13 -2.95039e+06)
(70968 -127177 1.28993e-15 47648.4 -7.81305e-15 29431.1)
(2.71259e+07 -1.21722e+07 6.47297e-13 7.0714e+06 -1.00255e-12 8.48504e+06)
(3.01934e+06 -1.4969e+06 2.52268e-12 -7743.17 2.51931e-12 747237)
(-1.49182e+07 -1.35277e+06 2.9041e-12 -49261.1 -1.85483e-12 -3.71374e+06)
(2.92815e+07 -337011 -1.43321e-12 -29297.9 -5.2516e-13 7.25807e+06)
(1.71952e+07 -865460 -3.26132e-12 3039.78 -1.84413e-12 4.26724e+06)
(44446.5 -150285 -8.77342e-17 193132 -1.13565e-14 58947.9)
(-1422.65 -47296.2 1.43778e-15 517390 2.57203e-15 128022)
(-1.83284e+07 -1.33535e+06 1.42331e-12 34696.5 3.2746e-12 -4.53904e+06)
(-1.62214e+07 -422248 -1.4394e-11 -361862 -2.15057e-12 -4.11464e+06)
(1.61783e+07 -419971 -7.92749e-12 339030 5.75828e-12 4.09829e+06)
(-2.55011e+07 1.83224e+06 -3.75908e-14 125808 -5.0971e-14 -6.29613e+06)
(7.88625e+06 32844.3 9.86488e-13 3.50093e+06 -1.69089e-12 2.82539e+06)
(8.82068e+06 -1.69513e+06 -1.76025e-12 866804 -1.04281e-12 2.40366e+06)
(-1.90504e+07 -633217 -4.67054e-12 -19046.1 2.45984e-12 -4.73153e+06)
(1.91566e+07 -649200 0 -9073.65 0 4.75089e+06)
(-1.89346e+06 -1.98985e+06 -7.95421e-12 4843.23 4.56925e-12 -468603)
(-1.28636e+07 -1.57521e+06 -2.41936e-12 101675 -2.74515e-12 -3.16648e+06)
(-2.45934e+07 -800176 -1.32469e-12 16148.2 -2.23737e-12 -6.09811e+06)
(1.86639e+07 -2.19372e+06 3.08357e-13 4.16047e+06 6.81704e-13 5.6632e+06)
(-588.537 -31321.8 -5.33489e-15 534925 -1.08811e-14 132580)
(2.55843e+07 -924584 2.68598e-12 50005.5 -3.5911e-12 6.3604e+06)
(-8.4999e+06 3.5804e+06 -5.55712e-13 109636 -9.80793e-14 -2.0818e+06)
(3.72791e+07 -544580 6.97169e-13 184383 8.97101e-14 9.29544e+06)
(1.48461e+06 -1.56537e+06 4.70185e-12 26414.2 3.26637e-12 374915)
(48.2628 -26999.5 -1.54821e-15 248256 -1.55423e-15 61609.2)
(1.19387e+07 -1.34026e+06 1.1196e-11 71722.6 -2.32247e-12 2.98002e+06)
(-125640 -1.80589e+06 -4.29114e-12 7524.17 -2.97375e-12 -29306.9)
(8.58036e+06 -9.4222e+06 -9.17841e-13 1.1169e+07 8.90073e-13 4.90022e+06)
(1.0966e+06 -1.28792e+06 -1.86921e-14 1.67108e+06 2.63632e-14 686719)
(6.56367e+06 -793625 1.14711e-13 2.84424e+06 1.23772e-12 2.33429e+06)
(-3.13575e+06 -1.16584e+06 -7.12843e-12 127504 5.70477e-13 -746406)
(-2.3982e+07 -830635 -1.16657e-12 -21439.7 3.09666e-12 -5.95573e+06)
(1.73473e+07 -2.03864e+06 3.1512e-13 3.67773e+06 6.50665e-13 5.21673e+06)
(1.97632e+06 1.16883e+06 1.36324e-13 2.94877e+06 -2.18882e-13 1.22201e+06)
(1.88259e+07 -992374 -6.08768e-12 -76128.5 4.04617e-12 4.6522e+06)
(-2.34802e+06 -1.46738e+06 9.49489e-13 26993.6 -2.45051e-12 -575893)
(-2.99075e+07 207400 -1.90582e-12 144006 -8.82383e-13 -7.38494e+06)
(-1.08521e+07 -1.20891e+06 5.85222e-12 25220 -1.22269e-11 -2.68637e+06)
(-1.6494e+07 -834259 -2.64162e-12 64790.4 -1.97002e-12 -4.07643e+06)
(-2.4669e+06 -1.39755e+06 1.33838e-12 203661 2.34338e-12 -561555)
(8.32656e+06 -915512 -4.58178e-12 80847.7 -9.62606e-12 2.08605e+06)
(-950000 3.57387e+06 -1.21795e-12 1.01061e+06 6.21796e-15 15039.9)
(-679745 -1.44107e+06 -5.20429e-12 -145469 5.44477e-12 -204752)
(-2.35905e+07 -849682 -1.38461e-12 204442 -9.59496e-13 -5.80256e+06)
(-9.96745e+06 449282 1.18244e-12 1.23144e+06 -5.44873e-13 -2.16758e+06)
(49196.6 -187835 7.68616e-16 309035 1.60006e-14 88884.6)
(3.55422e+07 -294656 0 60709 0 8.83381e+06)
(-1.03335e+07 330277 1.68094e-15 -1.55471e+06 -1.30522e-13 -2.9497e+06)
(6.00226e+06 -1.80944e+06 -2.73792e-12 -90657.4 -1.09394e-12 1.46679e+06)
(-2.15779e+07 -891734 -1.87394e-12 -185674 5.37282e-12 -5.39998e+06)
(-1.86456e+07 -208260 -1.36365e-14 720109 4.52111e-13 -4.44768e+06)
(-2.06378e+06 -1.28287e+06 4.27613e-12 28743.7 4.71114e-12 -504934)
(-3.13007e+07 -186030 -2.22712e-12 110103 -2.02538e-13 -7.73902e+06)
(-4.76396e+06 3.23223e+06 1.06673e-12 1.25856e+06 5.15798e-13 -869759)
(-3.00459e+07 -729004 -2.1526e-12 96482.3 -2.81331e-12 -7.43107e+06)
(340201 -626788 3.24185e-14 1.22724e+06 -3.64514e-14 388915)
(-2.93605e+07 -898351 2.09386e-12 64633.7 1.68965e-12 -7.2689e+06)
(2.95926e+07 -845459 -1.90768e-12 -49042 -1.6955e-12 7.33035e+06)
(2137.93 -12869.9 -9.01778e-17 29941 4.65314e-17 7959.44)
(1.46602e+07 -1.31639e+06 -9.29624e-12 70876.5 -7.74638e-12 3.65509e+06)
(-1.45931e+07 -1.2998e+06 -7.18091e-12 -99506.4 -1.08126e-11 -3.64553e+06)
(262435 -787405 7.36254e-14 2.46467e+06 -5.48152e-14 676649)
(1.01593e+07 -1.2472e+06 -4.12867e-14 1.09287e+06 -2.01098e-13 2.79189e+06)
(5.13398e+06 -1.71621e+06 -6.28923e-13 2085.67 -3.26415e-12 1.27436e+06)
(-1.23459e+07 3.53143e+06 1.21236e-13 220116 -2.28584e-13 -3.00866e+06)
(1.05982e+07 200308 2.60146e-13 3.12134e+06 -8.30908e-13 3.40411e+06)
(1.80095e+07 -1.38929e+06 -3.83051e-13 116074 -6.45995e-12 4.49732e+06)
(2061.61 -26554.1 -1.03223e-15 195705 -2.14415e-15 49069.8)
(1.32281e+07 -948199 -9.42458e-13 91604.4 5.13894e-12 3.30489e+06)
(5164.77 -14948 -9.18769e-16 649006 3.58488e-16 162313)
(149.802 -993.302 2.86297e-17 4695.33 9.84969e-17 1202.18)
(-2.48151e+07 450387 2.45565e-12 507380 1.15984e-12 -6.03123e+06)
(3.2783e+06 1.44121e+06 1.25677e-12 2.91131e+06 -4.51329e-13 1.53577e+06)
(1.08708e+07 -406882 9.32323e-12 130116 -8.86216e-13 2.72955e+06)
(-1.09882e+07 -408265 -1.79174e-12 -132471 -1.03724e-12 -2.75926e+06)
(-3.86542e+06 -1.65264e+06 -7.30386e-12 111420 1.54248e-12 -931443)
(1.67514e+07 -690902 -4.67386e-12 -98340.1 -3.02293e-12 4.13196e+06)
(2.93899e+07 -471277 4.4789e-12 -14687.8 -1.32636e-12 7.28859e+06)
(-2.91552e+07 -517231 -2.70968e-12 33615.6 1.69537e-12 -7.22567e+06)
(3.00422e+07 -3.57527e+06 -7.77635e-13 3.34518e+06 2.315e-12 8.2841e+06)
(1.51888e+07 -1.37694e+06 -2.3974e-12 -20821.5 2.18507e-12 3.76349e+06)
(-8.12241e+06 993608 -1.68366e-12 1.94039e+06 1.36789e-12 -1.53388e+06)
(2.23436e+07 -997954 2.3534e-12 -15826.7 -1.84118e-13 5.53997e+06)
(-1.3087e+07 -1.72321e+06 -3.58931e-12 77562.5 -8.21378e-12 -3.22792e+06)
(157.185 -1316.31 1.87786e-17 3491.92 3.77656e-17 905.418)
(1.31642e+07 -780423 1.07312e-12 3.91755e+06 3.94028e-13 4.23833e+06)
(-3.09945e+07 -364216 5.5676e-13 -2938.49 -1.3982e-12 -7.69109e+06)
(1.06683e+07 -1.21033e+06 3.00506e-12 -119201 1.68493e-11 2.61744e+06)
(-1.08473e+07 -1.14135e+06 -8.77942e-13 -4725.23 1.27411e-11 -2.69261e+06)
(-9.16174e+06 -1.52207e+06 -1.01815e-11 -81563.3 3.22476e-12 -2.29345e+06)
(-2.42322e+06 -1.18022e+06 1.4259e-12 33670 4.99622e-14 -592896)
(2.97626e+06 -1.51526e+06 -3.75004e-12 -161351 -6.65271e-12 698436)
(3.37795e+07 -154247 -9.85156e-12 284793 -4.98061e-13 8.45204e+06)
(-2.5735e+07 -383843 -4.08462e-12 53071 1.26006e-12 -6.37222e+06)
(142.41 -1168.59 2.00525e-17 4393.74 2.04565e-16 1125.51)
(1.51107e+06 -1.7128e+06 0 110859 0 402434)
(-3.59022e+06 -1.69965e+06 -8.75306e-12 -32749.9 -8.70986e-12 -898932)
(-9.20487e+06 3.6596e+06 3.68168e-13 -199950 3.60188e-13 -2.33353e+06)
(-8.60233e+06 -1.17667e+06 1.34933e-11 -124117 -1.06905e-11 -2.16521e+06)
(23.9983 -165.402 -5.05123e-18 1139.93 2.02634e-17 288.795)
(3.84146e+07 -9.63601e+06 -5.9385e-13 4.12496e+06 7.81574e-13 1.05549e+07)
(1.28257e+07 -1.48972e+06 -2.12096e-13 55921.6 1.10362e-11 3.1962e+06)
(-1.26108e+07 -1.41004e+06 1.00186e-12 -15429.6 2.12372e-12 -3.13283e+06)
(1.86117e+07 -1.25966e+06 1.45058e-12 614811 1.0316e-12 4.77049e+06)
(-1.66216e+07 2.27263e+06 -9.66657e-13 749594 -1.92504e-13 -3.93816e+06)
(1.12099e+07 -417019 -1.71534e-12 2.60009e+06 -9.72976e-14 3.42653e+06)
(-2.24739e+06 -1.57395e+06 -2.53034e-11 -41885.1 3.45093e-12 -568015)
(1.69814e+07 -1.8107e+06 8.04178e-13 3.72289e+06 3.64438e-13 5.13715e+06)
(-7.44329e+06 1.44736e+06 1.63657e-12 1.92803e+06 -1.41522e-12 -1.36845e+06)
(-1.66576e+07 43713.6 1.51794e-12 931426 -1.46284e-13 -3.90198e+06)
(8.84237e+06 -1.19402e+06 8.73192e-13 778187 -1.28612e-12 2.38706e+06)
(1.13408e+06 -1.22568e+06 0 1.47114e+06 0 646407)
(-2.40058e+07 -439058 7.12843e-13 208865 -5.87933e-14 -5.90451e+06)
(1.11497e+07 -1.56724e+06 -4.58923e-12 21565.7 5.09445e-13 2.77182e+06)
(7.59361e+06 -568020 -6.59146e-13 3.01615e+06 1.76823e-13 2.6325e+06)