/*--------------------------------*- C++ -*----------------------------------*\
| =========                 |                                                 |
| \\      /  F ield         | OpenFOAM: The Open Source CFD Toolbox           |
|  \\    /   O peration     | Version:  v3.0+                                 |
|   \\  /    A nd           | Web:      www.OpenFOAM.com                      |
|    \\/     M anipulation  |                                                 |
\*---------------------------------------------------------------------------*/
FoamFile
{
    version     2.0;
    format      ascii;
    class       volScalarField;
    location    "1000";
    object      sigmaEq;
}
// * * * * * * * * * * * * * * * * * * * * * * * * * * * * * * * * * * * * * //

dimensions      [1 -1 -2 0 0 0 0];

internalField   nonuniform List<scalar> 
24076
(
2.56422e+07
375653
5638.33
5587.83
5.94097e+06
432927
386374
2.72431e+07
731.296
2.34918e+07
1.6057e+07
2.28181e+07
1.30774e+07
4.8435e+06
2.802e+07
2.78382e+06
1.50504e+07
1.52913e+07
2.64742e+06
3.96538e+06
2.76067e+07
1.4534e+07
548957
1.6251e+07
4.41576e+06
2.21144e+06
2.93696e+06
433122
3.38761e+06
5.28444e+06
5.08698e+06
108931
1.02786e+07
9.05157e+06
1.19351e+07
2.01583e+07
1.25098e+07
1.53977e+07
1.5497e+07
2.78625e+07
9.71958e+06
3.76201e+06
1.01044e+07
7.88636e+06
1.8836e+07
2.73347e+07
536107
7.17812e+06
3.11988e+06
2.03308e+07
14674.3
2.26992e+06
2025.46
473433
716.682
1.16392e+07
5.29786e+06
2.8603e+07
3.381e+06
1.36415e+07
2.74359e+07
334988
3.25468e+07
1.89349e+07
1.11292e+07
2.71259e+07
8.66854e+06
9.43748e+06
300575
8.04282e+06
3.46903e+06
785927
2.08133e+07
91877.2
9.1794e+06
5.39793e+06
1.52831e+07
2.00649e+07
1.80578e+07
3.30184e+07
511160
6.82278e+06
8.42679e+06
3.71434e+06
6.44663e+06
2033.61
5.64143e+06
1.67782e+07
3.30681e+06
4.24411e+06
7.00804e+06
3.48804e+06
1.56529e+07
5.73143e+06
3.4084e+06
1.49172e+07
4.44455e+06
3.67664e+06
104831
9.00567e+06
7.93284e+06
1.18699e+07
4.50642e+06
1.8568e+07
5.88303e+06
1.06019e+07
30725.4
662048
2.41208e+07
9.69147e+06
3.30704e+06
5.45133e+06
1463.6
356523
4.63529e+06
13972.3
1.38993e+07
8.19943e+06
3.49567e+06
1.07179e+07
3.35446e+06
1.73441e+07
1.05951e+07
2.70431e+07
1.78788e+07
1.60315e+07
2.40398e+07
1.46222e+07
5.83474e+06
68821
1.72863e+07
1.01939e+07
8.13635e+06
565201
1.6144e+07
2.94141e+06
2.37153e+06
1.06491e+07
2.46843e+06
3.35953e+06
4.76269e+06
1487.37
2.61418e+06
3.48063e+06
8.15134e+06
5.02204e+06
7.33383e+06
1.00453e+07
2.23093e+06
33167
2.22523e+07
470.373
1.54989e+07
9.1222e+06
1.79192e+07
4.09302e+06
2.66144e+07
5.47009e+06
3.01845e+06
8808.99
4.155e+06
671.986
2.91943e+07
3.08716e+07
3.20687e+06
1.14154e+07
1.13947e+07
1.23348e+07
1.50955e+07
8.20193e+06
1.15083e+07
605392
3.39584e+06
8.155e+06
1.81799e+07
1.78592e+07
1.75661e+07
1.72872e+07
2.60132e+07
2.45996e+07
3.15677e+07
223294
1.28486e+07
4.97321e+06
5.35778e+06
4.35757e+06
1.51837e+07
1.26969e+07
2.09787e+07
1.04781e+07
120627
1.62666e+07
7.2205e+06
1.49473e+07
9.51312e+06
2.63677e+07
452219
1.58082e+07
1.59593e+07
2.65647e+07
1.26517e+07
1.15349e+07
9.39474e+06
9.46074e+06
3.03072e+06
7.27171e+06
2.50545e+07
1.46273e+07
2.3599e+07
5.171e+06
747422
3.01842e+06
1.28043e+06
2.17564e+07
739.186
3.19435e+06
2.87445e+06
2.78076e+07
2.24167e+06
2.39025e+06
3.59856e+06
3.04434e+07
3.16325e+07
1.30313e+07
2.63451e+07
16871.7
9281.85
1.70029e+07
16415.9
4.44647e+06
8575.58
1.57332e+07
17027.4
277406
4.65566e+06
6.96981e+06
1.03106e+07
9.44551e+06
1.09308e+07
2.54003e+07
2.51455e+07
6.81079e+06
1.12943e+07
1.11647e+07
2.06075e+07
2.0669e+07
1.43979e+07
2.78443e+07
2.80146e+07
1.47627e+07
1.12565e+07
4.93044e+06
3.93047e+06
2.67625e+07
2.01556e+07
2.03718e+07
248704
95055.4
1.24252e+06
4.01596e+06
9.32387e+06
3.25708e+07
1.81751e+07
65.2119
1.61784e+07
5.69588e+06
2.54494e+07
3.65539e+06
1.5063e+07
3864.81
9.29632e+06
9.45167e+06
2.58768e+07
3.37944e+06
4.12468e+06
1.34102e+07
1.63946e+07
616335
2.22048e+07
2.84548e+07
24142.9
2.56092e+06
2.35928e+06
2.01208e+06
2.49042e+06
1.06653e+07
255639
2.00794e+07
3.51845e+07
1.29486e+07
4.18922e+06
2.45391e+07
8.60067e+06
7.36693e+06
1.04868e+07
1.0426e+07
1.73015e+07
6334.12
44592.1
1.1356e+07
1.37624e+07
1.37103e+07
1.09158e+07
1.07353e+07
9.93656e+06
1117.83
3.57475e+06
1.7743e+07
6.87946e+06
4.40349e+06
7.31333e+06
2.19316e+06
633.515
1.72735e+07
1.2392e+07
3.12807e+07
1.10204e+07
223210
2.86412e+07
3.7643e+06
1.36205e+07
2.64381e+07
1.55785e+07
296510
474843
1.67178e+07
1.43745e+07
1.43527e+07
2.33126e+07
4.75953e+06
7.87544e+06
1.72023e+07
1.7321e+07
3.84805e+06
1.19937e+07
2.22366e+07
1.43266e+07
485941
2.30923e+07
9.92557e+06
3.34954e+07
3.01509e+06
228700
1.09617e+07
3.13015e+06
1.72077e+07
2.3895e+06
4.22853e+06
3.55504e+06
2.16611e+07
1.34408e+07
2.51925e+06
1.71238e+07
3.32143e+06
2.7086e+07
1.00279e+07
1.49953e+07
3.39607e+06
7.6153e+06
6.41879e+06
2.54703e+06
2.14829e+07
9.97541e+06
405740
3.20138e+07
8.19109e+06
6.31523e+06
1.93818e+07
1.73721e+07
2.91273e+06
2.83161e+07
7.70225e+06
2.72016e+07
1.3873e+06
2.65754e+07
2.67673e+07
33792.7
1.33643e+07
1.32783e+07
2.4432e+06
8.62261e+06
5.50109e+06
1.28519e+07
7.3478e+06
1.63329e+07
180887
1.19741e+07
581996
4466.06
2.27819e+07
2.96021e+06
9.73119e+06
9.83519e+06
4.57703e+06
1.52303e+07
2.65308e+07
2.63363e+07
2.53696e+07
1.39206e+07
9.01838e+06
2.02379e+07
1.22322e+07
3792.51
9.19044e+06
2.79592e+07
9.93639e+06
9.97751e+06
8.61439e+06
3.01136e+06
3.84372e+06
3.02508e+07
2.32606e+07
4354.03
3.23086e+06
4.35785e+06
1.0325e+07
7.93064e+06
1049.77
3.571e+07
1.18105e+07
1.16216e+07
1.6466e+07
1.6056e+07
8.25937e+06
3.37826e+06
1.29951e+07
8.60702e+06
1.57393e+07
7.67609e+06
2.24113e+06
2.18236e+07
1.04001e+07
4.88103e+06
3.39568e+06
8.32253e+06
8.65487e+06
442780
3.84219e+06
9.20638e+06
1.16264e+07
129132
1.39629e+06
2.10447e+07
1.32285e+07
2.80271e+06
3.09293e+07
413484
2.21915e+07
1.11721e+07
7.06501e+06
4.0237e+06
1.11029e+07
5.09188e+06
1.84754e+07
1.49829e+07
56679.5
3.70629e+06
298008
353497
3.66667e+06
5.33639e+06
2.49225e+07
1.72158e+07
30298.6
1245.03
1.56089e+07
1.57423e+07
1.61537e+07
319140
1.80159e+07
1286.17
2.38308e+06
1.54315e+07
2.24287e+07
1.16576e+07
1.13621e+07
2.35005e+07
1.20133e+07
18812.9
1.27216e+07
1.20813e+07
1.26085e+07
1.31538e+07
3.12197e+07
1.25917e+07
1.0413e+07
1.02488e+07
3.11594e+07
9.79872e+06
1.42006e+07
1.55394e+07
1.54912e+07
1.15032e+06
3.01323e+07
1.69665e+07
7.08648e+06
137173
1.20446e+07
47871.2
1.16655e+07
1.13637e+07
2.70934e+07
3872.73
2.63522e+06
959719
7.09675e+06
8.07708e+06
1.84651e+07
3.42218e+07
2.02227e+07
2.34811e+07
3.30302e+06
7.74553e+06
1.90393e+07
267.79
2.38082e+07
6.7341e+06
1.12945e+06
2.07753e+07
7.68753e+06
3.70083e+06
3.29939e+06
2.13323e+07
91493.1
7.74828e+06
89075.2
3.03844e+06
6.66247e+06
6.64594e+06
1.28978e+07
337646
2.97219e+07
311728
1.87892e+07
1.78569e+06
1.78002e+06
1922.95
763467
3.17604e+07
1.2475e+07
2.48206e+07
2.40107e+06
4.62358e+06
6.15789e+06
6196.89
3.33145e+06
7.87634e+06
7.75418e+06
6378.26
23296.2
1.20888e+07
5.16302e+06
5.25598e+06
1.96643e+07
4.2065e+06
17412.7
4.4826e+06
1.83258e+07
1.75851e+06
1.82469e+07
1.83112e+07
2.67305e+07
2.65466e+07
3.03471e+07
336.03
181316
2.13083e+06
6.45945e+06
46045.5
2.88871e+07
8.70439e+06
4999.78
1.707e+07
7.57702e+06
7.62016e+06
9.42319e+06
1.02455e+07
1.69244e+07
5.06912e+06
2.47501e+06
20769.3
2.59993e+07
12917.5
792288
1.20102e+07
8.23187e+06
7.95135e+06
3.42599e+07
7.14323e+06
7.01478e+06
4.93779e+06
3.84609e+06
9.64669e+06
5.78909e+06
1.2184e+07
901310
1.06971e+07
29942.2
2.72955e+07
2.15085e+07
1.80434e+07
3.57383e+06
8.27328e+06
1.13191e+07
6.26153e+06
8.79232e+06
2.23931e+07
1.8401e+07
2.78311e+07
1.25857e+07
2.75226e+06
9.71513e+06
4.95129e+06
8.62309e+06
1.8422e+07
2.96584e+07
1.49046e+07
6.09782e+06
6.12572e+06
490794
3.51805e+06
1.25828e+07
11028.1
2.11794e+07
1.92838e+07
6.94491e+06
7.00032e+06
1.81493e+07
5437.75
3.48511e+06
2.29528e+07
5.45831e+06
1.25787e+07
1.24698e+07
292799
11545.3
2.47827e+06
1.03957e+07
3.38313e+06
7.5829e+06
13201
5524.61
2.09461e+07
7.32505e+06
1.2342e+07
1.57723e+07
1.4403e+07
1.06173e+07
51067
1.01515e+07
2.1377e+07
2.32854e+07
2.58673e+07
6.56701e+06
3.97984e+06
7.54614e+06
6.53687e+06
7.5377e+06
2.72708e+07
2.34836e+07
2.42008e+07
2.40343e+07
78.1403
296076
4.3982e+06
3.07924e+07
760569
1.16555e+07
7.75848e+06
2.36067e+06
20711.4
1.11725e+07
6.03183e+06
6.73061e+06
1.53269e+07
8.56343e+06
8.53667e+06
6.11703e+06
2.1031e+07
2.10669e+07
2.29765e+07
2.53983e+07
199780
1.92557e+07
3.02449e+07
4.12057e+06
246511
1.03208e+07
1.04846e+07
1.3255e+07
1.45191e+07
1.75745e+06
1.89912e+07
1.01757e+07
457372
1.91868e+07
3.45706e+07
2.37341e+06
1.1309e+07
1.87569e+07
1.88006e+07
912419
2.95036e+07
1300.85
2.57427e+07
10540.7
1.04877e+07
7.85965e+06
4.47359e+06
3.04569e+07
17741.9
1.16326e+07
1.05152e+07
1.06165e+07
505291
6.59971e+06
6.59993e+06
3.20474e+07
2.40746e+07
1.07646e+07
7.71782e+06
2.93629e+07
2.88201e+07
600266
2.48843e+06
3.54227e+06
55233.2
1.56012e+06
2.3452e+07
8.44835e+06
8.5765e+06
9.35981e+06
756.341
4.54543e+06
8.0516e+06
1.4822e+07
1.11768e+07
1.13832e+07
1.26365e+07
2.89857e+07
2.88249e+07
2.05709e+07
2.81259e+06
382675
2.10807e+07
1.0163e+07
2.80554e+07
3.04191e+07
1.63813e+07
4.47171e+06
1.18474e+07
1.14638e+07
9.79152e+06
1.23839e+07
1.85748e+07
2.6664e+06
1.03356e+07
2.94034e+06
4.83314e+06
2.50479e+07
2.25203e+06
1.79766e+06
1032.74
1.34801e+07
14486.7
1.87132e+07
1.77103e+07
1.10981e+07
1.2621e+06
2.5625e+06
8.22739e+06
8.25724e+06
3.51586e+07
7.0895e+06
32.6109
226806
2.01059e+07
2.03141e+07
7.94878e+06
58553.3
1.17885e+07
1.73196e+07
3.15716e+07
1.43454e+07
1.22016e+07
1.27265e+07
8.90131e+06
5.71338e+06
4.54398e+06
2.47953e+07
5.2963e+06
1.44254e+07
1.2363e+07
1956.78
1.22676e+07
2.80358e+07
2.22139e+07
7.38118e+06
627935
2.11814e+07
2.95808e+06
3.69542e+06
6.67803e+06
2.96825e+06
258313
68787.8
1.03541e+07
1.28149e+07
2.02035e+07
4.24045e+06
3.05396e+06
3.00544e+06
4.33128e+06
1.51102e+07
213878
2.72437e+07
3.16326e+07
1.32156e+07
1533.42
4.38387e+06
4.83048e+06
3.11879e+06
5.75656e+06
5.58125e+06
3.19975e+06
2.65184e+07
1.38448e+07
52448.6
1.52755e+07
56693.8
1.3914e+07
1.22714e+07
8.69106e+06
4.78914e+06
35115.5
37.6458
3.72437e+06
706604
1.24089e+07
1.48236e+07
1.85487e+07
2.10963e+07
4.09306e+06
4.18751e+06
1.96997e+07
405011
1.97239e+07
2.62164e+07
786211
1.27602e+07
2.71022e+07
1.00071e+07
1.10307e+07
2.74272e+06
58764.7
3.2157e+07
1.22058e+07
4.79436e+06
1.12617e+07
2.35447e+07
4.76318e+06
2.33191e+07
1559.7
3.08149e+07
6.72841e+06
4.33971e+06
2.29818e+07
4.05205e+06
3.81959e+06
3.06272e+06
518.718
309798
6.59966e+06
3.27743e+06
6.4918e+06
7.74408e+06
2.96667e+07
1031.44
1.1831e+07
402263
1.44469e+07
3.09567e+06
1.84513e+07
1.58689e+07
1.59844e+07
1.04605e+07
1.06216e+07
1292.26
5.03365e+06
5715.88
5.67388e+06
7.03613e+06
3.05018e+07
1.20541e+07
591907
3.06275e+07
1.33187e+07
1.95606e+07
1.75176e+07
8.76993e+06
8.76014e+06
6.50108e+06
3255.25
5213.63
4.46294e+06
3.11991e+07
1.88851e+07
1.87638e+07
5.92399e+06
2.26622e+06
1.02561e+07
2.01337e+07
2.04003e+07
1.46769e+07
3.13141e+06
8.97905e+06
1.22967e+07
1.2438e+07
5.78907e+06
255.756
1.19197e+07
1.31896e+07
56948.2
2.88848e+06
2.61402e+07
7.68264e+06
7.50027e+06
1.04337e+07
1.03874e+07
342.438
1.13635e+07
1.96153e+07
1.92841e+07
1.08914e+07
3.1133e+06
10766.3
2.57712e+07
3.1475e+07
3.14516e+06
46079.2
1.1503e+07
1.63146e+07
1.80154e+06
6.89926e+06
1.37854e+07
2.19765e+06
229139
6.3835e+06
2.45813e+07
2.66866e+07
8862.23
1.44636e+07
538274
2.48647e+07
1.45556e+07
4.59667e+06
1913.75
2.87977e+07
8.59282e+06
8.62546e+06
93823.7
2.28677e+07
9.76417e+06
3.30641e+06
5.02298e+06
898065
6.94245e+06
381889
6711.58
8.17641e+06
2.03807e+07
7.88085e+06
8.31895e+06
2.28495e+07
2.07263e+07
9.85394e+06
2.19665e+07
3379.11
5.21553e+06
7.50136e+06
2.94628e+07
7.72735e+06
9.95174e+06
4.88569e+06
33471
1.62452e+07
2.42161e+07
1.36587e+07
2.96147e+06
2.29975e+07
2.19272e+07
1.83478e+07
2.51335e+07
1.27239e+06
1.53912e+07
1.1712e+07
37133.1
4.29588e+06
4.92109e+06
1.48895e+07
1.90523e+07
1.91345e+06
3245.06
5.36493e+06
1.24852e+07
1.62853e+07
1.238e+06
3.01259e+07
7.03046e+06
1.18261e+07
4.35618e+06
7.12072e+06
1.15633e+07
314450
4.89981e+06
1.79465e+07
2.55537e+07
771.703
2.72556e+07
2.26135e+07
1.0033e+07
303274
2.0738e+07
1.95345e+07
1.72128e+07
1.70832e+07
1.11271e+07
6.43342e+06
3.38644e+06
2.91616e+06
2.71418e+07
1.7783e+07
1.01722e+07
1.02251e+07
386442
1.01161e+07
3.98501e+06
46454.5
2.18552e+07
25940.9
2.72801e+06
7496.04
1.08149e+07
1.86172e+06
2.16177e+07
3.23374e+06
1.36526e+07
1.49739e+07
6.82058e+06
281807
10841.4
2.6984e+07
2.33326e+06
2.47008e+06
6.85343e+06
5.44499e+06
2.24184e+07
2.10915e+07
2.35886e+07
280865
2.77761e+06
6.08723e+06
6.67821e+06
2.95459e+06
7.19586e+06
5.72108e+06
7.77208e+06
2.3825e+06
3667.58
1.99125e+07
9.29699e+06
9.27874e+06
8.94993e+06
3.08893e+06
1.43895e+07
3.89649e+06
1.73855e+07
3.03576e+07
4.86473e+06
2307.09
3.56507e+06
1.70949e+06
2.2031e+07
2.54687e+07
9.46619e+06
1.86537e+07
1.52956e+07
1.40377e+07
29540.1
9.2002e+06
5.33616e+06
250039
122540
3.13861e+06
2.28551e+07
47668.3
4.22719e+06
2.32199e+07
1.68218e+07
3.37735e+06
1112.23
9.08656e+06
1.12282e+07
1.61955e+07
1.20357e+07
11503.6
1.52823e+07
6.81867e+06
8.93015e+06
4.80522e+06
1.6088e+07
2.00851e+07
1.63027e+07
2.18319e+07
8.82616e+06
29889.1
4.05776e+06
817.824
5.79399e+06
8.10086e+06
2.38838e+06
2.278e+07
2.94439e+07
1.38028e+07
2.87041e+07
438286
5.07643e+06
309847
1.79798e+07
2.29861e+07
1.1749e+07
5.71841e+06
5.97346e+06
1.87894e+07
3793.08
6.25305e+06
139135
8.84856e+06
7.85319e+06
3.82579e+06
2.56891e+06
4.26866e+06
3.17548e+06
1.11814e+07
1.05373e+07
1.92629e+07
1.92415e+07
1.0046e+07
1.01556e+07
4.47719e+06
8.9712e+06
10102.3
1.72704e+07
1.02752e+07
125545
33907.3
2.01377e+07
9.88083e+06
2643.43
6.35307e+06
6.59214e+06
1.21008e+07
3.04398e+07
7.56751e+06
1.02547e+07
1.68476e+07
1.18908e+07
1.80146e+07
1.48342e+07
7170.83
30599.3
1.10322e+07
5.06392e+06
2.53655e+07
2.66064e+07
33724.9
1.10528e+07
1.24387e+07
1.26103e+07
1.12015e+07
1.38794e+07
2.35991e+06
23546.3
5.01103e+06
1.92862e+07
282961
396432
1.25827e+07
2.91075e+06
1.77221e+07
1.77071e+07
19611.6
205720
2.79951e+06
2.17901e+07
6.41744e+06
1.3429e+07
2.55751e+07
1.70369e+07
555178
1.72532e+07
4.42094e+06
402821
46143.2
93745.9
1147.25
3.16075e+06
4.67524e+06
316651
775706
1.60527e+07
5.1957e+06
4.81296e+06
9.23936e+06
3.34741e+06
1.52918e+07
3.56367e+06
2.65326e+07
2.63523e+07
1.87013e+07
3.05058e+06
1.0811e+07
1.29481e+07
2.42367e+07
1.54639e+06
1.50486e+06
2.72372e+06
2.33538e+07
9.36857e+06
1.76619e+07
5.44059e+06
5.26602e+06
1.37072e+07
2.17152e+07
1.34577e+07
2.12507e+07
7.05158e+06
6.86711e+06
1.49502e+07
2.69867e+06
1.09056e+07
4.14012e+06
1.02596e+07
347.09
3.49612e+06
2.39935e+07
6648.23
9.2275e+06
3.20221e+06
1.76067e+07
4.74726e+06
4.86439e+06
1.61422e+07
5664.89
1.7149e+07
2.41144e+07
1.65589e+07
4.1621e+06
25617.3
9.92626e+06
3.22768e+06
3.16372e+07
2.27656e+06
2.3255e+07
1.0342e+07
4.5573e+06
82912.5
1.34987e+06
1.35973e+06
1.84062e+07
4.70026e+06
6.78541e+06
1.81078e+07
1.91324e+07
1.97444e+07
1.8445e+07
1.70279e+07
8971.77
2.3217e+07
2.61311e+06
5.63995e+06
2.87819e+06
3.3006e+06
2.45462e+06
1479.01
3.42901e+06
967677
1.1107e+06
1.1174e+07
2.64347e+07
14007.9
718.503
1.64818e+06
256593
1.75985e+07
1.30439e+07
3.10789e+06
2.76098e+07
2.58542e+06
1.85861e+07
4.25471e+06
1.60268e+07
6.28834e+06
9.12882e+06
7.74243e+06
1.05391e+07
2.59447e+07
1.21161e+07
2.90218e+07
8.98895e+06
2.55335e+07
2.22472e+07
217249
2.22153e+07
5.08064e+06
9.32975e+06
4.98425e+06
9.79691e+06
3.01828e+06
1.7469e+07
1.34908e+07
48954.2
2.10265e+07
1.55233e+07
2.52906e+07
521.128
1.23695e+07
5.70612e+06
3.08124e+07
5.48318e+06
3.01995e+07
2.53847e+07
3.46486e+06
7.12391e+06
1.95318e+07
145803
8.26292e+06
1.30981e+06
316607
2.18548e+07
5.30373e+06
2.05994e+06
1.85342e+07
1.51738e+07
1.49517e+07
5.82177e+06
4.83048e+06
1.55784e+07
2.32425e+07
2.98396e+07
2.78675e+07
1.65604e+07
2.99783e+07
114556
1.9835e+07
2.64529e+07
5.14952e+06
1.69048e+06
2.75941e+07
5.54041e+06
1.46302e+07
3.27454e+07
3.81927e+06
5.45924e+06
3.21928e+07
6.86048e+06
7.53122e+06
3.43178e+06
2.08142e+07
4.39742e+06
7.6754e+06
1.98137e+07
191366
4.94638e+06
6.37023e+06
6.39149e+06
6.74673e+06
1.496e+07
1.66835e+07
2.64401e+06
5.17224e+06
2.42733e+07
1.69278e+07
286536
313496
2.49671e+06
609011
2.79172e+07
2.22099e+07
2.09079e+07
4.29614e+06
2.29198e+07
1.00298e+07
1.15723e+07
234685
1.81291e+07
1.36533e+07
8.74077e+06
2.7437e+07
6.25236e+06
2.7239e+07
8.13448e+06
2.25966e+06
2.58008e+07
1.1337e+07
7.59777e+06
1.15114e+07
1.0083e+07
1.53899e+07
7.23944e+06
10446.3
1.23023e+07
1.8934e+07
1.78787e+07
240.451
2.62417e+06
1735.13
8.94461e+06
1.12057e+07
94116.8
1.20828e+06
148909
768378
2.16018e+07
2.1788e+07
1.91019e+07
2674
756926
2.87761e+06
4.74641e+06
1.65012e+07
86935.7
4.67351e+06
250044
1.28615e+07
2.88051e+06
348.334
709472
5.24861e+06
3.01673e+07
1.97245e+07
1.98836e+07
1.04709e+07
1.68413e+07
1.55329e+07
1.49663e+07
2.99908e+07
2.9584e+07
7.27034e+06
3.89605e+06
7.8795e+06
2.5442e+07
1.42094e+07
1.05771e+07
626000
3.08687e+07
5.56907e+06
1.30938e+07
1.10635e+07
4.69207e+06
3.32618e+06
4.74656e+06
1.51376e+07
1.9847e+07
2.52904e+07
9.05493e+06
1.92759e+06
3.23784e+07
3.00091e+06
7.50372e+06
4.2409e+06
1819.28
1.17671e+06
149.724
3.58496e+06
4.49251e+06
7.89732e+06
1.55529e+07
1.30671e+06
80963.3
2.53977e+07
7.09858e+06
1.17264e+06
449479
3.07256e+07
3.18797e+07
1.32727e+07
7.6053e+06
11505.4
4.16895e+06
914981
3.1048e+07
1.6383e+07
1.39653e+07
1.89183e+07
456474
1.48506e+07
1.50258e+07
1.65312e+07
7.12743e+06
88864.6
8.71961e+06
275486
1.72566e+07
2.99271e+07
218826
2.16845e+07
1.75782e+07
2.24998e+07
1.41294e+07
1.76911e+07
1.4916e+07
8.67324e+06
1.4948e+07
1.88692e+07
1.89861e+07
1172.81
631498
619323
1.10384e+07
2.67546e+07
1.52791e+06
1.04736e+07
30624.7
1.95731e+07
500713
199319
308.848
13698.7
748941
1.82921e+07
2.2561e+07
1.04804e+07
1.45632e+07
2.14342e+07
7.66398e+06
4.05658e+06
1.85337e+07
1.61428e+07
2666.91
3.65653e+06
3.74363e+06
5.08579e+06
1.76813e+07
12264
2.33933e+06
2.56414e+07
7235.1
7.72228e+06
2.15011e+07
365433
4.24845e+06
1.16012e+07
788025
5.83665e+06
31703.5
630826
293191
1.45334e+07
6.47423e+06
280300
8.82321e+06
2.01712e+07
7.76129e+06
2.05728e+07
2.8407e+06
1.81401e+07
7.47951e+06
3.12093e+06
1.21641e+07
6.09652e+06
1.94744e+07
1.83089e+07
74381.8
2.92151e+06
5.10529e+06
5.12415e+06
1.70055e+07
1.86186e+07
6.11794e+06
2.62296e+07
1.30812e+07
209817
5.93943e+06
5.56959e+06
1.27227e+07
3.9692e+06
4.39474e+06
675.391
3.5862e+06
1.68726e+07
1.67621e+07
1.045e+07
3.04487e+07
2241.66
2.14353e+07
820859
2.4683e+07
3.08643e+07
1616.27
37471.5
4.78811e+06
2.28991e+07
3.11354e+06
7.82901e+06
35078.1
1.77072e+07
3.31243e+07
1.47751e+07
5171.8
1.33517e+07
3.05126e+06
1.5361e+06
1.84366e+07
3.85851e+06
6754.32
5.55996e+06
1.10252e+07
2.93026e+06
3.73289e+06
1.64398e+07
2.61381e+07
1.31487e+07
1.13065e+07
2.13649e+07
1.95954e+07
8.12009e+06
1.32466e+07
3.14989e+06
1221.31
1.50395e+07
55069.1
1.42752e+07
1.41431e+07
1.18268e+07
2.96847e+06
2.6573e+07
1.57192e+07
1.56707e+07
1.59701e+07
3.67314e+06
23341.3
3.57154e+06
5.35798e+06
43260.1
1.06888e+07
1.79963e+06
30095.3
1.933e+07
2.98162e+06
3.09491e+06
2.0054e+07
2.29388e+07
238947
3397.92
1.1662e+07
2.93821e+06
83158.9
4.64872e+06
6365.38
2.79785e+07
8.31439e+06
905.189
3.91794e+06
3.88928e+06
1.0683e+07
2.55815e+07
1.37184e+07
2133.78
20618.5
2.73263e+07
3.19515e+07
1.78895e+07
736775
1.29457e+07
3.08203e+07
1.85034e+07
3.31975e+07
4.0544e+06
1.85054e+07
7.52486e+06
15922.3
1.07468e+07
2.15205e+07
2.00067e+07
2.05901e+07
291520
4.1596e+06
1.88645e+07
448176
8.24929e+06
3.14563e+06
2.27401e+06
2.1535e+07
1.78193e+07
2.69035e+06
1.06283e+07
2.38378e+07
1.34664e+07
2.29595e+07
8.37915e+06
1.56051e+06
8.70929e+06
3539.18
1.61515e+07
161.479
1.05767e+07
2.04882e+07
1.56334e+07
3.95503e+06
2.7642e+07
8.20486e+06
9.54471e+06
7.29975e+06
1.79959e+07
3.10528e+07
6.56492e+06
3.37458e+07
1.55042e+07
1.602e+07
1212.48
60476.6
3.20445e+07
19140.5
2.01783e+07
1641.5
1.73964e+06
1.85506e+07
15409.8
1.50536e+07
3.25014e+06
1.92654e+07
3.18016e+07
3.43347e+06
2.14246e+06
2499.28
3.58028e+06
4.59975e+06
1.44249e+07
1.45572e+07
5041.53
367646
14116.8
2.27013e+07
2.25821e+07
42286.4
2.99062e+06
1.97974e+07
2.5765e+07
9.90249e+06
270214
1.01787e+07
1.28784e+07
35075.1
1.96507e+07
2.70754e+07
2.00164e+06
1.17306e+07
222901
1.18785e+07
2.0076e+07
1.00896e+07
2.70581e+07
3.97155e+06
5.99439e+06
2.68276e+07
2.59258e+07
2.51998e+07
5.83426e+06
1.39527e+07
2.1257e+07
411581
5.90749e+06
2.03367e+07
5.7427e+06
1.50133e+07
1.25339e+06
8.7185e+06
652506
495973
3.27594e+07
1.06023e+07
7857.81
3.32619e+07
19148.9
2.85613e+06
3.5966e+06
2.96619e+07
1.80256e+07
7.53787e+06
7.60712e+06
443.322
1.45426e+07
6.86024e+06
2.16569e+07
6.56989e+06
1.62687e+07
8932.86
8.85399e+06
2.6186e+07
2.97826e+07
3.10863e+07
190302
1.4183e+07
1.17213e+07
2.41137e+06
3.74481e+06
809.078
7.74572e+06
1.50982e+07
4.4074e+06
1.04693e+07
9.42555e+06
1.22419e+07
1.38292e+07
29154.8
1707.61
1.09365e+07
1.02447e+07
3.38911e+06
90146.5
58882.1
2.07265e+06
2.56653e+07
1.81593e+07
3.34882e+07
2.53023e+07
2.55673e+07
1.0693e+07
313114
7.11659e+06
25126.1
2.00409e+07
1.09432e+07
1.44563e+07
1.50403e+07
1.63107e+07
1.20238e+07
1.10793e+06
3.06694e+07
2.84986e+06
1.65338e+07
2.09841e+07
1.83866e+07
2.22144e+06
1.02286e+07
1.03024e+07
4.6046e+06
1.94264e+07
18490.2
789350
493262
2.54143e+07
8.42865e+06
2.23508e+07
2.58207e+07
6.705e+06
6.65292e+06
3.12556e+07
1.94444e+07
7.18306e+06
1.1273e+07
1.08717e+07
2.10337e+07
1.18765e+07
1.45109e+07
6.54667e+06
2.95411e+07
310.005
2.15666e+07
2.72406e+07
1.04443e+07
40694.8
85042
14193.4
4.28198e+06
3.07263e+07
1.29354e+07
2.72774e+07
8.948e+06
2.0115e+07
3.83519e+06
4.09982e+06
2.87893e+06
3.75062e+06
1830.27
9.15903e+06
4.52556e+06
67815.8
1.33602e+06
1228.14
8.05538e+06
5.57709e+06
1.69505e+07
2436.37
2.23776e+07
2.23894e+07
2.07954e+06
2.25871e+07
1.10569e+07
2.1505e+07
2.18256e+07
1.53299e+07
1.53161e+07
128640
65999.3
2322.47
3.19661e+06
95070
6.16285e+06
1.70899e+07
2.81487e+07
1.18898e+06
6.72398e+06
207758
2.45468e+07
6.27314e+06
3.11951e+07
1.65544e+07
2.96142e+07
8.92381e+06
4.88894e+06
2.71366e+07
318872
1.70608e+07
3.64632e+06
2.72943e+07
7.62154e+06
3.25891e+06
2.82912e+06
2.2269e+07
1.05487e+07
1920.36
2.83529e+07
1.00751e+07
1.05878e+07
2.21892e+07
7.38609e+06
1.95479e+07
93814.1
4.12818e+06
8.74948e+06
893289
1.53304e+07
4.54662e+06
2096.16
2.66537e+07
1.59205e+07
175007
340460
1.86109e+07
1.44244e+07
5.63269e+06
4.32989e+06
2.87909e+06
3.31073e+07
4.04747e+06
1.10414e+07
1.68062e+07
1.38826e+07
8.64334e+06
1433.66
2.59398e+07
2.87291e+06
5.76187e+06
1.56435e+07
1.91208e+07
4.07122e+06
3.21594e+07
216030
1.15515e+07
1.40146e+07
236474
1.02053e+07
3277.51
9.21379e+06
2.61701e+07
377877
7.71201e+06
3.39225e+06
6.58517e+06
6.89489e+06
2.59451e+06
6354.95
3.23725e+06
1.42009e+06
2.13172e+07
4.09612e+06
4.48418e+06
2.0521e+07
415498
1.94819e+07
3.93814e+06
1.20453e+06
45966.8
2.85601e+07
1.72728e+07
2.72834e+07
7.84196e+06
1.58241e+06
5.78433e+06
4.24642e+06
7.07338e+06
9.35185e+06
6.9953e+06
296944
1.0632e+07
1.07136e+07
6.24738e+06
6.08977e+06
3.1231e+07
1.33177e+07
6.18369e+06
3.28368e+06
2.22325e+07
1.20821e+07
1.20157e+07
1.00766e+07
2.11128e+07
5.24798e+06
6.64498e+06
362069
44854.2
2.60108e+06
492804
1.06166e+07
1.7632e+07
1.68803e+06
8.34658e+06
3.03543e+07
2.66412e+06
1.72584e+07
367942
6.73072e+06
1.09816e+07
2.03328e+07
1.88672e+07
1.84354e+07
207861
1.28601e+07
7.01743e+06
1.09272e+07
3.72284e+06
3.52177e+06
4.25298e+06
2.48453e+07
55627.6
2.97695e+07
229012
5.26686e+06
8.07765e+06
2.09589e+07
5.53299e+06
4.58988e+06
2.4546e+07
8.13288e+06
1.78126e+06
1.81542e+07
9.69209e+06
9.59623e+06
887373
2.63486e+06
86686.8
1.80281e+07
703914
1.04046e+07
1.03721e+07
3.31933e+06
8.42527e+06
2.40025e+07
1.83828e+07
1331.06
3.01734e+07
8.21169e+06
8.3905e+06
3.59866e+06
9.03431e+06
2.27012e+07
9.93032e+06
9.79249e+06
1.26497e+07
34934.4
4.40687e+06
1.94174e+06
200807
1.44605e+06
2.25149e+07
362159
1.52504e+07
6.20809e+06
2.57862e+06
2.33231e+07
1.08462e+07
35320.4
4.31002e+06
2.11584e+07
3.08949e+06
1.79467e+07
6.60232e+06
454085
1.52795e+07
4.38759e+06
1.15173e+07
6.47596e+06
8.10911e+06
2.65775e+06
2.84091e+07
3.00991e+07
36272.2
7.62048e+06
8.17691e+06
2216.09
1.57159e+07
9.10743e+06
1.6782e+07
1.18481e+07
1.17452e+07
21805.7
7.59627e+06
5.71703e+06
9.10635e+06
1.82362e+07
1.10447e+07
1.40908e+07
194157
2.05621e+07
3.24541e+07
1.73142e+07
6.47946e+06
3174.66
3.59777e+06
6.50248e+06
3.23909e+07
8.49964e+06
8.1106e+06
2.18228e+07
5.84681e+06
289665
695650
2.3494e+07
1.94017e+07
8.1937e+06
3.31813e+07
4.04954e+06
48820.2
561016
1.85022e+07
510024
7.71907e+06
7.54018e+06
1.7395e+07
15037.3
46350.3
1.06252e+07
6.18691e+06
1.87851e+07
1.87687e+06
1.38878e+07
848.163
6.32552e+06
9.09409e+06
1.39008e+07
3.46841e+07
2.38289e+07
2.94758e+07
6.36257e+06
9.64094e+06
1.31721e+07
2.95504e+07
9.76221e+06
5.88941e+06
1.51724e+07
8.27914e+06
9.78061e+06
1.7411e+07
1.72811e+07
3.19783e+07
1.93882e+07
2.97537e+06
375816
3.13735e+06
1.87714e+07
4.23833e+06
336050
3.88707e+06
128566
1.46462e+07
207864
5.03767e+06
3.27246e+07
7.8161e+06
238858
9.13779e+06
1.72948e+07
51106.8
2.61791e+07
695.048
3.59826e+06
1.02778e+07
7.47873e+06
42222.1
7.47989e+06
49496.5
1.4727e+06
2.59529e+06
3.0692e+06
3.90552e+06
1.22163e+07
1.37058e+07
5.65716e+06
3.66617e+06
9.8769e+06
41318.1
2279.02
6.19588e+06
2.8143e+07
2.26177e+07
33307.4
5.59036e+06
2.48962e+07
20419
1.04578e+07
1.90169e+07
1.39154e+07
6.86457e+06
2.86045e+06
3.2365e+06
7.07203e+06
2.48471e+07
448555
255381
9.43407e+06
37833.2
1.72877e+06
14888
1.03302e+07
7.74115e+06
2.67891e+07
2.69496e+06
170.48
4251.75
1.17312e+07
8.86629e+06
1.10758e+07
1.24111e+07
1.7866e+07
19214.9
817000
1654.45
2.07434e+07
1.85558e+07
4.21914e+06
5.47147e+06
1.05649e+07
3.28177e+07
357568
1.59134e+06
1.04549e+07
2.78618e+07
9.1425e+06
2.75846e+06
2.50555e+07
130.064
2.23204e+07
1.53274e+07
3.38391e+06
8.15709e+06
1.4091e+07
1.30793e+07
6.61765e+06
1.39471e+07
3.91822e+06
61286.6
1.99077e+07
86015.9
2.05955e+07
9.9296e+06
1.24561e+06
1.76036e+07
2.491e+07
6.0386e+06
3.72299e+06
2.03111e+07
46013.8
2.19272e+06
6697.91
9651.65
175711
2.21847e+07
6.14753e+06
5.94354e+06
1.58442e+07
1.82568e+07
9.43535e+06
2.71905e+06
1.79544e+07
9.06353e+06
1.3998e+07
765.844
7205.77
1.1178e+06
2.48618e+07
3.54347e+06
3.4025e+06
6.45475e+06
2.6291e+07
1.75652e+07
3191.86
2.44263e+07
1.00938e+07
1.78508e+06
1.22826e+07
2.6012e+07
3.69881e+06
61387
1.39011e+07
1.19665e+07
7.11731e+06
5.25445e+06
3.18626e+07
2.88017e+07
1.74361e+07
1.45395e+07
1.58688e+07
2.53051e+06
3.17758e+07
6.71877e+06
1.40134e+06
3.94774e+06
6.11999e+06
9.98289e+06
9.45966e+06
6.42829e+06
3.17775e+07
1.53955e+07
1.51983e+07
2.3603e+07
866200
600455
1.79461e+07
9.61837e+06
1.27125e+07
46844.6
17677.9
1.07301e+07
7.97338e+06
1.68954e+07
442873
50411.6
237915
7.81236e+06
6.91885e+06
2.78957e+07
9.43763e+06
1.31333e+07
6611.43
1.92895e+07
2.88248e+06
24067.1
2.73775e+07
810395
3.29345e+07
1.2692e+07
6.32838e+06
2.69321e+07
543578
1.85247e+07
1.87214e+07
2.90937e+06
2.25863e+07
1.35124e+07
2.39696e+07
1.91447e+07
1.67864e+07
1.68758e+07
1.9586e+07
1.95138e+07
3.4644e+07
8.8685e+06
8.98951e+06
2.91635e+07
2.12947e+07
2.13455e+07
2.93106e+07
263758
86182.5
2.10522e+07
3.31466e+06
1.7989e+07
1.80119e+07
3.09786e+07
2.98347e+06
9.84103e+06
1.35285e+07
8.31737e+06
4.30341e+06
6.98321e+06
6445.78
3.37775e+06
1.01242e+07
6.76279e+06
1.48706e+06
9.17774e+06
2.20906e+07
3.00791e+07
1.18209e+07
1.41545e+07
7.4357e+06
2.99253e+07
3.00595e+07
890286
1.71757e+07
1.18281e+07
7.31114e+06
1.50967e+07
1.35192e+07
4.68901e+06
1.57849e+06
8540.91
3.06275e+07
1.5992e+07
2.47465e+07
2.15828e+07
1.46428e+07
1.43614e+07
5465.46
1373.54
1.43803e+07
1.18606e+07
1.53362e+07
2.11589e+07
19069.4
3.09191e+07
1.05555e+07
3.19429e+06
9.86917e+06
5.85175e+06
7.65374e+06
2.80816e+07
1.53175e+07
1.81427e+07
2.21356e+07
1.5741e+07
1.78952e+06
5.88774e+06
2.02811e+07
2.55067e+06
6.11471e+06
6.88401e+06
2.87893e+07
15652.7
232006
2.07927e+07
2.72041e+06
1.05546e+07
1.65786e+07
22787.4
3.88097e+06
3.1601e+07
2.26693e+07
7.36194e+06
5.2429e+06
9.72442e+06
1.29871e+06
2.52744e+06
1.23678e+07
2.86057e+07
3.38223e+06
3.24197e+07
3.26395e+07
83645.5
8955.79
6864.72
1.07883e+07
2.90085e+07
801011
5.51624e+06
5.34136e+06
1.02305e+07
6.56932e+06
4.93165e+06
382831
1.13396e+07
252968
9.14115e+06
9.29561e+06
1.10092e+07
1.79498e+07
3.16097e+06
2.01797e+07
2.70132e+06
1.8779e+06
1.70416e+07
1.00351e+07
1.14224e+07
1.9952e+07
4.9499e+06
1.10952e+07
9.43194e+06
8.70764e+06
52210.2
2.92337e+07
90448.5
418516
2.29323e+07
3.23767e+07
134602
1.33606e+07
1.40514e+07
9.8785e+06
3.68752e+06
7722.25
376899
20909.6
1.14601e+07
665875
6.66876e+06
8.19325e+06
3.38381e+06
1.68982e+07
48696.9
1.95334e+07
1.37688e+07
2.37242e+07
2.35885e+07
3.24978e+06
2.04516e+07
2.72708e+07
1.93515e+07
6.77598e+06
8.01801e+06
9285.06
2.03849e+07
1.71344e+07
6.68781e+06
1.13914e+07
2.1535e+07
2.04249e+07
3.01741e+07
1.03629e+07
2.75956e+07
1771.18
7.30016e+06
1.34232e+07
3826.1
128538
1.34402e+07
311990
9148.61
4.25295e+06
5.92447e+06
3.90893e+06
2.16516e+07
9.09654e+06
4.75336e+06
322759
1.50535e+07
2.05902e+07
1.32919e+07
1.86893e+07
2.45383e+07
3.34162e+06
5.95782e+06
5.51188e+06
1.02024e+07
6.05186e+06
5.63619e+06
8.49669e+06
1.02778e+07
1.03584e+07
1.91087e+07
4.8893e+06
2.83242e+07
3.36617e+07
5.05439e+06
1.55266e+07
1.31077e+07
968.518
2.74293e+06
3.54228e+06
2.79367e+06
4.18809e+06
1.09307e+06
158805
1.00714e+07
647048
3.83925e+06
3.76447e+07
225483
7.24375e+06
1.77971e+07
455074
381129
1344.47
242815
2.6645e+07
3.54305e+06
17137.5
4.28311e+06
3.59669e+06
579225
2.19361e+07
1.86416e+07
1.13342e+07
1.15085e+07
1.98886e+07
1.99965e+07
5.80058e+06
2.54111e+07
1.04187e+07
2.32385e+07
5.82978e+06
1.22579e+07
9.03091e+06
1.16242e+07
3.22268e+07
2.90254e+07
6.251e+06
1.6137e+06
3.32648e+06
2.95601e+07
5.10841e+06
1.39211e+07
1.40651e+07
2996.56
2.15272e+06
7.99997e+06
1.37952e+07