0 	31.937 	-0.0273816 	5.9891e-13
0.000254254 	31.937 	-0.0273874 	1.14823e-10
0.000508509 	31.937 	-0.0273932 	2.29048e-10
0.000762763 	31.9403 	-0.0275598 	-7.16374e-06
0.00101702 	31.9461 	-0.027848 	-1.97465e-05
0.00127127 	31.9518 	-0.0281362 	-3.23293e-05
0.00152553 	31.9576 	-0.0284244 	-2.09136e-05
0.00177978 	31.9634 	-0.0287126 	-8.34102e-06
0.00203403 	31.9711 	-0.0290311 	2.39043e-10
0.00228829 	31.9826 	-0.0294093 	1.24755e-10
0.00254254 	31.9942 	-0.0297876 	1.04669e-11
0.0027968 	32.0057 	-0.0295565 	1.03902e-10
0.00305105 	32.0173 	-0.029264 	2.18278e-10
0.00330531 	32.0302 	-0.0292122 	-4.31097e-06
0.00355956 	32.0443 	-0.0294163 	-1.32088e-05
0.00381381 	32.0585 	-0.0296205 	-2.21067e-05
0.00406807 	32.0727 	-0.0298247 	-1.56755e-05
0.00432232 	32.0869 	-0.0300289 	-6.79382e-06
0.00457658 	32.1017 	-0.0303176 	2.49551e-10
0.00483083 	32.1185 	-0.0308814 	1.35244e-10
0.00508509 	32.1353 	-0.0314451 	2.09362e-11
0.00533934 	32.1522 	-0.0313882 	9.41285e-11
0.00559359 	32.1691 	-0.0311922 	2.09363e-10
0.00584785 	32.1862 	-0.0312502 	-7.60635e-06
0.0061021 	32.2035 	-0.0316793 	-2.63216e-05
0.00635636 	32.2208 	-0.0321084 	-4.50368e-05
0.00661061 	32.238 	-0.0325375 	-3.49635e-05
0.00686486 	32.2553 	-0.0329666 	-1.63049e-05
0.00711912 	32.2726 	-0.0334382 	2.61861e-10
0.00737337 	32.2902 	-0.0342045 	1.46742e-10
0.00762763 	32.3078 	-0.0349707 	3.16238e-11
0.00788188 	32.3256 	-0.0350856 	8.36791e-11
0.00813614 	32.3434 	-0.0349538 	1.99052e-10
0.00839039 	32.3615 	-0.0350755 	-9.12545e-06
0.00864464 	32.3798 	-0.0356979 	-3.6281e-05
0.0088989 	32.3981 	-0.0363203 	-6.34366e-05
0.00915315 	32.4164 	-0.0369427 	-5.38256e-05
0.00940741 	32.4347 	-0.037565 	-2.67848e-05
0.00966166 	32.453 	-0.0381906 	2.72613e-10
0.00991592 	32.4717 	-0.0391492 	1.57403e-10
0.0101702 	32.4905 	-0.0401078 	4.21926e-11
0.0104244 	32.5095 	-0.0403833 	7.3689e-11
0.0106787 	32.5286 	-0.0402641 	1.89959e-10
0.0109329 	32.548 	-0.0403873 	-9.15893e-06
0.0111872 	32.5681 	-0.0411552 	-4.26624e-05
0.0114414 	32.5883 	-0.041923 	-7.61659e-05
0.0116957 	32.6084 	-0.0426909 	-7.04759e-05
0.0119499 	32.6286 	-0.0434587 	-3.71542e-05
0.0122042 	32.6487 	-0.0442266 	-3.83262e-06
0.0124585 	32.6698 	-0.0453224 	1.69178e-10
0.0127127 	32.691 	-0.0464609 	5.31194e-11
0.012967 	32.7124 	-0.0469007 	6.36055e-11
0.0132212 	32.734 	-0.0467508 	1.80893e-10
0.0134755 	32.756 	-0.0468244 	-8.31967e-06
0.0137297 	32.7791 	-0.0476975 	-4.64062e-05
0.013984 	32.8022 	-0.0485706 	-8.44928e-05
0.0142382 	32.8252 	-0.0494436 	-8.50273e-05
0.0144925 	32.8483 	-0.0503167 	-4.71931e-05
0.0147467 	32.8714 	-0.0511898 	-9.3588e-06
0.015001 	32.8956 	-0.0523898 	1.81288e-10
0.0152553 	32.9202 	-0.0536974 	6.42606e-11
0.0155095 	32.9449 	-0.0543197 	5.3059e-11
0.0157638 	32.9699 	-0.0541077 	1.70734e-10
0.016018 	32.9952 	-0.0540945 	-7.08694e-06
0.0162723 	33.0219 	-0.0550434 	-4.84623e-05
0.0165265 	33.0487 	-0.0559923 	-8.98376e-05
0.0167808 	33.0754 	-0.0569412 	-9.80168e-05
0.017035 	33.1021 	-0.0578901 	-5.69649e-05
0.0172893 	33.1288 	-0.058839 	-1.59129e-05
0.0175435 	33.1565 	-0.0601061 	1.92537e-10
0.0177978 	33.1849 	-0.0615746 	7.51688e-11
0.0180521 	33.2135 	-0.0624086 	4.24939e-11
0.0183063 	33.2424 	-0.0621126 	1.60681e-10
0.0185606 	33.2715 	-0.0619882 	-5.77902e-06
0.0188148 	33.3022 	-0.0629934 	-4.95775e-05
0.0190691 	33.3329 	-0.0639985 	-9.33759e-05
0.0193233 	33.3636 	-0.0650037 	-0.000110068
0.0195776 	33.3943 	-0.0660088 	-6.6664e-05
0.0198318 	33.4251 	-0.067014 	-2.32597e-05
0.0200861 	33.4566 	-0.0683067 	2.04052e-10
0.0203403 	33.4891 	-0.0699314 	8.62201e-11
0.0205946 	33.5218 	-0.0710145 	3.18767e-11
0.0208488 	33.5548 	-0.07062 	1.50697e-10
0.0211031 	33.588 	-0.0703706 	-4.59184e-06
0.0213574 	33.6229 	-0.0714203 	-5.02923e-05
0.0216116 	33.6579 	-0.0724701 	-9.59928e-05
0.0218659 	33.6928 	-0.0735198 	-0.000121783
0.0221201 	33.7278 	-0.0745695 	-7.65479e-05
0.0223744 	33.7627 	-0.0756193 	-3.13126e-05
0.0226286 	33.7982 	-0.0768936 	2.1586e-10
0.0228829 	33.8351 	-0.0786729 	9.74442e-11
0.0231371 	33.872 	-0.0800481 	2.11769e-11
0.0233914 	33.9093 	-0.0795453 	1.40754e-10
0.0236456 	33.9469 	-0.079165 	-3.64212e-06
0.0238999 	33.9862 	-0.0802535 	-5.09815e-05
0.0241542 	34.0256 	-0.0813421 	-9.8321e-05
0.0244084 	34.0649 	-0.0824306 	-0.0001337
0.0246627 	34.1043 	-0.0835191 	-8.68977e-05
0.0249169 	34.1437 	-0.0846077 	-4.00955e-05
0.0251712 	34.1833 	-0.0858176 	2.28e-10
0.0254254 	34.2246 	-0.0877533 	1.08877e-10
0.0256797 	34.266 	-0.089469 	1.03606e-11
0.0259339 	34.3079 	-0.0888466 	1.30811e-10
0.0261882 	34.3499 	-0.0883316 	-3.00474e-06
0.0264424 	34.3939 	-0.0894585 	-5.19506e-05
0.0266967 	34.4378 	-0.0905854 	-0.000100897
0.026951 	34.4818 	-0.0917123 	-0.000146424
0.0272052 	34.5258 	-0.0928393 	-9.80901e-05
0.0274595 	34.5697 	-0.0939662 	-4.97564e-05
0.0277137 	34.6137 	-0.0950931 	-1.42275e-06
0.027968 	34.6596 	-0.0971665 	1.20541e-10
0.0282222 	34.7056 	-0.0992687 	5.9476e-13
0.0284765 	34.7522 	-0.0985094 	1.20822e-10
0.0287307 	34.7989 	-0.0978406 	-2.72902e-06
0.028985 	34.8476 	-0.0990081 	-5.3355e-05
0.0292392 	34.8964 	-0.100176 	-0.000103981
0.0294935 	34.9451 	-0.101343 	-0.000154607
0.0297477 	34.9939 	-0.102511 	-0.000110381
0.030002 	35.0426 	-0.103678 	-6.04467e-05
0.0302563 	35.0913 	-0.104846 	-1.05121e-05
0.0305105 	35.1418 	-0.106909 	1.3245e-10
0.0307648 	35.1926 	-0.109211 	1.15813e-11
0.031019 	35.244 	-0.108535 	1.11325e-10
0.0312733 	35.2956 	-0.107665 	-2.85212e-06
0.0315275 	35.3493 	-0.108873 	-5.51269e-05
0.0317818 	35.403 	-0.110081 	-0.000107402
0.032036 	35.4567 	-0.11129 	-0.000159676
0.0322903 	35.5104 	-0.112498 	-0.000123606
0.0325445 	35.5641 	-0.113706 	-7.21044e-05
0.0327988 	35.6178 	-0.114915 	-2.0603e-05
0.0330531 	35.6728 	-0.116938 	1.45368e-10
0.0333073 	35.7287 	-0.119504 	2.2855e-11
0.0335616 	35.7851 	-0.118974 	1.00524e-10
0.0338158 	35.8418 	-0.117891 	-3.412e-06
0.0340701 	35.9006 	-0.119138 	-5.72033e-05
0.0343243 	35.9594 	-0.120385 	-0.000110995
0.0345786 	36.0183 	-0.121632 	-0.000164786
0.0348328 	36.0771 	-0.122879 	-0.000137532
0.0350871 	36.136 	-0.124126 	-8.45971e-05
0.0353413 	36.1948 	-0.125373 	-3.1662e-05
0.0355956 	36.2546 	-0.127268 	1.56986e-10
0.0358498 	36.3157 	-0.130127 	3.40673e-11
0.0361041 	36.3773 	-0.129832 	9.07402e-11
0.0363584 	36.4393 	-0.128553 	-4.44696e-06
0.0366126 	36.5035 	-0.129836 	-5.96233e-05
0.0368669 	36.5676 	-0.131119 	-0.0001148
0.0371211 	36.6318 	-0.132402 	-0.000169976
0.0373754 	36.696 	-0.133685 	-0.000152127
0.0376296 	36.7602 	-0.134968 	-9.78899e-05
0.0378839 	36.8244 	-0.136251 	-4.36529e-05
0.0381381 	36.8891 	-0.137901 	1.70699e-10
0.0383924 	36.9556 	-0.141062 	4.58835e-11
0.0386466 	37.0226 	-0.141116 	8.06097e-11
0.0389009 	37.0901 	-0.139689 	-5.99364e-06
0.0391552 	37.1598 	-0.141006 	-6.24651e-05
0.0394094 	37.2296 	-0.142323 	-0.000118937
0.0396637 	37.2993 	-0.143641 	-0.000175408
0.0399179 	37.369 	-0.144958 	-0.000167473
0.0401722 	37.4388 	-0.146276 	-0.000112025
0.0404264 	37.5085 	-0.147593 	-5.65763e-05
0.0406807 	37.5783 	-0.14891 	-1.12782e-06
0.0409349 	37.6504 	-0.152313 	5.80167e-11
0.0411892 	37.7229 	-0.15281 	7.01732e-11
0.0414434 	37.7962 	-0.151284 	-8.0897e-06
0.0416977 	37.8717 	-0.152636 	-6.58258e-05
0.041952 	37.9472 	-0.153987 	-0.000123562
0.0422062 	38.0227 	-0.155338 	-0.000181298
0.0424605 	38.0982 	-0.156689 	-0.000183742
0.0427147 	38.1737 	-0.158041 	-0.000127113
0.042969 	38.2492 	-0.159392 	-7.04847e-05
0.0432232 	38.3247 	-0.160743 	-1.38562e-05
0.0434775 	38.4022 	-0.163886 	7.04981e-11
0.0437317 	38.4805 	-0.164917 	5.9254e-11
0.043986 	38.5598 	-0.163344 	-1.07702e-05
0.0442402 	38.6413 	-0.164729 	-6.97528e-05
0.0444945 	38.7228 	-0.166114 	-0.000128735
0.0447487 	38.8043 	-0.167499 	-0.000187718
0.045003 	38.8858 	-0.168884 	-0.000200989
0.0452573 	38.9673 	-0.170269 	-0.0001432
0.0455115 	39.0488 	-0.171654 	-8.54101e-05
0.0457658 	39.1303 	-0.173039 	-2.76205e-05
0.04602 	39.2132 	-0.175787 	8.31061e-11
0.0462743 	39.2976 	-0.177442 	4.78024e-11
0.0465285 	39.3832 	-0.17588 	-1.4059e-05
0.0467828 	39.4709 	-0.177298 	-7.42277e-05
0.047037 	39.5586 	-0.178715 	-0.000134396
0.0472913 	39.6464 	-0.180133 	-0.000194565
0.0475455 	39.7341 	-0.181551 	-0.000219085
0.0477998 	39.8218 	-0.182969 	-0.000160194
0.0480541 	39.9095 	-0.184386 	-0.000101304
0.0483083 	39.9973 	-0.185804 	-4.24134e-05
0.0485626 	40.0858 	-0.188019 	9.54795e-11
0.0488168 	40.1764 	-0.190386 	3.62089e-11
0.0490711 	40.2686 	-0.188896 	-1.79646e-05
0.0493253 	40.3628 	-0.190344 	-7.92076e-05
0.0495796 	40.457 	-0.191792 	-0.000140451
0.0498338 	40.5512 	-0.19324 	-0.000201694
0.0500881 	40.6454 	-0.194689 	-0.00023782
0.0503423 	40.7396 	-0.196137 	-0.000177939
0.0505966 	40.8338 	-0.197585 	-0.000118057
0.0508509 	40.928 	-0.199033 	-5.81758e-05
0.0511051 	41.0223 	-0.200569 	1.08035e-10
0.0513594 	41.1195 	-0.203738 	2.46202e-11
0.0516136 	41.2185 	-0.202386 	-2.24778e-05
0.0518679 	41.3194 	-0.203861 	-8.46322e-05
0.0521221 	41.4204 	-0.205336 	-0.000146787
0.0523764 	41.5213 	-0.206812 	-0.000208941
0.0526306 	41.6222 	-0.208287 	-0.000256933
0.0528849 	41.7232 	-0.209762 	-0.000196219
0.0531391 	41.8241 	-0.211238 	-0.000135506
0.0533934 	41.9251 	-0.212713 	-7.47922e-05
0.0536476 	42.026 	-0.214188 	-1.40788e-05
0.0539019 	42.1292 	-0.217475 	1.26555e-11
0.0541562 	42.2354 	-0.216333 	-2.75624e-05
0.0544104 	42.3433 	-0.217831 	-9.04046e-05
0.0546647 	42.4513 	-0.219328 	-0.000153247
0.0549189 	42.5592 	-0.220826 	-0.000216089
0.0551732 	42.6671 	-0.222324 	-0.000276057
0.0554274 	42.775 	-0.223821 	-0.000214729
0.0556817 	42.883 	-0.225319 	-0.000153401
0.0559359 	42.9909 	-0.226817 	-9.20728e-05
0.0561902 	43.0988 	-0.228314 	-3.07448e-05
0.0564444 	43.2082 	-0.231563 	4.64775e-13
0.0566987 	43.3218 	-0.230708 	-3.3141e-05
0.056953 	43.437 	-0.232221 	-9.63673e-05
0.0572072 	43.5522 	-0.233735 	-0.000159594
0.0574615 	43.6673 	-0.235248 	-0.00022282
0.0577157 	43.7825 	-0.236762 	-0.000286046
0.05797 	43.8977 	-0.238275 	-0.000233014
0.0582242 	44.0128 	-0.239789 	-0.000171366
0.0584785 	44.128 	-0.241302 	-0.000109718
0.0587327 	44.2432 	-0.242816 	-4.80702e-05
0.058987 	44.359 	-0.245171 	1.17923e-11
0.0592412 	44.4803 	-0.245464 	-3.91661e-05
0.0594955 	44.603 	-0.246988 	-0.000102513
0.0597497 	44.7256 	-0.248512 	-0.000165859
0.060004 	44.8483 	-0.250036 	-0.000229206
0.0602583 	44.9709 	-0.25156 	-0.000292553
0.0605125 	45.0936 	-0.253083 	-0.000250995
0.0607668 	45.2163 	-0.254607 	-0.000189281
0.061021 	45.3389 	-0.256131 	-0.000127567
0.0612753 	45.4616 	-0.257655 	-6.58537e-05
0.0615295 	45.5842 	-0.259179 	-4.14004e-06
0.0617838 	45.7133 	-0.260569 	-4.55551e-05
0.062038 	45.8436 	-0.262097 	-0.000108752
0.0622923 	45.974 	-0.263625 	-0.000171949
0.0625465 	46.1044 	-0.265154 	-0.000235147
0.0628008 	46.2348 	-0.266682 	-0.000298344
0.0630551 	46.3651 	-0.268114 	-0.000267337
0.0633093 	46.4954 	-0.269462 	-0.000203781
0.0635636 	46.6257 	-0.270809 	-0.000140226
0.0638178 	46.756 	-0.272157 	-7.6671e-05
0.0640721 	46.8862 	-0.273505 	-1.31157e-05
0.0643263 	47.0224 	-0.274917 	-4.10274e-05
0.0645806 	47.1606 	-0.276247 	-0.000101653
0.0648348 	47.2988 	-0.277578 	-0.000162278
0.0650891 	47.437 	-0.278908 	-0.000222903
0.0653433 	47.5753 	-0.280239 	-0.000283528
0.0655976 	47.7135 	-0.281569 	-0.000262775
0.0658519 	47.8517 	-0.2829 	-0.000199761
0.0661061 	47.9899 	-0.28423 	-0.000136747
0.0663604 	48.1281 	-0.285561 	-7.37329e-05
0.0666146 	48.2664 	-0.286891 	-1.0719e-05
0.0668689 	48.4099 	-0.288463 	-2.7962e-05
0.0671231 	48.5563 	-0.289797 	-8.88867e-05
0.0673774 	48.7027 	-0.29113 	-0.000149811
0.0676316 	48.8491 	-0.292464 	-0.000210736
0.0678859 	48.9955 	-0.293798 	-0.000271661
0.0681401 	49.1419 	-0.295132 	-0.000261712
0.0683944 	49.2883 	-0.296465 	-0.00019833
0.0686486 	49.4347 	-0.297799 	-0.000134948
0.0689029 	49.5811 	-0.299133 	-7.15661e-05
0.0691572 	49.7275 	-0.300467 	-8.18429e-06
0.0694114 	49.8786 	-0.30226 	-1.44638e-05
0.0696657 	50.0334 	-0.303598 	-7.56516e-05
0.0699199 	50.1883 	-0.304936 	-0.000136839
0.0701742 	50.3431 	-0.306275 	-0.000198027
0.0704284 	50.498 	-0.307613 	-0.000259215
0.0706827 	50.6529 	-0.308951 	-0.000260151
0.0709369 	50.8077 	-0.310289 	-0.000196446
0.0711912 	50.9626 	-0.311627 	-0.000132741
0.0714454 	51.1174 	-0.312965 	-6.90357e-05
0.0716997 	51.2723 	-0.314303 	-5.33064e-06
0.071954 	51.4312 	-0.316356 	-5.35268e-07
0.0722082 	51.5947 	-0.317617 	-5.8355e-05
0.0724625 	51.7583 	-0.318878 	-0.000116175
0.0727167 	51.9218 	-0.320139 	-0.000173994
0.072971 	52.0853 	-0.3214 	-0.000231814
0.0732252 	52.2489 	-0.322661 	-0.000243001
0.0734795 	52.4124 	-0.323923 	-0.000182764
0.0737337 	52.5759 	-0.325184 	-0.000122526
0.073988 	52.7395 	-0.326445 	-6.22891e-05
0.0742422 	52.903 	-0.327706 	-2.05192e-06
0.0744965 	53.0706 	-0.329791 	6.36964e-05
0.0747508 	53.2421 	-0.331185 	-4.33956e-05
0.075005 	53.4144 	-0.332403 	-9.91811e-05
0.0752593 	53.5866 	-0.33362 	-0.000154967
0.0755135 	53.7589 	-0.334837 	-0.000210752
0.0757678 	53.9311 	-0.336054 	-0.000231463
0.076022 	54.1034 	-0.337272 	-0.000173317
0.0762763 	54.2757 	-0.338489 	-0.00011517
0.0765305 	54.4479 	-0.339706 	-5.70228e-05
0.0767848 	54.6203 	-0.340927 	6.03173e-06
0.077039 	54.7966 	-0.342789 	0.00013823
0.0772933 	54.9759 	-0.344801 	-2.98187e-05
0.0775475 	55.1568 	-0.346007 	-8.47626e-05
0.0778018 	55.3378 	-0.347212 	-0.000139707
0.0780561 	55.5187 	-0.348418 	-0.00019465
0.0783103 	55.6996 	-0.349623 	-0.000224799
0.0785646 	55.8806 	-0.350829 	-0.00016751
0.0788188 	56.0615 	-0.352035 	-0.000110221
0.0790731 	56.2424 	-0.35324 	-5.2932e-05
0.0793273 	56.4236 	-0.354375 	2.53169e-05
0.0795816 	56.6084 	-0.3554 	0.000224368
0.0798358 	56.7955 	-0.358497 	-1.51199e-05
0.0800901 	56.985 	-0.35959 	-6.48279e-05
0.0803443 	57.1745 	-0.360682 	-0.000114536
0.0805986 	57.364 	-0.361775 	-0.000164244
0.0808529 	57.5535 	-0.362868 	-0.000200324
0.0811071 	57.743 	-0.36396 	-0.000148486
0.0813614 	57.9324 	-0.365053 	-9.66489e-05
0.0816156 	58.1219 	-0.366146 	-4.48114e-05
0.0818699 	58.3119 	-0.366943 	4.77225e-05
0.0821241 	58.505 	-0.366557 	0.000319581
0.0823784 	58.6998 	-0.37126 	-2.74026e-06
0.0826326 	58.8976 	-0.37222 	-4.63256e-05
0.0828869 	59.0954 	-0.37318 	-8.99108e-05
0.0831411 	59.2933 	-0.37414 	-0.000133496
0.0833954 	59.4911 	-0.3751 	-0.000172841
0.0836496 	59.6889 	-0.37606 	-0.000127391
0.0839039 	59.8867 	-0.37702 	-8.19402e-05
0.0841582 	60.0846 	-0.37798 	-3.64898e-05
0.0844124 	60.2831 	-0.378261 	7.28901e-05
0.0846667 	60.4844 	-0.376005 	0.000422775
0.0849209 	60.687 	-0.381854 	6.46424e-05
0.0851752 	60.8923 	-0.383572 	-3.00229e-05
0.0854294 	61.0982 	-0.38438 	-6.66586e-05
0.0856837 	61.3041 	-0.385188 	-0.000103294
0.0859379 	61.5099 	-0.385995 	-0.00013993
0.0861922 	61.7158 	-0.386803 	-0.000104645
0.0864464 	61.9217 	-0.387611 	-6.64517e-05
0.0867007 	62.1276 	-0.388419 	-2.82582e-05
0.086955 	62.3343 	-0.388014 	0.000100334
0.0872092 	62.5436 	-0.384163 	0.000486047
0.0874635 	62.754 	-0.389961 	0.000158885
0.0877177 	62.9662 	-0.393015 	-1.46961e-05
0.087972 	63.1797 	-0.393572 	-4.02605e-05
0.0882262 	63.3933 	-0.39413 	-6.5825e-05
0.0884805 	63.6068 	-0.394687 	-9.13894e-05
0.0887347 	63.8204 	-0.395245 	-7.12943e-05
0.088989 	64.0339 	-0.395802 	-4.46562e-05
0.0892432 	64.2474 	-0.39636 	-1.8018e-05
0.0894975 	64.4621 	-0.395099 	0.000127466
0.0897518 	64.6789 	-0.390038 	0.000521372
0.090006 	64.8965 	-0.39494 	0.000255874
0.0902603 	65.1153 	-0.399494 	-4.3421e-06
0.0905145 	65.336 	-0.399768 	-1.7504e-05
0.0907688 	65.5567 	-0.400043 	-3.06659e-05
0.091023 	65.7773 	-0.400317 	-4.38277e-05
0.0912773 	65.998 	-0.400592 	-3.58152e-05
0.0915315 	66.2187 	-0.400866 	-2.21108e-05
0.0917858 	66.4394 	-0.401141 	-8.40649e-06
0.09204 	66.6613 	-0.398983 	0.000152511
0.0922943 	66.885 	-0.392965 	0.000547034
0.0925485 	67.1093 	-0.39667 	0.000349913
0.0928028 	67.334 	-0.402849 	-2.36295e-07
0.0930571 	67.5611 	-0.402887 	-2.99594e-06
0.0933113 	67.7881 	-0.402925 	-5.75559e-06
0.0935656 	68.0151 	-0.402963 	-8.51524e-06
0.0938198 	68.2422 	-0.403001 	-7.32535e-06
0.0940741 	68.4692 	-0.403039 	-4.45491e-06
0.0943283 	68.6962 	-0.403077 	-1.58447e-06
0.0945826 	68.9245 	-0.400039 	0.000176412
0.0948368 	69.1542 	-0.39321 	0.000570245
0.0950911 	69.3843 	-0.395511 	0.000442257
0.0953453 	69.6146 	-0.402262 	5.98806e-05
0.0955996 	69.8466 	-0.403113 	8.1081e-06
0.0958539 	70.0789 	-0.402868 	1.77215e-05
0.0961081 	70.3111 	-0.402624 	2.73348e-05
0.0963624 	70.5434 	-0.402379 	2.4901e-05
0.0966166 	70.7757 	-0.402135 	1.49149e-05
0.0968709 	71.008 	-0.40189 	4.92872e-06
0.0971251 	71.2414 	-0.397872 	0.000198741
0.0973794 	71.4758 	-0.390178 	0.000591148
0.0976336 	71.7105 	-0.390806 	0.000532325
0.0978879 	71.9454 	-0.397384 	0.000150908
0.0981421 	72.181 	-0.399611 	1.57091e-05
0.0983964 	72.4171 	-0.39899 	4.17021e-05
0.0986507 	72.6532 	-0.39837 	6.76951e-05
0.0989049 	72.8893 	-0.397749 	6.57544e-05
0.0991592 	73.1254 	-0.397129 	3.87969e-05
0.0994134 	73.3615 	-0.396508 	1.18395e-05
0.0996677 	73.5984 	-0.391431 	0.000216198
0.0999219 	73.836 	-0.382863 	0.000601703
0.100176 	74.0737 	-0.381649 	0.00061161
0.10043 	74.3115 	-0.387977 	0.000236397
0.100685 	74.5494 	-0.391584 	1.62017e-05
0.100939 	74.7875 	-0.390556 	5.99933e-05
0.101193 	75.0256 	-0.389528 	0.000103785
0.101447 	75.2638 	-0.3885 	0.000108357
0.101702 	75.5019 	-0.387472 	6.30279e-05
0.101956 	75.74 	-0.386444 	1.76989e-05
0.10221 	75.9785 	-0.380326 	0.000225207
0.102464 	76.2171 	-0.37095 	0.000594669
0.102719 	76.4558 	-0.367845 	0.000669277
0.102973 	76.6945 	-0.373989 	0.000309107
0.103227 	76.9331 	-0.379074 	8.07537e-06
0.103481 	77.1711 	-0.377748 	6.50327e-05
0.103736 	77.4091 	-0.376421 	0.00012199
0.10399 	77.6471 	-0.375095 	0.000138171
0.104244 	77.8851 	-0.373769 	7.93464e-05
0.104498 	78.1231 	-0.372443 	2.05216e-05
0.104753 	78.3607 	-0.365397 	0.000229989
0.105007 	78.5981 	-0.355287 	0.000583196
0.105261 	78.8356 	-0.350291 	0.000717033
0.105516 	79.0729 	-0.356457 	0.00037208
0.10577 	79.3103 	-0.362623 	2.71267e-05
0.106024 	79.5459 	-0.361549 	6.74089e-05
0.106278 	79.7813 	-0.359857 	0.000140571
0.106533 	80.0168 	-0.358165 	0.00017455
0.106787 	80.2522 	-0.356472 	9.9182e-05
0.107041 	80.4877 	-0.35478 	2.38144e-05
0.107295 	80.7219 	-0.346633 	0.00022636
0.10755 	80.9556 	-0.335503 	0.000557281
0.107804 	81.1892 	-0.32821 	0.000741519
0.108058 	81.4227 	-0.334207 	0.000417662
0.108312 	81.6562 	-0.340203 	9.38041e-05
0.108567 	81.8874 	-0.340476 	6.35482e-05
0.108821 	82.1177 	-0.338415 	0.000153008
0.109075 	82.348 	-0.336354 	0.000210746
0.109329 	82.5784 	-0.334293 	0.000118854
0.109584 	82.8087 	-0.332232 	2.69611e-05
0.109838 	83.0368 	-0.323206 	0.000212508
0.110092 	83.2641 	-0.311289 	0.000513253
0.110346 	83.4913 	-0.30178 	0.000734447
0.110601 	83.7182 	-0.307895 	0.000439444
0.110855 	83.9451 	-0.31401 	0.000144442
0.111109 	84.1696 	-0.315822 	5.14818e-05
0.111363 	84.392 	-0.313507 	0.000152352
0.111618 	84.6143 	-0.311192 	0.000235772
0.111872 	84.8366 	-0.308876 	0.000132485
0.112126 	85.059 	-0.306561 	2.91986e-05
0.11238 	85.2781 	-0.296677 	0.000195833
0.112635 	85.496 	-0.283809 	0.000468843
0.112889 	85.7139 	-0.271756 	0.000718705
0.113143 	85.9313 	-0.277946 	0.000450233
0.113397 	86.1487 	-0.284137 	0.000181761
0.113652 	86.3641 	-0.287458 	3.79546e-05
0.113906 	86.5754 	-0.284767 	0.000155467
0.11416 	86.7867 	-0.282076 	0.00027298
0.114414 	86.9979 	-0.279385 	0.000154134
0.114669 	87.2092 	-0.276693 	3.42197e-05
0.114923 	87.4162 	-0.26592 	0.000172289
0.115177 	87.6215 	-0.251918 	0.000413376
0.115431 	87.8268 	-0.237917 	0.000654462
0.115686 	88.0314 	-0.243286 	0.000439873
0.11594 	88.236 	-0.249639 	0.000202149
0.116194 	88.4395 	-0.254588 	1.98156e-05
0.116448 	88.6364 	-0.25156 	0.00015223
0.116703 	88.8332 	-0.248532 	0.000284644
0.116957 	89.0301 	-0.245504 	0.000175389
0.117211 	89.227 	-0.242476 	4.0764e-05
0.117465 	89.4185 	-0.230945 	0.000146859
0.11772 	89.6078 	-0.215721 	0.000357497
0.117974 	89.7971 	-0.200498 	0.000568136
0.118228 	89.9855 	-0.204036 	0.000418336
0.118482 	90.1739 	-0.21062 	0.000210035
0.118737 	90.3622 	-0.217204 	1.73467e-06
0.118991 	90.5413 	-0.214054 	0.000140255
0.119245 	90.7203 	-0.210822 	0.000281688
0.119499 	90.8993 	-0.20759 	0.000191391
0.119754 	91.0783 	-0.204358 	4.81553e-05
0.120008 	91.2512 	-0.1925 	0.000124422
0.120262 	91.421 	-0.176273 	0.000311859
0.120517 	91.5907 	-0.160045 	0.000499295
0.120771 	91.7596 	-0.161632 	0.000399695
0.121025 	91.9283 	-0.168575 	0.000213776
0.121279 	92.0969 	-0.175518 	2.78577e-05
0.121534 	92.2563 	-0.173706 	0.000124792
0.121788 	92.414 	-0.170352 	0.000271578
0.122042 	92.5718 	-0.166997 	0.000205288
0.122296 	92.7295 	-0.163643 	5.72318e-05
0.122551 	92.8807 	-0.151934 	0.000101785
0.122805 	93.0276 	-0.134961 	0.000267707
0.123059 	93.1745 	-0.117988 	0.000433629
0.123313 	93.3206 	-0.117524 	0.000375435
0.123568 	93.4663 	-0.124935 	0.000210343
0.123822 	93.612 	-0.132346 	4.52509e-05
0.124076 	93.7488 	-0.131969 	0.00010533
0.12433 	93.8823 	-0.12865 	0.000250432
0.124585 	94.0158 	-0.125332 	0.000211995
0.124839 	94.1493 	-0.122014 	6.62384e-05
0.125093 	94.2762 	-0.111041 	8.02155e-05
0.125347 	94.3975 	-0.0936907 	0.000227249
0.125602 	94.5188 	-0.0763405 	0.000374282
0.125856 	94.6394 	-0.0738726 	0.000349411
0.12611 	94.7595 	-0.0819544 	0.00020268
0.126364 	94.8795 	-0.0900362 	5.59482e-05
0.126619 	94.9914 	-0.0912008 	8.37293e-05
0.126873 	95.0984 	-0.0881026 	0.000219058
0.127127 	95.2053 	-0.0850044 	0.000208391
0.127381 	95.3123 	-0.0819061 	7.2945e-05
0.127636 	95.4132 	-0.0721932 	6.1791e-05
0.12789 	95.5071 	-0.0547603 	0.000195697
0.128144 	95.6009 	-0.0373274 	0.000329602
0.128398 	95.6941 	-0.0328753 	0.00033141
0.128653 	95.7867 	-0.0417612 	0.000197485
0.128907 	95.8793 	-0.0506472 	6.35594e-05
0.129161 	95.9649 	-0.0534093 	6.34734e-05
0.129415 	96.044 	-0.0506401 	0.000184279
0.12967 	96.1232 	-0.0478708 	0.000197095
0.129924 	96.2023 	-0.0451015 	7.64423e-05
0.130178 	96.2765 	-0.0370171 	4.56075e-05
0.130432 	96.3422 	-0.0197424 	0.000170071
0.130687 	96.4079 	-0.00246777 	0.000294534
0.130941 	96.4731 	0.00396394 	0.000319047
0.131195 	96.5376 	-0.00578652 	0.000194395
0.131449 	96.6021 	-0.015537 	6.97421e-05
0.131704 	96.6608 	-0.0199468 	4.55295e-05
0.131958 	96.7121 	-0.0175735 	0.000148885
0.132212 	96.7634 	-0.0152002 	0.000178902
0.132466 	96.8147 	-0.012827 	7.58289e-05
0.132721 	96.8624 	-0.00660143 	3.10513e-05
0.132975 	96.9004 	0.0103458 	0.000148525
0.133229 	96.9383 	0.0272931 	0.000265998
0.133483 	96.976 	0.0357378 	0.000310728
0.133738 	97.013 	0.0251873 	0.000192948
0.133992 	97.05 	0.0146369 	7.51676e-05
0.134246 	97.0824 	0.00862119 	3.11628e-05
0.134501 	97.1067 	0.0106043 	0.000117294
0.134755 	97.1311 	0.0125874 	0.000158159
0.135009 	97.1554 	0.0145706 	7.23821e-05
0.135263 	97.1778 	0.0188197 	1.70852e-05
0.135518 	97.1894 	0.0353135 	0.000126487
0.135772 	97.201 	0.0518072 	0.000235888
0.136026 	97.2125 	0.0622547 	0.000297677
0.13628 	97.2234 	0.0509121 	0.000187876
0.136535 	97.2343 	0.0395695 	7.80739e-05
0.136789 	97.2418 	0.0319764 	2.04118e-05
0.137043 	97.2409 	0.0336098 	9.10498e-05
0.137297 	97.24 	0.0352432 	0.000137543
0.137552 	97.2391 	0.0368766 	6.72899e-05
0.137806 	97.2377 	0.0391227 	4.23094e-06
0.13806 	97.2249 	0.0552819 	0.000104532
0.138314 	97.2121 	0.0714411 	0.000204833
0.138569 	97.1993 	0.0840776 	0.000279959
0.138823 	97.186 	0.0721009 	0.000179188
0.139077 	97.1727 	0.0601241 	7.8418e-05
0.139331 	97.157 	0.0511032 	1.28592e-05
0.139586 	97.1329 	0.052452 	7.08297e-05
0.13984 	97.1087 	0.0538009 	0.000119617
0.140094 	97.0846 	0.0551497 	6.20386e-05
0.140348 	97.0605 	0.0564986 	4.46014e-06
0.140603 	97.0264 	0.071322 	8.66175e-05
0.140857 	96.9914 	0.0872767 	0.000180507
0.141111 	96.9564 	0.102289 	0.000268142
0.141365 	96.921 	0.0898809 	0.00017372
0.14162 	96.8857 	0.0774724 	7.92983e-05
0.141874 	96.8487 	0.0672417 	8.12355e-06
0.142128 	96.8035 	0.0684298 	5.88382e-05
0.142382 	96.7583 	0.0696179 	0.000109553
0.142637 	96.7131 	0.070806 	6.0496e-05
0.142891 	96.6679 	0.0719941 	1.01881e-05
0.143145 	96.6149 	0.0849092 	7.05025e-05
0.143399 	96.56 	0.100802 	0.000158907
0.143654 	96.505 	0.116695 	0.000247312
0.143908 	96.4497 	0.10571 	0.000168746
0.144162 	96.3944 	0.0930469 	7.97552e-05
0.144416 	96.3382 	0.0818128 	4.8681e-06
0.144671 	96.2741 	0.0829188 	5.17719e-05
0.144925 	96.21 	0.0840247 	9.86757e-05
0.145179 	96.1459 	0.0851307 	6.19328e-05
0.145433 	96.0818 	0.0862366 	1.54617e-05
0.145688 	96.0118 	0.0972014 	5.54074e-05
0.145942 	95.9389 	0.113082 	0.00013844
0.146196 	95.8661 	0.128962 	0.000221473
0.14645 	95.793 	0.120439 	0.000162937
0.146705 	95.7199 	0.107585 	7.92787e-05
0.146959 	95.6463 	0.0954586 	2.31608e-06
0.147213 	95.5653 	0.0965083 	4.65471e-05
0.147467 	95.4844 	0.097558 	9.07781e-05
0.147722 	95.4034 	0.0986078 	6.42475e-05
0.147976 	95.3224 	0.0996575 	2.0475e-05
0.14823 	95.2372 	0.108607 	4.15373e-05
0.148484 	95.1484 	0.124499 	0.000119578
0.148739 	95.0596 	0.14039 	0.000197619
0.148993 	94.9706 	0.134399 	0.000156953
0.149247 	94.8816 	0.121397 	7.82569e-05
0.149502 	94.7926 	0.108473 	2.34994e-07
0.149756 	94.6966 	0.109478 	4.22879e-05
0.15001 	94.6006 	0.110482 	8.43409e-05
0.150264 	94.5047 	0.111487 	6.6819e-05
0.150519 	94.4087 	0.112492 	2.52471e-05
0.150773 	94.31 	0.119337 	2.85111e-05
0.151027 	94.2071 	0.135213 	0.000101114
0.151281 	94.1041 	0.151089 	0.000173717
0.151536 	94.0011 	0.147642 	0.000149245
0.15179 	93.8981 	0.134482 	7.5974e-05
0.152044 	93.7951 	0.121321 	2.70312e-06
0.152298 	93.6861 	0.121741 	3.75972e-05
0.152553 	93.577 	0.122682 	7.66341e-05
0.152807 	93.4678 	0.123622 	6.75038e-05
0.153061 	93.3587 	0.124563 	2.89525e-05
0.153315 	93.248 	0.129206 	1.66122e-05
0.15357 	93.1327 	0.145019 	8.3328e-05
0.153824 	93.0175 	0.160832 	0.000150044
0.154078 	92.9022 	0.159916 	0.00013984
0.154332 	92.7869 	0.146564 	7.24609e-05
0.154587 	92.6717 	0.133212 	5.08147e-06
0.154841 	92.5515 	0.132989 	3.21791e-05
0.155095 	92.431 	0.133837 	6.69825e-05
0.155349 	92.3105 	0.134686 	6.51907e-05
0.155604 	92.19 	0.135534 	3.08524e-05
0.155858 	92.0689 	0.137891 	6.17388e-06
0.156112 	91.9432 	0.153597 	6.69816e-05
0.156366 	91.8174 	0.169304 	0.000127789
0.156621 	91.6917 	0.170905 	0.000129692
0.156875 	91.566 	0.157334 	6.82375e-05
0.157129 	91.4403 	0.143762 	6.78308e-06
0.157383 	91.3107 	0.142918 	2.63672e-05
0.157638 	91.1807 	0.143653 	5.60052e-05
0.157892 	91.0506 	0.144388 	5.98752e-05
0.158146 	90.9206 	0.145123 	3.06582e-05
0.1584 	90.7906 	0.145858 	1.44116e-06
0.158655 	90.6564 	0.160698 	5.25566e-05
0.158909 	90.522 	0.176269 	0.000107839
0.159163 	90.3877 	0.180385 	0.000119758
0.159417 	90.2534 	0.166585 	6.38526e-05
0.159672 	90.1192 	0.152784 	7.94758e-06
0.159926 	89.982 	0.151347 	2.06268e-05
0.16018 	89.8443 	0.151958 	4.46714e-05
0.160434 	89.7066 	0.15257 	5.2181e-05
0.160689 	89.5689 	0.153181 	2.84962e-05
0.160943 	89.4313 	0.153793 	4.81135e-06
0.161197 	89.2909 	0.166207 	4.01557e-05
0.161451 	89.1498 	0.18163 	9.05469e-05
0.161706 	89.0087 	0.188271 	0.000110701
0.16196 	88.8678 	0.174249 	5.97144e-05
0.162214 	88.7269 	0.160227 	8.72757e-06
0.162468 	88.5839 	0.158231 	1.53111e-05
0.162723 	88.4405 	0.15872 	3.37839e-05
0.162977 	88.297 	0.159208 	4.29054e-05
0.163231 	88.1536 	0.159696 	2.47215e-05
0.163485 	88.0102 	0.160185 	6.5375e-06
0.16374 	87.8651 	0.17014 	2.95996e-05
0.163994 	87.7192 	0.185409 	7.58126e-05
0.164248 	87.5732 	0.194587 	0.000102818
0.164503 	87.4275 	0.180366 	5.60358e-05
0.164757 	87.2818 	0.166144 	9.25377e-06
0.165011 	87.1348 	0.163628 	1.05731e-05
0.165265 	86.9874 	0.163999 	2.3753e-05
0.16552 	86.8401 	0.16437 	3.26493e-05
0.165774 	86.6927 	0.164742 	1.96832e-05
0.166028 	86.5453 	0.165113 	6.71718e-06
0.166282 	86.3972 	0.172589 	2.05784e-05
0.166537 	86.2481 	0.187702 	6.32749e-05
0.166791 	86.0991 	0.199425 	9.60998e-05
0.167045 	85.9503 	0.185032 	5.28595e-05
0.167299 	85.8016 	0.170638 	9.61912e-06
0.167554 	85.6522 	0.167639 	6.39944e-06
0.167808 	85.5025 	0.1679 	1.46294e-05
0.168062 	85.3529 	0.168162 	2.16742e-05
0.168316 	85.2033 	0.168423 	1.35818e-05
0.168571 	85.0537 	0.168684 	5.48951e-06
0.168825 	84.9037 	0.17367 	1.27751e-05
0.169079 	84.7532 	0.18862 	5.24887e-05
0.169333 	84.6027 	0.202885 	9.03455e-05
0.169588 	84.4525 	0.18835 	5.01117e-05
0.169842 	84.3023 	0.173816 	9.87801e-06
0.170096 	84.152 	0.170368 	2.76588e-06
0.17035 	84.0016 	0.170528 	6.43141e-06
0.170605 	83.8512 	0.170687 	1.00969e-05
0.170859 	83.7009 	0.170847 	6.62921e-06
0.171113 	83.5505 	0.171007 	3.02648e-06
0.171367 	83.4001 	0.173506 	5.94407e-06
0.171622 	83.2495 	0.188285 	4.30883e-05
0.171876 	83.0988 	0.203065 	8.02325e-05
0.17213 	82.9486 	0.190439 	4.77053e-05
0.172384 	82.7984 	0.175802 	1.00639e-05
0.172639 	82.6485 	0.171937 	-3.98615e-07
0.172893 	82.4987 	0.172003 	-9.43038e-07
0.173147 	82.3489 	0.172068 	-1.48746e-06
0.173401 	82.1991 	0.172134 	-1.07098e-06
0.173656 	82.0492 	0.1722 	-5.36062e-07
0.17391 	81.8994 	0.172266 	-1.14787e-09
0.174164 	81.75 	0.186821 	3.47899e-05
0.174418 	81.6005 	0.201414 	6.96707e-05
0.174673 	81.4514 	0.191397 	4.55508e-05
0.174927 	81.3024 	0.176693 	1.01952e-05
0.175181 	81.154 	0.17244 	-3.07192e-06
0.175435 	81.0058 	0.172421 	-7.38891e-06
0.17569 	80.8577 	0.172402 	-1.17059e-05
0.175944 	80.7095 	0.172383 	-9.18419e-06
0.176198 	80.5614 	0.172364 	-4.94364e-06
0.176452 	80.4133 	0.172345 	-7.03102e-07
0.176707 	80.2658 	0.184352 	2.73225e-05
0.176961 	80.1185 	0.19875 	6.00777e-05
0.177215 	79.9715 	0.191354 	4.34626e-05
0.177469 	79.8247 	0.176636 	1.02564e-05
0.177724 	79.6787 	0.172024 	-5.29362e-06
0.177978 	79.5332 	0.17193 	-1.29532e-05
0.178232 	79.3876 	0.171836 	-2.06129e-05
0.178486 	79.242 	0.171741 	-1.7523e-05
0.178741 	79.0965 	0.171647 	-1.00003e-05