0 	31.9356 	-2.73798e-07 	2.31094e-18
0.000254254 	31.9414 	-2.74153e-07 	4.66883e-15
0.000508509 	31.9472 	-2.74153e-07 	4.66883e-15
0.000762763 	31.953 	-2.74153e-07 	4.66883e-15
0.00101702 	31.9587 	-2.74153e-07 	4.66883e-15
0.00127127 	31.9645 	-2.74153e-07 	4.66883e-15
0.00152553 	31.9703 	-2.74153e-07 	4.66883e-15
0.00177978 	31.9761 	-2.74153e-07 	4.66883e-15
0.00203403 	31.9819 	-2.74153e-07 	4.66883e-15
0.00228829 	31.9876 	-2.74153e-07 	4.66883e-15
0.00254254 	31.9934 	-2.74153e-07 	4.66883e-15
0.0027968 	32.0069 	-2.79595e-07 	4.6724e-15
0.00305105 	32.0211 	-2.79595e-07 	4.6724e-15
0.00330531 	32.0353 	-2.79595e-07 	4.6724e-15
0.00355956 	32.0495 	-2.79595e-07 	4.6724e-15
0.00381381 	32.0637 	-2.79595e-07 	4.6724e-15
0.00406807 	32.0779 	-2.79595e-07 	4.6724e-15
0.00432232 	32.0921 	-2.79595e-07 	4.6724e-15
0.00457658 	32.1064 	-2.79595e-07 	4.6724e-15
0.00483083 	32.1206 	-2.79595e-07 	4.6724e-15
0.00508509 	32.1348 	-2.79595e-07 	4.67239e-15
0.00533934 	32.1515 	-3.02971e-07 	4.71621e-15
0.00559359 	32.1688 	-3.02971e-07 	4.71621e-15
0.00584785 	32.1861 	-3.02971e-07 	4.71621e-15
0.0061021 	32.2034 	-3.02971e-07 	4.71621e-15
0.00635636 	32.2207 	-3.02971e-07 	4.71621e-15
0.00661061 	32.238 	-3.02971e-07 	4.7162e-15
0.00686486 	32.2553 	-3.02971e-07 	4.7162e-15
0.00711912 	32.2726 	-3.02971e-07 	4.7162e-15
0.00737337 	32.2899 	-3.02971e-07 	4.7162e-15
0.00762763 	32.3072 	-3.02971e-07 	4.7162e-15
0.00788188 	32.3253 	-3.43369e-07 	4.73064e-15
0.00813614 	32.3436 	-3.43369e-07 	4.73064e-15
0.00839039 	32.362 	-3.43369e-07 	4.73064e-15
0.00864464 	32.3803 	-3.43369e-07 	4.73064e-15
0.0088989 	32.3986 	-3.43369e-07 	4.73064e-15
0.00915315 	32.417 	-3.43369e-07 	4.73064e-15
0.00940741 	32.4353 	-3.43369e-07 	4.73063e-15
0.00966166 	32.4536 	-3.43369e-07 	4.73063e-15
0.00991592 	32.472 	-3.43369e-07 	4.73063e-15
0.0101702 	32.4903 	-3.43369e-07 	4.73063e-15
0.0104244 	32.5098 	-3.96925e-07 	4.7962e-15
0.0106787 	32.53 	-3.96925e-07 	4.7962e-15
0.0109329 	32.5501 	-3.96925e-07 	4.79619e-15
0.0111872 	32.5703 	-3.96925e-07 	4.79619e-15
0.0114414 	32.5905 	-3.96925e-07 	4.79619e-15
0.0116957 	32.6106 	-3.96925e-07 	4.79619e-15
0.0119499 	32.6308 	-3.96925e-07 	4.79619e-15
0.0122042 	32.651 	-3.96925e-07 	4.79619e-15
0.0124585 	32.6711 	-3.96925e-07 	4.79619e-15
0.0127127 	32.6913 	-3.96925e-07 	4.79618e-15
0.012967 	32.7131 	-4.6017e-07 	4.86576e-15
0.0132212 	32.7362 	-4.6017e-07 	4.86576e-15
0.0134755 	32.7593 	-4.6017e-07 	4.86576e-15
0.0137297 	32.7824 	-4.6017e-07 	4.86576e-15
0.013984 	32.8055 	-4.6017e-07 	4.86576e-15
0.0142382 	32.8286 	-4.6017e-07 	4.86575e-15
0.0144925 	32.8517 	-4.6017e-07 	4.86575e-15
0.0147467 	32.8748 	-4.6017e-07 	4.86575e-15
0.015001 	32.8978 	-4.6017e-07 	4.86575e-15
0.0152553 	32.9209 	-4.6017e-07 	4.86575e-15
0.0155095 	32.9457 	-5.30474e-07 	4.89667e-15
0.0157638 	32.9724 	-5.30474e-07 	4.89667e-15
0.016018 	32.9991 	-5.30474e-07 	4.89667e-15
0.0162723 	33.0258 	-5.30474e-07 	4.89666e-15
0.0165265 	33.0525 	-5.30474e-07 	4.89666e-15
0.0167808 	33.0792 	-5.30474e-07 	4.89666e-15
0.017035 	33.106 	-5.30474e-07 	4.89666e-15
0.0172893 	33.1327 	-5.30474e-07 	4.89666e-15
0.0175435 	33.1594 	-5.30474e-07 	4.89666e-15
0.0177978 	33.1861 	-5.30474e-07 	4.89665e-15
0.0180521 	33.2143 	-6.06e-07 	4.93431e-15
0.0183063 	33.245 	-6.06e-07 	4.93431e-15
0.0185606 	33.2757 	-6.06e-07 	4.93431e-15
0.0188148 	33.3064 	-6.06e-07 	4.93431e-15
0.0190691 	33.3371 	-6.06e-07 	4.9343e-15
0.0193233 	33.3678 	-6.06e-07 	4.9343e-15
0.0195776 	33.3985 	-6.06e-07 	4.9343e-15
0.0198318 	33.4292 	-6.06e-07 	4.9343e-15
0.0200861 	33.4599 	-6.06e-07 	4.9343e-15
0.0203403 	33.4906 	-6.06e-07 	4.93429e-15
0.0205946 	33.5225 	-6.8559e-07 	4.9795e-15
0.0208488 	33.5574 	-6.8559e-07 	4.9795e-15
0.0211031 	33.5923 	-6.8559e-07 	4.9795e-15
0.0213574 	33.6272 	-6.8559e-07 	4.9795e-15
0.0216116 	33.6622 	-6.8559e-07 	4.97949e-15
0.0218659 	33.6971 	-6.8559e-07 	4.97949e-15
0.0221201 	33.732 	-6.8559e-07 	4.97949e-15
0.0223744 	33.767 	-6.8559e-07 	4.97949e-15
0.0226286 	33.8019 	-6.8559e-07 	4.97948e-15
0.0228829 	33.8368 	-6.8559e-07 	4.97948e-15
0.0231371 	33.8726 	-7.68579e-07 	5.03203e-15
0.0233914 	33.9119 	-7.68579e-07 	5.03202e-15
0.0236456 	33.9513 	-7.68579e-07 	5.03202e-15
0.0238999 	33.9906 	-7.68579e-07 	5.03202e-15
0.0241542 	34.03 	-7.68579e-07 	5.03202e-15
0.0244084 	34.0693 	-7.68579e-07 	5.03201e-15
0.0246627 	34.1087 	-7.68579e-07 	5.03201e-15
0.0249169 	34.148 	-7.68579e-07 	5.03201e-15
0.0251712 	34.1874 	-7.68579e-07 	5.03201e-15
0.0254254 	34.2267 	-7.68579e-07 	5.032e-15
0.0256797 	34.2665 	-8.54418e-07 	5.09187e-15
0.0259339 	34.3104 	-8.54418e-07 	5.09186e-15
0.0261882 	34.3544 	-8.54418e-07 	5.09186e-15
0.0264424 	34.3983 	-8.54418e-07 	5.09186e-15
0.0266967 	34.4422 	-8.54418e-07 	5.09186e-15
0.026951 	34.4862 	-8.54418e-07 	5.09185e-15
0.0272052 	34.5301 	-8.54418e-07 	5.09185e-15
0.0274595 	34.5741 	-8.54418e-07 	5.09185e-15
0.0277137 	34.618 	-8.54418e-07 	5.09184e-15
0.027968 	34.662 	-8.54418e-07 	5.09184e-15
0.0282222 	34.7059 	-9.92701e-07 	7.66988e-19
0.0284765 	34.7546 	-9.41764e-07 	5.15933e-15
0.0287307 	34.8034 	-9.41764e-07 	5.15933e-15
0.028985 	34.8521 	-9.41764e-07 	5.15933e-15
0.0292392 	34.9008 	-9.41764e-07 	5.15932e-15
0.0294935 	34.9495 	-9.41764e-07 	5.15932e-15
0.0297477 	34.9982 	-9.41764e-07 	5.15932e-15
0.030002 	35.0469 	-9.41764e-07 	5.15931e-15
0.0302563 	35.0957 	-9.41764e-07 	5.15931e-15
0.0305105 	35.1444 	-9.41764e-07 	5.15931e-15
0.0307648 	35.1931 	-9.41764e-07 	5.1593e-15
0.031019 	35.2463 	-1.02857e-06 	5.26745e-15
0.0312733 	35.3 	-1.02857e-06 	5.26745e-15
0.0315275 	35.3537 	-1.02857e-06 	5.26744e-15
0.0317818 	35.4074 	-1.02857e-06 	5.26744e-15
0.032036 	35.461 	-1.02857e-06 	5.26744e-15
0.0322903 	35.5147 	-1.02857e-06 	5.26743e-15
0.0325445 	35.5684 	-1.02857e-06 	5.26743e-15
0.0327988 	35.6221 	-1.02857e-06 	5.26743e-15
0.0330531 	35.6757 	-1.02857e-06 	5.26742e-15
0.0333073 	35.7294 	-1.02857e-06 	5.26742e-15
0.0335616 	35.7873 	-1.11686e-06 	5.319e-15
0.0338158 	35.8461 	-1.11686e-06 	5.319e-15
0.0340701 	35.9049 	-1.11686e-06 	5.31899e-15
0.0343243 	35.9638 	-1.11686e-06 	5.31899e-15
0.0345786 	36.0226 	-1.11686e-06 	5.31898e-15
0.0348328 	36.0814 	-1.11686e-06 	5.31898e-15
0.0350871 	36.1402 	-1.11686e-06 	5.31898e-15
0.0353413 	36.199 	-1.11686e-06 	5.31897e-15
0.0355956 	36.2579 	-1.11686e-06 	5.31897e-15
0.0358498 	36.3167 	-1.11686e-06 	5.31897e-15
0.0361041 	36.3794 	-1.20771e-06 	5.4661e-15
0.0363584 	36.4435 	-1.20771e-06 	5.46609e-15
0.0366126 	36.5077 	-1.20771e-06 	5.46609e-15
0.0368669 	36.5719 	-1.20771e-06 	5.46608e-15
0.0371211 	36.636 	-1.20771e-06 	5.46608e-15
0.0373754 	36.7002 	-1.20771e-06 	5.46608e-15
0.0376296 	36.7644 	-1.20771e-06 	5.46607e-15
0.0378839 	36.8285 	-1.20771e-06 	5.46607e-15
0.0381381 	36.8927 	-1.20771e-06 	5.46606e-15
0.0383924 	36.9568 	-1.20771e-06 	5.46606e-15
0.0386466 	37.0245 	-1.30297e-06 	5.62189e-15
0.0389009 	37.0942 	-1.30297e-06 	5.62188e-15
0.0391552 	37.1639 	-1.30297e-06 	5.62188e-15
0.0394094 	37.2336 	-1.30297e-06 	5.62187e-15
0.0396637 	37.3034 	-1.30297e-06 	5.62187e-15
0.0399179 	37.3731 	-1.30297e-06 	5.62187e-15
0.0401722 	37.4428 	-1.30297e-06 	5.62186e-15
0.0404264 	37.5125 	-1.30297e-06 	5.62186e-15
0.0406807 	37.5822 	-1.30297e-06 	5.62185e-15
0.0409349 	37.6519 	-1.30297e-06 	5.62185e-15
0.0411892 	37.7247 	-1.40202e-06 	5.77644e-15
0.0414434 	37.8002 	-1.40202e-06 	5.77644e-15
0.0416977 	37.8757 	-1.40202e-06 	5.77643e-15
0.041952 	37.9511 	-1.40202e-06 	5.77643e-15
0.0422062 	38.0266 	-1.40202e-06 	5.77642e-15
0.0424605 	38.1021 	-1.40202e-06 	5.77642e-15
0.0427147 	38.1775 	-1.40202e-06 	5.77641e-15
0.042969 	38.253 	-1.40202e-06 	5.77641e-15
0.0432232 	38.3285 	-1.40202e-06 	5.7764e-15
0.0434775 	38.404 	-1.40202e-06 	5.7764e-15
0.0437317 	38.4821 	-1.50449e-06 	5.89705e-15
0.043986 	38.5636 	-1.50449e-06 	5.89705e-15
0.0442402 	38.6451 	-1.50449e-06 	5.89704e-15
0.0444945 	38.7265 	-1.50449e-06 	5.89704e-15
0.0447487 	38.808 	-1.50449e-06 	5.89703e-15
0.045003 	38.8894 	-1.50449e-06 	5.89703e-15
0.0452573 	38.9709 	-1.50449e-06 	5.89702e-15
0.0455115 	39.0523 	-1.50449e-06 	5.89702e-15
0.0457658 	39.1338 	-1.50449e-06 	5.89701e-15
0.04602 	39.2153 	-1.50449e-06 	5.89701e-15
0.0462743 	39.299 	-1.61027e-06 	5.9829e-15
0.0465285 	39.3867 	-1.61027e-06 	5.9829e-15
0.0467828 	39.4744 	-1.61027e-06 	5.98289e-15
0.047037 	39.562 	-1.61027e-06 	5.98289e-15
0.0472913 	39.6497 	-1.61027e-06 	5.98288e-15
0.0475455 	39.7374 	-1.61027e-06 	5.98288e-15
0.0477998 	39.8251 	-1.61027e-06 	5.98287e-15
0.0480541 	39.9128 	-1.61027e-06 	5.98286e-15
0.0483083 	40.0005 	-1.61027e-06 	5.98286e-15
0.0485626 	40.0881 	-1.61027e-06 	5.98285e-15
0.0488168 	40.1776 	-1.71922e-06 	6.06911e-15
0.0490711 	40.2718 	-1.71922e-06 	6.0691e-15
0.0493253 	40.3659 	-1.71922e-06 	6.0691e-15
0.0495796 	40.4601 	-1.71922e-06 	6.06909e-15
0.0498338 	40.5542 	-1.71922e-06 	6.06909e-15
0.0500881 	40.6484 	-1.71922e-06 	6.06908e-15
0.0503423 	40.7425 	-1.71922e-06 	6.06907e-15
0.0505966 	40.8367 	-1.71922e-06 	6.06907e-15
0.0508509 	40.9309 	-1.71922e-06 	6.06906e-15
0.0511051 	41.025 	-1.71922e-06 	6.06906e-15
0.0513594 	41.1204 	-1.83105e-06 	6.2177e-15
0.0516136 	41.2213 	-1.83105e-06 	6.2177e-15
0.0518679 	41.3222 	-1.83105e-06 	6.21769e-15
0.0521221 	41.4231 	-1.83105e-06 	6.21768e-15
0.0523764 	41.5239 	-1.83105e-06 	6.21768e-15
0.0526306 	41.6248 	-1.83105e-06 	6.21767e-15
0.0528849 	41.7257 	-1.83105e-06 	6.21766e-15
0.0531391 	41.8266 	-1.83105e-06 	6.21766e-15
0.0533934 	41.9275 	-1.83105e-06 	6.21765e-15
0.0536476 	42.0284 	-1.83105e-06 	6.21765e-15
0.0539019 	42.1299 	-1.94535e-06 	6.32753e-15
0.0541562 	42.2377 	-1.94535e-06 	6.32753e-15
0.0544104 	42.3456 	-1.94535e-06 	6.32752e-15
0.0546647 	42.4535 	-1.94535e-06 	6.32751e-15
0.0549189 	42.5613 	-1.94535e-06 	6.32751e-15
0.0551732 	42.6692 	-1.94535e-06 	6.3275e-15
0.0554274 	42.7771 	-1.94535e-06 	6.32749e-15
0.0556817 	42.8849 	-1.94535e-06 	6.32749e-15
0.0559359 	42.9928 	-1.94535e-06 	6.32748e-15
0.0561902 	43.1007 	-1.94535e-06 	6.32747e-15
0.0564444 	43.2085 	-2.31564e-06 	2.39038e-19
0.0566987 	43.3236 	-2.0614e-06 	6.5104e-15
0.056953 	43.4387 	-2.0614e-06 	6.51039e-15
0.0572072 	43.5538 	-2.0614e-06 	6.51039e-15
0.0574615 	43.6689 	-2.0614e-06 	6.51038e-15
0.0577157 	43.784 	-2.0614e-06 	6.51037e-15
0.05797 	43.8991 	-2.0614e-06 	6.51036e-15
0.0582242 	44.0142 	-2.0614e-06 	6.51036e-15
0.0584785 	44.1294 	-2.0614e-06 	6.51035e-15
0.0587327 	44.2445 	-2.0614e-06 	6.51034e-15
0.058987 	44.3596 	-2.0614e-06 	6.51033e-15
0.0592412 	44.4815 	-2.17815e-06 	6.69465e-15
0.0594955 	44.6041 	-2.17815e-06 	6.69464e-15
0.0597497 	44.7267 	-2.17815e-06 	6.69463e-15
0.060004 	44.8493 	-2.17815e-06 	6.69462e-15
0.0602583 	44.9718 	-2.17815e-06 	6.69462e-15
0.0605125 	45.0944 	-2.17815e-06 	6.69461e-15
0.0607668 	45.217 	-2.17815e-06 	6.6946e-15
0.061021 	45.3396 	-2.17815e-06 	6.69459e-15
0.0612753 	45.4622 	-2.17815e-06 	6.69459e-15
0.0615295 	45.5848 	-2.17815e-06 	6.69458e-15
0.0617838 	45.7137 	-2.29562e-06 	6.93779e-15
0.062038 	45.8441 	-2.29562e-06 	6.93778e-15
0.0622923 	45.9744 	-2.29562e-06 	6.93777e-15
0.0625465 	46.1047 	-2.29562e-06 	6.93776e-15
0.0628008 	46.2351 	-2.29562e-06 	6.93775e-15
0.0630551 	46.3654 	-2.29562e-06 	6.93774e-15
0.0633093 	46.4957 	-2.29562e-06 	6.93774e-15
0.0635636 	46.626 	-2.29562e-06 	6.93773e-15
0.0638178 	46.7564 	-2.29562e-06 	6.93772e-15
0.0640721 	46.8867 	-2.29562e-06 	6.93771e-15
0.0643263 	47.0228 	-2.41332e-06 	7.08311e-15
0.0645806 	47.1611 	-2.41332e-06 	7.0831e-15
0.0648348 	47.2994 	-2.41332e-06 	7.08309e-15
0.0650891 	47.4377 	-2.41332e-06 	7.08308e-15
0.0653433 	47.576 	-2.41332e-06 	7.08308e-15
0.0655976 	47.7143 	-2.41332e-06 	7.08307e-15
0.0658519 	47.8526 	-2.41332e-06 	7.08306e-15
0.0661061 	47.9909 	-2.41332e-06 	7.08305e-15
0.0663604 	48.1292 	-2.41332e-06 	7.08304e-15
0.0666146 	48.2675 	-2.41332e-06 	7.08303e-15
0.0668689 	48.411 	-2.53024e-06 	7.29352e-15
0.0671231 	48.5575 	-2.53024e-06 	7.29352e-15
0.0673774 	48.704 	-2.53024e-06 	7.29351e-15
0.0676316 	48.8505 	-2.53024e-06 	7.2935e-15
0.0678859 	48.997 	-2.53024e-06 	7.29349e-15
0.0681401 	49.1435 	-2.53024e-06 	7.29348e-15
0.0683944 	49.29 	-2.53024e-06 	7.29347e-15
0.0686486 	49.4365 	-2.53024e-06 	7.29346e-15
0.0689029 	49.583 	-2.53024e-06 	7.29345e-15
0.0691572 	49.7295 	-2.53024e-06 	7.29344e-15
0.0694114 	49.8806 	-2.64476e-06 	7.51767e-15
0.0696657 	50.0355 	-2.64476e-06 	7.51766e-15
0.0699199 	50.1905 	-2.64476e-06 	7.51765e-15
0.0701742 	50.3454 	-2.64476e-06 	7.51764e-15
0.0704284 	50.5003 	-2.64476e-06 	7.51763e-15
0.0706827 	50.6553 	-2.64476e-06 	7.51762e-15
0.0709369 	50.8102 	-2.64476e-06 	7.51761e-15
0.0711912 	50.9651 	-2.64476e-06 	7.5176e-15
0.0714454 	51.12 	-2.64476e-06 	7.51759e-15
0.0716997 	51.275 	-2.64476e-06 	7.51758e-15
0.071954 	51.4338 	-2.74652e-06 	7.75352e-15
0.0722082 	51.5974 	-2.74652e-06 	7.75351e-15
0.0724625 	51.7609 	-2.74652e-06 	7.7535e-15
0.0727167 	51.9244 	-2.74652e-06 	7.75349e-15
0.072971 	52.088 	-2.74652e-06 	7.75348e-15
0.0732252 	52.2515 	-2.74652e-06 	7.75347e-15
0.0734795 	52.415 	-2.74652e-06 	7.75346e-15
0.0737337 	52.5786 	-2.74652e-06 	7.75345e-15
0.073988 	52.7421 	-2.74652e-06 	7.75344e-15
0.0742422 	52.9057 	-2.74652e-06 	7.75343e-15
0.0744965 	53.0724 	-2.82783e-06 	7.99735e-15
0.0747508 	53.2446 	-2.82783e-06 	7.99734e-15
0.075005 	53.4168 	-2.82783e-06 	7.99733e-15
0.0752593 	53.5891 	-2.82783e-06 	7.99732e-15
0.0755135 	53.7613 	-2.82783e-06 	7.9973e-15
0.0757678 	53.9335 	-2.82783e-06 	7.99729e-15
0.076022 	54.1058 	-2.82783e-06 	7.99728e-15
0.0762763 	54.278 	-2.82783e-06 	7.99727e-15
0.0765305 	54.4502 	-2.82783e-06 	7.99726e-15
0.0767848 	54.6225 	-2.82783e-06 	7.99725e-15
0.077039 	54.7971 	-2.88996e-06 	8.19367e-15
0.0772933 	54.978 	-2.88996e-06 	8.19365e-15
0.0775475 	55.1589 	-2.88996e-06 	8.19364e-15
0.0778018 	55.3399 	-2.88996e-06 	8.19363e-15
0.0780561 	55.5208 	-2.88996e-06 	8.19362e-15
0.0783103 	55.7018 	-2.88996e-06 	8.19361e-15
0.0785646 	55.8827 	-2.88996e-06 	8.1936e-15
0.0788188 	56.0636 	-2.88996e-06 	8.19358e-15
0.0790731 	56.2446 	-2.88996e-06 	8.19357e-15
0.0793273 	56.4255 	-2.88996e-06 	8.19356e-15
0.0795816 	56.608 	-2.92052e-06 	8.45577e-15
0.0798358 	56.7976 	-2.92052e-06 	8.45576e-15
0.0800901 	56.9871 	-2.92052e-06 	8.45574e-15
0.0803443 	57.1766 	-2.92052e-06 	8.45573e-15
0.0805986 	57.3662 	-2.92052e-06 	8.45572e-15
0.0808529 	57.5557 	-2.92052e-06 	8.45571e-15
0.0811071 	57.7452 	-2.92052e-06 	8.4557e-15
0.0813614 	57.9347 	-2.92052e-06 	8.45568e-15
0.0816156 	58.1243 	-2.92052e-06 	8.45567e-15
0.0818699 	58.3138 	-2.92052e-06 	8.45566e-15
0.0821241 	58.5041 	-2.94704e-06 	8.71799e-15
0.0823784 	58.702 	-2.94704e-06 	8.71797e-15
0.0826326 	58.8998 	-2.94704e-06 	8.71796e-15
0.0828869 	59.0977 	-2.94704e-06 	8.71795e-15
0.0831411 	59.2956 	-2.94704e-06 	8.71793e-15
0.0833954 	59.4935 	-2.94704e-06 	8.71792e-15
0.0836496 	59.6913 	-2.94704e-06 	8.71791e-15
0.0839039 	59.8892 	-2.94704e-06 	8.7179e-15
0.0841582 	60.0871 	-2.94704e-06 	8.71788e-15
0.0844124 	60.285 	-2.94704e-06 	8.71787e-15
0.0846667 	60.4829 	-3.85958e-06 	2.47311e-17
0.0849209 	60.6888 	-2.95028e-06 	8.98108e-15
0.0851752 	60.8948 	-2.95028e-06 	8.98107e-15
0.0854294 	61.1007 	-2.95028e-06 	8.98106e-15
0.0856837 	61.3067 	-2.95028e-06 	8.98104e-15
0.0859379 	61.5126 	-2.95028e-06 	8.98103e-15
0.0861922 	61.7186 	-2.95028e-06 	8.98102e-15
0.0864464 	61.9245 	-2.95028e-06 	8.981e-15
0.0867007 	62.1305 	-2.95028e-06 	8.98099e-15
0.086955 	62.3364 	-2.95028e-06 	8.98098e-15
0.0872092 	62.5424 	-2.95028e-06 	8.98096e-15
0.0874635 	62.7553 	-2.94122e-06 	9.24486e-15
0.0877177 	62.969 	-2.94122e-06 	9.24484e-15
0.087972 	63.1826 	-2.94122e-06 	9.24483e-15
0.0882262 	63.3963 	-2.94122e-06 	9.24482e-15
0.0884805 	63.6099 	-2.94122e-06 	9.2448e-15
0.0887347 	63.8236 	-2.94122e-06 	9.24479e-15
0.088989 	64.0372 	-2.94122e-06 	9.24478e-15
0.0892432 	64.2508 	-2.94122e-06 	9.24476e-15
0.0894975 	64.4645 	-2.94122e-06 	9.24475e-15
0.0897518 	64.6781 	-2.94122e-06 	9.24473e-15
0.090006 	64.8976 	-2.94975e-06 	9.50875e-15
0.0902603 	65.1183 	-2.94975e-06 	9.50873e-15
0.0905145 	65.339 	-2.94975e-06 	9.50872e-15
0.0907688 	65.5598 	-2.94975e-06 	9.5087e-15
0.091023 	65.7805 	-2.94975e-06 	9.50869e-15
0.0912773 	66.0012 	-2.94975e-06 	9.50868e-15
0.0915315 	66.222 	-2.94975e-06 	9.50866e-15
0.0917858 	66.4427 	-2.94975e-06 	9.50865e-15
0.09204 	66.6634 	-2.94975e-06 	9.50863e-15
0.0922943 	66.8841 	-2.94975e-06 	9.50862e-15
0.0925485 	67.1094 	-2.94363e-06 	9.77158e-15
0.0928028 	67.3365 	-2.94363e-06 	9.77157e-15
0.0930571 	67.5635 	-2.94363e-06 	9.77155e-15
0.0933113 	67.7905 	-2.94363e-06 	9.77154e-15
0.0935656 	68.0175 	-2.94363e-06 	9.77153e-15
0.0938198 	68.2445 	-2.94363e-06 	9.77151e-15
0.0940741 	68.4716 	-2.94363e-06 	9.7715e-15
0.0943283 	68.6986 	-2.94363e-06 	9.77148e-15
0.0945826 	68.9256 	-2.94363e-06 	9.77147e-15
0.0948368 	69.1526 	-2.94363e-06 	9.77145e-15
0.0950911 	69.383 	-2.9006e-06 	9.98017e-15
0.0953453 	69.6152 	-2.9006e-06 	9.98016e-15
0.0955996 	69.8475 	-2.9006e-06 	9.98014e-15
0.0958539 	70.0798 	-2.9006e-06 	9.98013e-15
0.0961081 	70.312 	-2.9006e-06 	9.98011e-15
0.0963624 	70.5443 	-2.9006e-06 	9.9801e-15
0.0966166 	70.7766 	-2.9006e-06 	9.98008e-15
0.0968709 	71.0088 	-2.9006e-06 	9.98007e-15
0.0971251 	71.2411 	-2.9006e-06 	9.98005e-15
0.0973794 	71.4734 	-2.9006e-06 	9.98004e-15
0.0976336 	71.7077 	-2.82492e-06 	1.02757e-14
0.0978879 	71.9438 	-2.82492e-06 	1.02757e-14
0.0981421 	72.1798 	-2.82492e-06 	1.02756e-14
0.0983964 	72.4159 	-2.82492e-06 	1.02756e-14
0.0986507 	72.652 	-2.82492e-06 	1.02756e-14
0.0989049 	72.8881 	-2.82492e-06 	1.02756e-14
0.0991592 	73.1241 	-2.82492e-06 	1.02756e-14
0.0994134 	73.3602 	-2.82492e-06 	1.02756e-14
0.0996677 	73.5963 	-2.82492e-06 	1.02755e-14
0.0999219 	73.8323 	-2.82492e-06 	1.02755e-14
0.100176 	74.0693 	-2.71145e-06 	1.05765e-14
0.10043 	74.3074 	-2.71145e-06 	1.05765e-14
0.100685 	74.5455 	-2.71145e-06 	1.05764e-14
0.100939 	74.7836 	-2.71145e-06 	1.05764e-14
0.101193 	75.0216 	-2.71145e-06 	1.05764e-14
0.101447 	75.2597 	-2.71145e-06 	1.05764e-14
0.101702 	75.4978 	-2.71145e-06 	1.05764e-14
0.101956 	75.7358 	-2.71145e-06 	1.05764e-14
0.10221 	75.9739 	-2.71145e-06 	1.05764e-14
0.102464 	76.212 	-2.71145e-06 	1.05763e-14
0.102719 	76.45 	-2.5344e-06 	1.08159e-14
0.102973 	76.6879 	-2.5344e-06 	1.08159e-14
0.103227 	76.9258 	-2.5344e-06 	1.08159e-14
0.103481 	77.1638 	-2.5344e-06 	1.08159e-14
0.103736 	77.4017 	-2.5344e-06 	1.08159e-14
0.10399 	77.6396 	-2.5344e-06 	1.08159e-14
0.104244 	77.8775 	-2.5344e-06 	1.08158e-14
0.104498 	78.1154 	-2.5344e-06 	1.08158e-14
0.104753 	78.3533 	-2.5344e-06 	1.08158e-14
0.105007 	78.5912 	-2.5344e-06 	1.08158e-14
0.105261 	78.8285 	-2.35848e-06 	1.10733e-14
0.105516 	79.0638 	-2.35848e-06 	1.10733e-14
0.10577 	79.2991 	-2.35848e-06 	1.10733e-14
0.106024 	79.5344 	-2.35848e-06 	1.10732e-14
0.106278 	79.7697 	-2.35848e-06 	1.10732e-14
0.106533 	80.0051 	-2.35848e-06 	1.10732e-14
0.106787 	80.2404 	-2.35848e-06 	1.10732e-14
0.107041 	80.4757 	-2.35848e-06 	1.10732e-14
0.107295 	80.711 	-2.35848e-06 	1.10732e-14
0.10755 	80.9464 	-2.35848e-06 	1.10731e-14
0.107804 	81.1807 	-2.07295e-06 	1.13102e-14
0.108058 	81.4109 	-2.07295e-06 	1.13102e-14
0.108312 	81.6411 	-2.07295e-06 	1.13102e-14
0.108567 	81.8713 	-2.07295e-06 	1.13102e-14
0.108821 	82.1015 	-2.07295e-06 	1.13102e-14
0.109075 	82.3317 	-2.07295e-06 	1.13101e-14
0.109329 	82.5618 	-2.07295e-06 	1.13101e-14
0.109584 	82.792 	-2.07295e-06 	1.13101e-14
0.109838 	83.0222 	-2.07295e-06 	1.13101e-14
0.110092 	83.2524 	-2.07295e-06 	1.13101e-14
0.110346 	83.4818 	-1.77353e-06 	1.14873e-14
0.110601 	83.704 	-1.77353e-06 	1.14873e-14
0.110855 	83.9262 	-1.77353e-06 	1.14873e-14
0.111109 	84.1484 	-1.77353e-06 	1.14873e-14
0.111363 	84.3706 	-1.77353e-06 	1.14872e-14
0.111618 	84.5928 	-1.77353e-06 	1.14872e-14
0.111872 	84.815 	-1.77353e-06 	1.14872e-14
0.112126 	85.0372 	-1.77353e-06 	1.14872e-14
0.11238 	85.2594 	-1.77353e-06 	1.14872e-14
0.112635 	85.4816 	-1.77353e-06 	1.14872e-14
0.112889 	85.7038 	-2.87903e-06 	4.52201e-17
0.113143 	85.9149 	-1.44019e-06 	1.16294e-14
0.113397 	86.1261 	-1.44019e-06 	1.16293e-14
0.113652 	86.3372 	-1.44019e-06 	1.16293e-14
0.113906 	86.5483 	-1.44019e-06 	1.16293e-14
0.11416 	86.7594 	-1.44019e-06 	1.16293e-14
0.114414 	86.9705 	-1.44019e-06 	1.16293e-14
0.114669 	87.1816 	-1.44019e-06 	1.16293e-14
0.114923 	87.3927 	-1.44019e-06 	1.16293e-14
0.115177 	87.6038 	-1.44019e-06 	1.16292e-14
0.115431 	87.8149 	-1.44019e-06 	1.16292e-14
0.115686 	88.0129 	-1.01927e-06 	1.17377e-14
0.11594 	88.2096 	-1.01927e-06 	1.17377e-14
0.116194 	88.4064 	-1.01927e-06 	1.17377e-14
0.116448 	88.6031 	-1.01927e-06 	1.17377e-14
0.116703 	88.7998 	-1.01927e-06 	1.17377e-14
0.116957 	88.9965 	-1.01927e-06 	1.17377e-14
0.117211 	89.1933 	-1.01927e-06 	1.17377e-14
0.117465 	89.39 	-1.01927e-06 	1.17377e-14
0.11772 	89.5867 	-1.01927e-06 	1.17376e-14
0.117974 	89.7834 	-1.01927e-06 	1.17376e-14
0.118228 	89.9656 	-6.05234e-07 	1.1812e-14
0.118482 	90.1444 	-6.05234e-07 	1.18119e-14
0.118737 	90.3233 	-6.05234e-07 	1.18119e-14
0.118991 	90.5022 	-6.05234e-07 	1.18119e-14
0.119245 	90.681 	-6.05234e-07 	1.18119e-14
0.119499 	90.8599 	-6.05234e-07 	1.18119e-14
0.119754 	91.0388 	-6.05234e-07 	1.18119e-14
0.120008 	91.2177 	-6.05234e-07 	1.18119e-14
0.120262 	91.3965 	-6.05234e-07 	1.18119e-14
0.120517 	91.5754 	-6.05234e-07 	1.18119e-14
0.120771 	91.7388 	-1.92542e-07 	1.18512e-14
0.121025 	91.8964 	-1.92542e-07 	1.18512e-14
0.121279 	92.0541 	-1.92542e-07 	1.18512e-14
0.121534 	92.2117 	-1.92542e-07 	1.18512e-14
0.121788 	92.3693 	-1.92542e-07 	1.18511e-14
0.122042 	92.5269 	-1.92542e-07 	1.18511e-14
0.122296 	92.6846 	-1.92542e-07 	1.18511e-14
0.122551 	92.8422 	-1.92542e-07 	1.18511e-14
0.122805 	92.9998 	-1.92542e-07 	1.18511e-14
0.123059 	93.1574 	-1.92542e-07 	1.18511e-14
0.123313 	93.2997 	2.21356e-07 	1.18549e-14
0.123568 	93.4331 	2.21356e-07 	1.18549e-14
0.123822 	93.5665 	2.21356e-07 	1.18549e-14
0.124076 	93.6999 	2.21356e-07 	1.18549e-14
0.12433 	93.8333 	2.21356e-07 	1.18549e-14
0.124585 	93.9667 	2.21356e-07 	1.18549e-14
0.124839 	94.1001 	2.21356e-07 	1.18549e-14
0.125093 	94.2335 	2.21356e-07 	1.18549e-14
0.125347 	94.3669 	2.21356e-07 	1.18549e-14
0.125602 	94.5003 	2.21356e-07 	1.18549e-14
0.125856 	94.6192 	5.96718e-07 	1.18263e-14
0.12611 	94.7261 	5.96718e-07 	1.18263e-14
0.126364 	94.833 	5.96718e-07 	1.18263e-14
0.126619 	94.9399 	5.96718e-07 	1.18263e-14
0.126873 	95.0467 	5.96718e-07 	1.18263e-14
0.127127 	95.1536 	5.96718e-07 	1.18263e-14
0.127381 	95.2605 	5.96718e-07 	1.18263e-14
0.127636 	95.3674 	5.96718e-07 	1.18263e-14
0.12789 	95.4743 	5.96718e-07 	1.18263e-14
0.128144 	95.5812 	5.96718e-07 	1.18263e-14
0.128398 	95.6754 	9.25714e-07 	1.17729e-14
0.128653 	95.7545 	9.25714e-07 	1.17729e-14
0.128907 	95.8336 	9.25714e-07 	1.17729e-14
0.129161 	95.9127 	9.25714e-07 	1.17729e-14
0.129415 	95.9918 	9.25714e-07 	1.17729e-14
0.12967 	96.0709 	9.25714e-07 	1.17728e-14
0.129924 	96.15 	9.25714e-07 	1.17728e-14
0.130178 	96.2291 	9.25714e-07 	1.17728e-14
0.130432 	96.3083 	9.25714e-07 	1.17728e-14
0.130687 	96.3874 	9.25714e-07 	1.17728e-14
0.130941 	96.4563 	1.2052e-06 	1.17018e-14
0.131195 	96.5076 	1.2052e-06 	1.17018e-14
0.131449 	96.5588 	1.2052e-06 	1.17018e-14
0.131704 	96.61 	1.2052e-06 	1.17018e-14
0.131958 	96.6613 	1.2052e-06 	1.17018e-14
0.132212 	96.7125 	1.2052e-06 	1.17018e-14
0.132466 	96.7637 	1.2052e-06 	1.17018e-14
0.132721 	96.815 	1.2052e-06 	1.17018e-14
0.132975 	96.8662 	1.2052e-06 	1.17018e-14
0.133229 	96.9174 	1.2052e-06 	1.17018e-14
0.133483 	96.9613 	1.42628e-06 	1.16171e-14
0.133738 	96.9856 	1.42628e-06 	1.16171e-14
0.133992 	97.0099 	1.42628e-06 	1.16171e-14
0.134246 	97.0343 	1.42628e-06 	1.16171e-14
0.134501 	97.0586 	1.42628e-06 	1.16171e-14
0.134755 	97.0829 	1.42628e-06 	1.16171e-14
0.135009 	97.1072 	1.42628e-06 	1.16171e-14
0.135263 	97.1315 	1.42628e-06 	1.16171e-14
0.135518 	97.1558 	1.42628e-06 	1.16171e-14
0.135772 	97.1801 	1.42628e-06 	1.16171e-14
0.136026 	97.1998 	1.62498e-06 	1.1576e-14
0.13628 	97.1989 	1.62498e-06 	1.1576e-14
0.136535 	97.198 	1.62498e-06 	1.1576e-14
0.136789 	97.197 	1.62498e-06 	1.1576e-14
0.137043 	97.1961 	1.62498e-06 	1.1576e-14
0.137297 	97.1952 	1.62498e-06 	1.1576e-14
0.137552 	97.1942 	1.62498e-06 	1.1576e-14
0.137806 	97.1933 	1.62498e-06 	1.1576e-14
0.13806 	97.1924 	1.62498e-06 	1.1576e-14
0.138314 	97.1914 	1.62498e-06 	1.1576e-14
0.138569 	97.1884 	1.78148e-06 	1.14126e-14
0.138823 	97.1643 	1.78148e-06 	1.14126e-14
0.139077 	97.1401 	1.78148e-06 	1.14126e-14
0.139331 	97.116 	1.78148e-06 	1.14126e-14
0.139586 	97.0918 	1.78148e-06 	1.14126e-14
0.13984 	97.0677 	1.78148e-06 	1.14126e-14
0.140094 	97.0435 	1.78148e-06 	1.14126e-14
0.140348 	97.0194 	1.78148e-06 	1.14126e-14
0.140603 	96.9953 	1.78148e-06 	1.14126e-14
0.140857 	96.9711 	1.78148e-06 	1.14126e-14
0.141111 	96.947 	9.67915e-07 	3.15653e-17
0.141365 	96.9018 	1.90693e-06 	1.12976e-14
0.14162 	96.8566 	1.90693e-06 	1.12976e-14
0.141874 	96.8114 	1.90693e-06 	1.12976e-14
0.142128 	96.7661 	1.90693e-06 	1.12976e-14
0.142382 	96.7209 	1.90693e-06 	1.12976e-14
0.142637 	96.6757 	1.90693e-06 	1.12976e-14
0.142891 	96.6305 	1.90693e-06 	1.12976e-14
0.143145 	96.5853 	1.90693e-06 	1.12976e-14
0.143399 	96.5401 	1.90693e-06 	1.12976e-14
0.143654 	96.4949 	1.90693e-06 	1.12976e-14
0.143908 	96.4325 	2.02424e-06 	1.11216e-14
0.144162 	96.3684 	2.02424e-06 	1.11216e-14
0.144416 	96.3043 	2.02424e-06 	1.11217e-14
0.144671 	96.2402 	2.02424e-06 	1.11217e-14
0.144925 	96.1761 	2.02424e-06 	1.11217e-14
0.145179 	96.112 	2.02424e-06 	1.11217e-14
0.145433 	96.0478 	2.02424e-06 	1.11217e-14
0.145688 	95.9837 	2.02424e-06 	1.11217e-14
0.145942 	95.9196 	2.02424e-06 	1.11217e-14
0.146196 	95.8555 	2.02424e-06 	1.11217e-14
0.14645 	95.7776 	2.13032e-06 	1.09316e-14
0.146705 	95.6966 	2.13032e-06 	1.09316e-14
0.146959 	95.6156 	2.13032e-06 	1.09316e-14
0.147213 	95.5346 	2.13032e-06 	1.09316e-14
0.147467 	95.4536 	2.13032e-06 	1.09316e-14
0.147722 	95.3726 	2.13032e-06 	1.09316e-14
0.147976 	95.2917 	2.13032e-06 	1.09316e-14
0.14823 	95.2107 	2.13032e-06 	1.09316e-14
0.148484 	95.1297 	2.13032e-06 	1.09316e-14
0.148739 	95.0487 	2.13032e-06 	1.09316e-14
0.148993 	94.9568 	2.23123e-06 	1.07893e-14
0.149247 	94.8608 	2.23123e-06 	1.07893e-14
0.149502 	94.7649 	2.23123e-06 	1.07893e-14
0.149756 	94.6689 	2.23123e-06 	1.07893e-14
0.15001 	94.5729 	2.23123e-06 	1.07893e-14
0.150264 	94.477 	2.23123e-06 	1.07894e-14
0.150519 	94.381 	2.23123e-06 	1.07894e-14
0.150773 	94.285 	2.23123e-06 	1.07894e-14
0.151027 	94.1891 	2.23123e-06 	1.07894e-14
0.151281 	94.0931 	2.23123e-06 	1.07894e-14
0.151536 	93.9887 	2.32708e-06 	1.0645e-14
0.15179 	93.8796 	2.32708e-06 	1.0645e-14
0.152044 	93.7705 	2.32708e-06 	1.0645e-14
0.152298 	93.6613 	2.32708e-06 	1.0645e-14
0.152553 	93.5522 	2.32708e-06 	1.0645e-14
0.152807 	93.4431 	2.32708e-06 	1.0645e-14
0.153061 	93.3339 	2.32708e-06 	1.0645e-14
0.153315 	93.2248 	2.32708e-06 	1.0645e-14
0.15357 	93.1157 	2.32708e-06 	1.0645e-14
0.153824 	93.0065 	2.32708e-06 	1.0645e-14
0.154078 	92.8912 	2.41455e-06 	1.04928e-14
0.154332 	92.7707 	2.41455e-06 	1.04928e-14
0.154587 	92.6502 	2.41455e-06 	1.04928e-14
0.154841 	92.5297 	2.41455e-06 	1.04928e-14
0.155095 	92.4093 	2.41455e-06 	1.04928e-14
0.155349 	92.2888 	2.41455e-06 	1.04928e-14
0.155604 	92.1683 	2.41455e-06 	1.04928e-14
0.155858 	92.0478 	2.41455e-06 	1.04928e-14
0.156112 	91.9273 	2.41455e-06 	1.04929e-14
0.156366 	91.8068 	2.41455e-06 	1.04929e-14
0.156621 	91.682 	2.4903e-06 	1.03348e-14
0.156875 	91.552 	2.4903e-06 	1.03348e-14
0.157129 	91.422 	2.4903e-06 	1.03348e-14
0.157383 	91.292 	2.4903e-06 	1.03349e-14
0.157638 	91.162 	2.4903e-06 	1.03349e-14
0.157892 	91.032 	2.4903e-06 	1.03349e-14
0.158146 	90.902 	2.4903e-06 	1.03349e-14
0.1584 	90.772 	2.4903e-06 	1.03349e-14
0.158655 	90.642 	2.4903e-06 	1.03349e-14
0.158909 	90.512 	2.4903e-06 	1.03349e-14
0.159163 	90.3792 	2.55216e-06 	1.0234e-14
0.159417 	90.2416 	2.55216e-06 	1.0234e-14
0.159672 	90.1039 	2.55216e-06 	1.02341e-14
0.159926 	89.9663 	2.55216e-06 	1.02341e-14
0.16018 	89.8287 	2.55216e-06 	1.02341e-14
0.160434 	89.691 	2.55216e-06 	1.02341e-14
0.160689 	89.5534 	2.55216e-06 	1.02341e-14
0.160943 	89.4158 	2.55216e-06 	1.02341e-14
0.161197 	89.2781 	2.55216e-06 	1.02341e-14
0.161451 	89.1405 	2.55216e-06 	1.02341e-14
0.161706 	89.0013 	2.59943e-06 	1.01242e-14
0.16196 	88.8579 	2.59943e-06 	1.01242e-14
0.162214 	88.7145 	2.59943e-06 	1.01242e-14
0.162468 	88.5711 	2.59943e-06 	1.01242e-14
0.162723 	88.4278 	2.59943e-06 	1.01243e-14
0.162977 	88.2844 	2.59943e-06 	1.01243e-14
0.163231 	88.141 	2.59943e-06 	1.01243e-14
0.163485 	87.9976 	2.59943e-06 	1.01243e-14
0.16374 	87.8542 	2.59943e-06 	1.01243e-14
0.163994 	87.7108 	2.59943e-06 	1.01243e-14
0.164248 	87.5667 	2.6325e-06 	9.9379e-15
0.164503 	87.4194 	2.6325e-06 	9.93791e-15
0.164757 	87.2721 	2.6325e-06 	9.93792e-15
0.165011 	87.1248 	2.6325e-06 	9.93793e-15
0.165265 	86.9774 	2.6325e-06 	9.93794e-15
0.16552 	86.8301 	2.6325e-06 	9.93795e-15
0.165774 	86.6828 	2.6325e-06 	9.93796e-15
0.166028 	86.5355 	2.6325e-06 	9.93797e-15
0.166282 	86.3881 	2.6325e-06 	9.93798e-15
0.166537 	86.2408 	2.6325e-06 	9.93799e-15
0.166791 	86.0933 	2.65225e-06 	9.76372e-15
0.167045 	85.9437 	2.65225e-06 	9.76373e-15
0.167299 	85.7941 	2.65225e-06 	9.76374e-15
0.167554 	85.6445 	2.65225e-06 	9.76375e-15
0.167808 	85.4949 	2.65225e-06 	9.76376e-15
0.168062 	85.3454 	2.65225e-06 	9.76377e-15
0.168316 	85.1958 	2.65225e-06 	9.76378e-15
0.168571 	85.0462 	2.65225e-06 	9.76379e-15
0.168825 	84.8966 	2.65225e-06 	9.7638e-15
0.169079 	84.747 	2.65225e-06 	9.76381e-15
0.169333 	84.5974 	2.01277e-06 	1.83084e-17
0.169588 	84.4471 	2.65944e-06 	9.63482e-15
0.169842 	84.2968 	2.65944e-06 	9.63483e-15