/*--------------------------------*- C++ -*----------------------------------*\
| =========                 |                                                 |
| \\      /  F ield         | OpenFOAM: The Open Source CFD Toolbox           |
|  \\    /   O peration     | Version:  v3.0+                                 |
|   \\  /    A nd           | Web:      www.OpenFOAM.com                      |
|    \\/     M anipulation  |                                                 |
\*---------------------------------------------------------------------------*/
FoamFile
{
    version     2.0;
    format      ascii;
    class       volVectorField;
    location    "7000";
    object      D;
}
// * * * * * * * * * * * * * * * * * * * * * * * * * * * * * * * * * * * * * //

dimensions      [0 1 0 0 0 0 0];

internalField   nonuniform List<vector> 
24076
(
(4.25843e-06 4.18964e-06 0)
(4.80504e-09 5.34748e-08 0)
(3.75583e-11 7.54111e-10 0)
(3.80833e-11 7.32339e-10 0)
(1.1176e-06 3.26699e-06 0)
(6.13789e-09 6.35301e-08 0)
(4.643e-09 5.376e-08 0)
(4.35846e-06 4.2202e-06 0)
(-3.71144e-12 5.59915e-11 0)
(9.87555e-06 3.06408e-05 0)
(-1.31014e-06 2.79253e-06 0)
(1.007e-05 3.09456e-05 0)
(1.72671e-06 1.79445e-06 0)
(1.02809e-06 3.25049e-06 0)
(1.07431e-05 2.49965e-05 0)
(1.82885e-06 2.35301e-05 0)
(-1.86225e-05 0.00015584 0)
(2.10834e-05 0.000155939 0)
(1.10498e-06 1.29295e-05 0)
(2.05841e-06 2.36608e-05 0)
(1.04726e-05 2.48084e-05 0)
(-1.27143e-06 5.51113e-06 0)
(6.00922e-09 8.58635e-08 0)
(-1.2608e-06 2.7245e-06 0)
(3.47619e-07 1.41365e-06 0)
(9.30085e-07 1.2873e-05 0)
(-1.40097e-07 2.24468e-07 0)
(5.9979e-09 6.26353e-08 0)
(1.34547e-07 2.7942e-05 0)
(2.73597e-07 1.39168e-06 0)
(-2.6067e-07 2.79084e-05 0)
(1.28858e-10 1.29902e-08 0)
(3.86367e-06 1.56144e-05 0)
(2.22412e-06 6.40398e-06 0)
(4.05679e-06 1.56738e-05 0)
(7.41086e-06 2.26939e-05 0)
(1.80696e-06 1.8698e-06 0)
(-1.85393e-05 0.000157003 0)
(2.10291e-05 0.000157114 0)
(3.49057e-06 2.07542e-06 0)
(-6.78859e-07 4.14162e-07 0)
(-8.23513e-07 5.72659e-05 0)
(1.59608e-06 2.32021e-06 0)
(2.12382e-06 6.41118e-06 0)
(7.13293e-06 2.25745e-05 0)
(-7.20225e-06 2.12818e-05 0)
(8.19948e-10 5.80071e-08 0)
(3.46013e-06 3.06114e-05 0)
(-1.49018e-07 2.29177e-07 0)
(-5.21095e-06 2.26594e-05 0)
(1.24225e-10 1.9399e-09 0)
(-1.24498e-07 2.04228e-07 0)
(-1.01647e-11 7.22821e-11 0)
(5.90122e-09 6.89276e-08 0)
(-3.71281e-12 5.99423e-11 0)
(1.00453e-05 8.33767e-05 0)
(1.51218e-06 5.64093e-06 0)
(6.32604e-06 9.18536e-06 0)
(4.40049e-06 0.000416016 0)
(1.08061e-05 8.34887e-05 0)
(-7.24862e-06 2.15628e-05 0)
(-1.21129e-09 2.60172e-08 0)
(-4.93937e-06 9.19191e-06 0)
(-4.93624e-06 2.25211e-05 0)
(-8.45194e-07 3.02943e-06 0)
(6.2008e-06 9.18346e-06 0)
(1.92118e-06 5.15134e-06 0)
(-7.62564e-07 3.01923e-06 0)
(2.20531e-09 3.90865e-08 0)
(1.94706e-06 5.06442e-06 0)
(3.06229e-06 0.000412878 0)
(-4.32693e-09 1.12877e-07 0)
(-1.06073e-05 5.9803e-05 0)
(-5.64448e-10 6.08955e-09 0)
(-6.70522e-07 4.08871e-07 0)
(3.17087e-06 3.05402e-05 0)
(-1.36963e-06 5.58267e-06 0)
(-1.09969e-05 6.02763e-05 0)
(3.83175e-06 6.27561e-06 0)
(-4.83163e-06 9.05152e-06 0)
(1.23537e-09 5.84282e-08 0)
(4.83509e-06 5.33255e-05 0)
(-3.81202e-07 7.3332e-06 0)
(3.73734e-08 2.28956e-06 0)
(-4.04001e-07 3.46183e-07 0)
(-8.91947e-12 6.235e-11 0)
(1.284e-05 0.000259004 0)
(-1.14131e-05 8.84464e-05 0)
(4.74038e-07 0.000412237 0)
(1.0732e-05 0.000259186 0)
(4.42824e-06 5.36657e-05 0)
(2.90298e-06 0.000418344 0)
(-2.00699e-06 9.76651e-06 0)
(1.60212e-06 5.69094e-06 0)
(-6.06713e-10 2.35574e-06 0)
(-1.13575e-06 1.1878e-06 0)
(-2.16218e-06 0.000175607 0)
(7.918e-06 0.000267375 0)
(3.14223e-11 1.25969e-08 0)
(1.76008e-06 3.85833e-06 0)
(-4.43985e-07 7.46542e-06 0)
(-9.67165e-07 1.94027e-06 0)
(-5.26967e-07 5.77981e-05 0)
(3.75908e-06 6.17141e-06 0)
(-9.61023e-07 3.95628e-05 0)
(-7.36209e-07 5.09166e-07 0)
(-1.70088e-10 2.54339e-09 0)
(-6.25723e-10 1.07323e-07 0)
(-2.90366e-06 7.72931e-06 0)
(-3.07355e-06 4.26738e-05 0)
(-2.43796e-06 0.000177105 0)
(2.73915e-06 3.10057e-05 0)
(-2.8665e-12 1.68307e-10 0)
(-1.34602e-09 2.54775e-08 0)
(1.85119e-05 0.000336355 0)
(1.06613e-10 1.89179e-09 0)
(-1.13248e-06 2.9005e-06 0)
(-2.67707e-06 4.25158e-05 0)
(7.56906e-06 0.000269085 0)
(-3.52783e-06 4.2558e-05 0)
(6.52646e-07 3.46887e-05 0)
(-5.90748e-06 3.43487e-05 0)
(-7.12397e-07 5.20619e-07 0)
(3.39528e-06 2.01966e-06 0)
(7.17453e-06 2.63122e-05 0)
(-1.16523e-05 8.92223e-05 0)
(-2.93668e-06 7.85659e-06 0)
(8.26397e-06 4.37316e-05 0)
(-1.2739e-06 3.92484e-05 0)
(4.99807e-10 9.08968e-09 0)
(-5.8896e-06 3.39907e-05 0)
(-3.76562e-06 4.22464e-05 0)
(-4.15069e-06 8.1054e-05 0)
(5.58056e-09 8.66905e-08 0)
(-1.95423e-06 9.89572e-06 0)
(-1.68223e-07 2.23503e-07 0)
(1.36422e-06 9.32716e-06 0)
(1.51472e-06 2.2563e-06 0)
(3.28247e-06 0.000237575 0)
(1.67352e-06 1.01262e-05 0)
(1.81951e-06 1.01565e-05 0)
(-3.52207e-12 1.58657e-10 0)
(-1.15331e-08 2.76133e-08 0)
(-2.83309e-06 0.000198785 0)
(1.60473e-05 0.000205478 0)
(2.86224e-06 3.07015e-05 0)
(-4.40538e-06 8.17247e-05 0)
(1.05141e-05 0.000120699 0)
(1.2897e-06 1.11341e-05 0)
(1.87381e-10 4.27761e-09 0)
(-5.07382e-06 1.90885e-05 0)
(-3.59245e-13 2.77576e-12 0)
(1.61641e-06 5.62913e-07 0)
(1.63848e-06 2.99224e-06 0)
(4.45767e-06 8.89636e-06 0)
(2.68736e-06 5.47167e-05 0)
(3.60082e-06 2.58299e-06 0)
(-6.73385e-07 3.49834e-05 0)
(1.27944e-06 9.4258e-06 0)
(-2.60526e-11 9.25075e-10 0)
(1.88665e-08 -4.49498e-08 0)
(-3.71518e-12 4.4908e-11 0)
(1.25308e-05 3.26373e-05 0)
(-3.31456e-06 6.53206e-06 0)
(1.28213e-06 8.57369e-05 0)
(2.52221e-05 0.000238586 0)
(-2.30408e-05 0.000238591 0)
(-1.90384e-06 1.41057e-05 0)
(-1.29907e-06 4.20333e-06 0)
(-5.22975e-07 2.64903e-07 0)
(3.07459e-06 8.90804e-06 0)
(2.06387e-09 1.02858e-07 0)
(3.03138e-07 1.6239e-05 0)
(3.04519e-06 1.33778e-05 0)
(-3.28893e-06 1.41363e-05 0)
(5.47644e-06 1.41392e-05 0)
(-1.14528e-05 8.35636e-05 0)
(1.36018e-05 8.35687e-05 0)
(1.19379e-05 3.5316e-05 0)
(-5.66848e-06 1.76579e-05 0)
(-4.67874e-06 9.0378e-06 0)
(-9.09357e-10 6.66582e-09 0)
(2.84356e-06 6.10549e-06 0)
(-1.77e-07 -1.80164e-08 0)
(-1.93949e-07 -8.20696e-09 0)
(-1.02619e-07 4.1221e-06 0)
(-1.3184e-06 4.30806e-06 0)
(-6.04929e-07 5.16683e-07 0)
(-1.70518e-06 3.31081e-06 0)
(1.04973e-06 5.53593e-07 0)
(1.20811e-09 1.63466e-08 0)
(-3.46622e-06 1.93209e-05 0)
(-1.3292e-05 0.000230815 0)
(-6.98492e-06 5.37558e-05 0)
(6.33737e-06 5.0539e-05 0)
(7.66991e-06 1.49037e-05 0)
(5.85404e-09 6.56922e-08 0)
(1.229e-05 8.26149e-05 0)
(-1.01316e-05 8.26021e-05 0)
(-5.48775e-06 1.49017e-05 0)
(2.83995e-06 5.99317e-06 0)
(-5.52634e-07 4.70801e-07 0)
(-2.34601e-05 0.000264802 0)
(2.5645e-05 0.000264802 0)
(3.88912e-06 0.000206568 0)
(1.45505e-06 3.36558e-06 0)
(-6.37315e-06 2.01189e-05 0)
(-1.2477e-05 0.000114916 0)
(3.08036e-06 2.10214e-06 0)
(6.13844e-08 1.63102e-05 0)
(-2.61351e-09 6.92732e-08 0)
(1.64117e-06 1.84758e-05 0)
(-4.78497e-08 1.54876e-07 0)
(-5.17732e-06 1.87912e-05 0)
(-3.94895e-12 4.45506e-11 0)
(5.00081e-07 1.34881e-05 0)
(-1.74484e-07 2.26938e-07 0)
(-5.02614e-06 1.20321e-05 0)
(-2.65795e-05 0.000401777 0)
(2.87649e-05 0.000401777 0)
(-5.35146e-07 0.000148247 0)
(1.11017e-05 2.49086e-05 0)
(4.96786e-06 4.19319e-06 0)
(-1.08928e-06 6.65126e-06 0)
(8.13041e-06 1.75262e-05 0)
(-6.16948e-11 3.88146e-10 0)
(-4.6486e-11 8.48576e-10 0)
(-7.37048e-06 4.51083e-05 0)
(-7.86145e-11 5.35688e-10 0)
(9.304e-06 0.00025666 0)
(-3.36607e-11 8.63384e-10 0)
(-3.54318e-06 1.95612e-05 0)
(-8.86885e-11 1.54463e-09 0)
(-1.01922e-09 7.59918e-09 0)
(1.63328e-06 7.3292e-06 0)
(6.19946e-06 9.3738e-05 0)
(-8.44081e-07 7.4557e-07 0)
(8.34978e-07 1.9645e-07 0)
(-7.09267e-06 8.4104e-05 0)
(-1.37211e-05 6.02016e-05 0)
(1.595e-05 6.02187e-05 0)
(-4.17251e-07 3.50593e-07 0)
(-9.22766e-06 0.000107081 0)
(-8.31795e-06 0.000106258 0)
(2.0082e-05 0.000111293 0)
(-1.79962e-05 0.00011132 0)
(-7.02739e-06 6.10002e-05 0)
(7.93013e-06 1.5e-05 0)
(-5.74847e-06 1.49981e-05 0)
(-1.15361e-06 2.48413e-06 0)
(-1.79767e-05 0.000200436 0)
(5.81868e-06 0.000172974 0)
(6.18189e-08 -5.11818e-08 0)
(5.4237e-06 7.16631e-06 0)
(2.09584e-05 0.000111774 0)
(-1.87741e-05 0.000111775 0)
(2.20721e-09 3.35601e-08 0)
(-5.73765e-11 1.11349e-08 0)
(-7.0201e-08 1.5983e-07 0)
(8.18215e-06 0.000244009 0)
(1.54559e-06 2.92745e-06 0)
(5.74543e-06 5.65107e-06 0)
(5.91628e-06 1.68261e-05 0)
(-2.47262e-12 4.76525e-11 0)
(-1.86407e-06 8.60557e-06 0)
(4.50009e-07 1.38798e-06 0)
(-6.26976e-06 1.98885e-05 0)
(2.07648e-06 4.97755e-05 0)
(-6.65724e-06 5.40992e-05 0)
(3.4184e-11 5.041e-10 0)
(-1.41751e-05 0.000190477 0)
(1.64559e-05 0.000190516 0)
(5.29537e-06 7.09867e-06 0)
(2.25286e-06 3.17082e-05 0)
(-2.19439e-07 2.65538e-07 0)
(-7.69082e-06 7.52344e-05 0)
(-1.19011e-05 9.12018e-05 0)
(2.17475e-09 1.0193e-07 0)
(-5.96729e-06 2.19018e-05 0)
(1.2786e-05 3.29546e-05 0)
(1.43444e-10 3.1145e-09 0)
(-2.37769e-07 0.000212045 0)
(1.20908e-06 9.03455e-05 0)
(-1.31305e-07 1.93533e-07 0)
(9.96209e-07 8.32584e-06 0)
(-8.14403e-07 6.98616e-07 0)
(-1.26376e-09 1.24765e-08 0)
(6.40397e-06 1.68715e-05 0)
(-2.30199e-06 3.32217e-06 0)
(2.72619e-06 5.29776e-06 0)
(-4.24e-06 0.000198461 0)
(4.4454e-06 5.09242e-06 0)
(2.96922e-06 1.3536e-05 0)
(1.61744e-06 3.94393e-06 0)
(2.61588e-05 0.000240476 0)
(-2.39739e-05 0.000240476 0)
(-3.81256e-06 2.00189e-05 0)
(1.53995e-11 7.78426e-10 0)
(-2.79466e-10 3.02762e-09 0)
(6.02562e-06 3.65793e-05 0)
(-7.33405e-06 6.16448e-05 0)
(9.59694e-06 6.1689e-05 0)
(-1.0415e-05 0.000122592 0)
(1.26351e-05 0.000122686 0)
(-8.25394e-07 6.78205e-07 0)
(-4.32649e-12 1.15559e-10 0)
(-6.95728e-07 0.000151224 0)
(-7.15705e-06 4.46903e-05 0)
(-1.45655e-07 6.58365e-06 0)
(-4.05481e-06 0.000179321 0)
(-1.27228e-06 2.8722e-05 0)
(1.57804e-06 4.96397e-05 0)
(3.17229e-12 9.26423e-11 0)
(-4.80309e-06 2.72359e-05 0)
(-2.20965e-06 1.87806e-05 0)
(6.78901e-06 8.974e-06 0)
(5.09056e-06 2.71499e-05 0)
(-2.47363e-10 1.46288e-09 0)
(-1.65838e-06 2.00037e-06 0)
(5.61938e-07 1.33059e-05 0)
(1.00363e-05 6.69099e-05 0)
(-5.95643e-06 1.75518e-05 0)
(-4.47141e-06 2.71618e-05 0)
(-1.35322e-09 1.97966e-08 0)
(5.48749e-09 6.8487e-08 0)
(5.65077e-06 1.69486e-05 0)
(2.43694e-05 0.000181321 0)
(-2.21919e-05 0.000181312 0)
(3.16264e-06 2.20077e-06 0)
(-1.81344e-07 2.95804e-06 0)
(-3.5164e-07 8.45386e-06 0)
(1.42663e-05 8.29737e-05 0)
(-1.20857e-05 8.29722e-05 0)
(2.08392e-06 9.06478e-05 0)
(6.5242e-06 4.13736e-05 0)
(6.68803e-06 1.58192e-05 0)
(-1.19318e-06 2.86772e-06 0)
(6.68185e-09 7.40238e-08 0)
(-3.7245e-06 1.10045e-05 0)
(1.05643e-06 8.23979e-07 0)
(-4.01631e-06 7.1917e-06 0)
(-3.66784e-07 0.00016056 0)
(2.07029e-09 3.08461e-08 0)
(-6.99234e-06 9.20058e-05 0)
(1.08758e-06 3.47404e-05 0)
(-8.67842e-07 7.58846e-07 0)
(-7.29513e-08 1.66492e-07 0)
(1.0163e-07 4.69674e-06 0)
(2.65431e-06 5.55299e-05 0)
(9.15409e-06 3.03348e-05 0)
(-1.09722e-06 4.36773e-06 0)
(3.93845e-07 3.07433e-06 0)
(-7.15177e-06 4.30434e-05 0)
(1.76852e-06 1.38686e-05 0)
(5.09121e-06 5.94496e-06 0)
(5.98249e-06 5.01017e-05 0)
(4.89647e-06 1.50067e-05 0)
(1.50842e-06 1.1644e-05 0)
(-1.49363e-05 0.000229639 0)
(4.81583e-07 1.15635e-06 0)
(1.11219e-06 3.35062e-05 0)
(5.0526e-06 8.93352e-06 0)
(2.23256e-06 5.22145e-06 0)
(-1.2687e-09 3.11271e-08 0)
(-4.97597e-06 9.91072e-06 0)
(7.52917e-08 4.89134e-09 0)
(-9.15514e-07 2.88627e-05 0)
(8.69148e-06 3.03265e-05 0)
(3.57548e-06 6.21973e-06 0)
(1.51795e-06 1.82907e-05 0)
(5.2054e-06 5.99073e-06 0)
(8.65591e-07 1.45765e-06 0)
(1.0584e-05 2.62174e-05 0)
(-2.8383e-08 1.31058e-07 0)
(7.59841e-06 1.46799e-05 0)
(-5.41638e-06 1.46775e-05 0)
(-9.52243e-11 3.6272e-09 0)
(-1.59944e-05 0.000160758 0)
(1.81614e-05 0.000160567 0)
(-1.26873e-07 2.07853e-07 0)
(-6.69638e-07 5.7634e-07 0)
(-9.95414e-07 3.5316e-05 0)
(1.49869e-06 8.76482e-07 0)
(-4.86061e-07 1.81268e-06 0)
(-8.06615e-06 6.02346e-05 0)
(1.29004e-09 2.36451e-08 0)
(-1.60397e-06 1.34423e-05 0)
(2.33644e-09 1.02479e-07 0)
(9.51469e-12 5.52556e-10 0)
(4.18109e-06 5.36232e-06 0)
(2.68928e-07 2.77628e-06 0)
(-2.50259e-05 0.000263699 0)
(2.72108e-05 0.000263698 0)
(9.76536e-06 0.00024506 0)
(-1.33154e-05 0.000114221 0)
(-5.22449e-06 1.45241e-05 0)
(7.40685e-06 1.45267e-05 0)
(-2.27307e-06 4.86442e-06 0)
(-7.48112e-06 6.0183e-05 0)
(1.71708e-06 3.93409e-06 0)
(-5.85843e-06 2.7408e-05 0)
(1.08858e-05 9.13357e-05 0)
(-6.25477e-12 4.2711e-10 0)
(-7.40172e-07 2.5295e-06 0)
(9.52221e-06 2.14269e-05 0)
(-1.35118e-05 0.000192043 0)
(1.58507e-05 0.000192078 0)
(4.33735e-06 3.59565e-05 0)
(1.62403e-06 1.51252e-05 0)
(-2.76985e-06 0.000212004 0)
(-8.57053e-06 2.21624e-05 0)
(1.27693e-05 4.77815e-05 0)
(4.97217e-12 5.28529e-10 0)
(8.05633e-07 1.56477e-05 0)
(6.68699e-06 0.000174696 0)
(1.01088e-06 5.92598e-07 0)
(1.40525e-05 0.000203241 0)
(5.95607e-12 1.41575e-10 0)
(-2.3138e-06 3.37977e-06 0)
(-9.99978e-06 0.000121587 0)
(1.22183e-05 0.000121675 0)
(-1.86197e-06 8.73027e-06 0)
(2.51352e-06 2.63682e-06 0)
(-6.59256e-07 1.25857e-06 0)
(7.24086e-06 0.000262392 0)
(-1.1433e-06 4.29821e-06 0)
(1.54792e-06 3.36916e-06 0)
(3.14607e-06 5.32405e-06 0)
(-3.56543e-07 8.57708e-06 0)
(-6.86056e-08 1.59231e-07 0)
(4.64354e-06 7.43563e-06 0)
(-2.50066e-06 2.68427e-05 0)
(-5.83811e-08 4.19597e-06 0)
(1.36566e-06 6.53109e-06 0)
(1.34202e-05 0.000194157 0)
(-1.33835e-06 2.1062e-05 0)
(7.93347e-09 6.88537e-08 0)
(5.38411e-06 0.000165521 0)
(-7.00159e-07 5.81215e-07 0)
(2.10151e-06 3.51447e-06 0)
(4.42113e-10 1.64549e-08 0)
(-9.31658e-08 1.62908e-07 0)
(-1.53435e-06 2.53396e-06 0)
(2.69905e-06 5.21197e-06 0)
(9.17508e-07 8.65144e-05 0)
(5.58649e-06 5.75196e-06 0)
(5.02369e-09 5.81957e-08 0)
(1.2228e-05 4.80126e-05 0)
(-5.20211e-06 5.88783e-05 0)
(2.6476e-06 1.17015e-05 0)
(1.3435e-06 6.42908e-06 0)
(-6.95313e-06 8.5027e-05 0)
(1.51632e-05 0.000289005 0)
(1.12655e-05 5.44593e-05 0)
(2.36647e-06 3.04847e-06 0)
(-2.14267e-10 5.87813e-09 0)
(1.59844e-05 0.000336567 0)
(1.57149e-09 3.69826e-08 0)
(-6.9263e-10 4.54575e-09 0)
(2.55239e-07 2.13246e-06 0)
(-4.56778e-09 6.61388e-06 0)
(1.26909e-05 4.18834e-05 0)
(3.62696e-06 6.14457e-06 0)
(-1.83874e-10 2.17179e-09 0)
(-5.39277e-12 3.83017e-11 0)
(-1.69212e-05 0.000133732 0)
(1.93503e-05 0.000133805 0)
(8.73001e-06 4.39474e-05 0)
(-1.49884e-09 1.86029e-08 0)
(-1.25625e-06 1.38021e-06 0)
(-4.28618e-12 1.39465e-10 0)
(8.03088e-07 1.14121e-05 0)
(-1.70138e-06 8.02693e-06 0)
(-1.00509e-05 4.80343e-05 0)
(-1.46613e-05 0.000160522 0)
(1.68292e-05 0.000160331 0)
(3.86348e-06 4.13805e-06 0)
(6.56567e-06 3.88725e-05 0)
(-1.16066e-10 1.31176e-09 0)
(2.94589e-06 6.50141e-06 0)
(1.78861e-06 2.435e-06 0)
(-6.41549e-06 6.08756e-05 0)
(-5.17559e-06 4.94716e-05 0)
(6.87911e-06 9.14607e-06 0)
(3.31593e-06 8.36038e-06 0)
(1.40259e-06 1.41887e-06 0)
(5.30361e-06 3.3459e-05 0)
(-3.35549e-06 6.45511e-06 0)
(1.00275e-05 0.000112184 0)
(9.71533e-06 6.77638e-05 0)
(2.32791e-05 0.000180095 0)
(-2.11016e-05 0.000180086 0)
(-1.95383e-08 1.31828e-07 0)
(1.07715e-05 2.21751e-05 0)
(-1.82225e-06 8.00723e-06 0)
(8.45579e-06 0.000131627 0)
(-7.78452e-10 6.29277e-09 0)
(-1.67394e-05 0.000176544 0)
(-2.9962e-10 2.64742e-09 0)
(1.19484e-05 0.000104186 0)
(-1.4687e-06 1.35389e-05 0)
(8.77411e-06 1.91197e-05 0)
(-1.03489e-11 4.18395e-10 0)
(6.75126e-07 0.000256934 0)
(-6.65533e-09 6.04925e-08 0)
(-5.68508e-07 1.55516e-05 0)
(-4.82224e-07 1.19739e-05 0)
(6.07897e-06 1.64075e-05 0)
(-3.61335e-06 6.22488e-06 0)
(-6.67856e-06 3.12987e-05 0)
(-1.21603e-05 5.49785e-05 0)
(-1.78435e-07 2.44003e-07 0)
(1.42581e-05 0.000195644 0)
(1.20361e-05 5.55796e-05 0)
(5.92826e-13 5.175e-11 0)
(2.7532e-06 1.2974e-06 0)
(1.31427e-05 0.000227794 0)
(-9.95634e-09 6.55755e-08 0)
(-2.01826e-06 5.18564e-06 0)
(6.80747e-06 9.82953e-05 0)
(2.0411e-07 2.06464e-06 0)
(2.08172e-06 0.000135507 0)
(-1.64829e-06 3.22565e-06 0)
(-5.73468e-10 5.5756e-09 0)
(-6.12561e-07 6.55553e-07 0)
(5.1312e-10 1.15834e-08 0)
(1.76465e-06 1.53073e-05 0)
(-1.78916e-05 0.000292554 0)
(1.99474e-05 0.000292506 0)
(-3.42676e-06 2.66997e-05 0)
(-1.53965e-09 1.92713e-08 0)
(4.7301e-06 4.29966e-06 0)
(-1.22553e-09 9.93032e-09 0)
(8.64842e-06 3.24364e-05 0)
(2.62285e-05 0.000418324 0)
(-2.40638e-05 0.000418303 0)
(-1.09948e-11 1.66124e-10 0)
(-8.64398e-09 1.1939e-07 0)
(4.84781e-06 4.1079e-06 0)
(-3.68078e-06 3.54085e-05 0)
(-2.288e-06 4.76852e-06 0)
(2.76695e-07 2.70221e-06 0)
(9.52977e-06 0.000262233 0)
(-1.47146e-06 4.47953e-05 0)
(6.42633e-11 8.0622e-10 0)
(1.15833e-06 5.31859e-05 0)
(2.14159e-05 0.000276933 0)
(-1.90867e-05 0.000277042 0)
(-1.15912e-11 7.24619e-10 0)
(1.19814e-10 3.03242e-09 0)
(6.56869e-06 4.45535e-05 0)
(-1.51402e-05 0.000292887 0)
(1.72037e-05 0.000293044 0)
(4.98207e-06 1.02508e-05 0)
(3.87735e-07 7.43028e-06 0)
(-1.112e-10 1.24703e-09 0)
(1.00683e-05 0.000279661 0)
(5.72729e-06 1.56151e-05 0)
(5.1118e-07 5.47432e-06 0)
(1.79116e-05 0.000106668 0)
(-1.57273e-05 0.000106667 0)
(-5.61679e-06 1.55726e-05 0)
(7.80695e-06 1.55704e-05 0)
(5.26783e-06 5.24496e-06 0)
(-1.39843e-12 8.26431e-12 0)
(1.02563e-10 2.12615e-08 0)
(9.67129e-07 1.86746e-05 0)
(3.60593e-06 3.61738e-05 0)
(-2.13035e-10 1.43829e-09 0)
(5.49182e-06 6.27527e-06 0)
(1.4004e-06 2.27553e-06 0)
(3.12888e-12 6.19338e-10 0)
(1.21033e-05 6.84137e-05 0)
(-2.02256e-05 0.000267645 0)
(2.24105e-05 0.000267645 0)
(-7.13569e-07 1.25644e-06 0)
(-2.60265e-06 3.26245e-05 0)
(5.55231e-06 1.56438e-05 0)
(1.47873e-05 0.000291209 0)
(1.07601e-06 1.39518e-05 0)
(-1.04108e-10 1.98617e-09 0)
(4.54434e-06 5.09868e-06 0)
(-2.44885e-11 1.48216e-09 0)
(-3.63144e-09 6.31317e-08 0)
(-5.84857e-06 5.86072e-05 0)
(-5.23738e-07 4.19433e-07 0)
(-7.70382e-07 1.567e-05 0)
(-1.89705e-06 2.41595e-06 0)
(2.27746e-05 0.000278875 0)
(-2.05093e-05 0.000278937 0)
(5.08796e-06 0.000164139 0)
(1.11208e-05 0.000282059 0)
(-2.68261e-06 3.29769e-05 0)
(-3.398e-07 3.19201e-07 0)
(2.86585e-06 6.55542e-06 0)
(-3.93605e-08 1.40519e-07 0)
(5.21288e-06 3.37777e-05 0)
(-1.84128e-10 2.39243e-09 0)
(-3.36514e-06 7.5523e-06 0)
(-7.13589e-06 3.15108e-05 0)
(-3.72068e-06 1.64086e-05 0)
(1.70335e-06 1.40367e-05 0)
(-1.36903e-06 2.13789e-05 0)
(1.98493e-06 3.02753e-06 0)
(-1.8769e-07 4.67809e-06 0)
(1.54744e-05 0.000204015 0)
(2.78775e-06 1.79803e-06 0)
(4.83461e-06 1.02947e-05 0)
(-4.93746e-06 1.2158e-05 0)
(6.36436e-06 3.92798e-05 0)
(6.59852e-07 3.20218e-06 0)
(3.2313e-06 1.24558e-05 0)
(-2.15625e-06 9.52307e-05 0)
(-5.42227e-07 4.28423e-07 0)
(1.13584e-05 5.51243e-05 0)
(1.1406e-05 2.52297e-05 0)
(-6.93909e-07 6.00329e-07 0)
(-1.04825e-05 0.000213404 0)
(1.27469e-05 0.000213358 0)
(4.6875e-09 6.86624e-08 0)
(-3.12531e-06 0.000249876 0)
(-1.14928e-06 6.77016e-06 0)
(4.11177e-11 1.37855e-09 0)
(6.65894e-06 1.69824e-05 0)
(-1.4327e-05 9.04461e-05 0)
(2.58996e-05 0.000321729 0)
(-2.37503e-05 0.000321759 0)
(-6.6176e-06 3.73745e-05 0)
(-2.20474e-12 6.20568e-10 0)
(4.19038e-07 1.16757e-05 0)
(-6.13607e-06 2.35142e-05 0)
(1.61975e-06 5.82522e-06 0)
(-7.86246e-06 7.59541e-05 0)
(-3.163e-06 2.68911e-05 0)
(1.1666e-09 3.52924e-08 0)
(-6.84154e-11 5.5559e-10 0)
(1.51138e-06 1.95711e-05 0)
(1.04749e-05 0.000115036 0)
(2.85017e-06 0.000136564 0)
(-5.79884e-07 1.21457e-05 0)
(-2.39391e-11 1.4308e-09 0)
(-2.49685e-11 1.68653e-10 0)
(-5.83752e-06 2.34939e-05 0)
(-4.94436e-07 2.48727e-07 0)
(-1.57809e-05 0.000175395 0)
(1.58742e-06 5.87293e-07 0)
(2.9601e-06 5.4324e-06 0)
(-1.97345e-06 1.8828e-05 0)
(-2.43019e-10 1.63025e-09 0)
(-6.2039e-07 4.93674e-07 0)
(1.27199e-05 5.53504e-05 0)
(1.38122e-05 5.37565e-05 0)
(1.18804e-05 3.49332e-05 0)
(1.26636e-05 0.000203594 0)
(-6.18371e-06 0.000268337 0)
(7.56558e-06 9.91705e-05 0)
(1.98567e-06 7.44824e-06 0)
(2.54623e-06 1.18574e-05 0)
(1.06637e-05 2.66139e-05 0)
(-1.0595e-05 4.78e-05 0)
(-3.94858e-06 1.16905e-05 0)
(-7.92846e-06 3.13591e-05 0)
(-1.84762e-12 4.75881e-11 0)
(1.69912e-09 3.78295e-08 0)
(3.92265e-07 1.92613e-06 0)
(-4.29955e-06 8.73758e-06 0)
(-4.07637e-09 1.12082e-07 0)
(-3.7873e-06 3.57759e-05 0)
(2.13222e-06 7.28439e-06 0)
(1.60068e-06 5.29472e-05 0)
(-1.03258e-10 1.89744e-09 0)
(-2.28287e-06 2.25039e-05 0)
(1.89545e-06 7.52209e-06 0)
(-1.88085e-06 4.05395e-05 0)
(-1.11624e-06 1.14568e-06 0)
(2.76771e-05 0.000282559 0)
(-2.54922e-05 0.000282559 0)
(1.36607e-05 0.000230209 0)
(1.97065e-05 9.75046e-05 0)
(-1.7522e-05 9.75048e-05 0)
(-5.85198e-06 2.21531e-05 0)
(-1.59528e-06 1.93706e-06 0)
(1.12434e-09 2.54608e-08 0)
(-3.7023e-06 1.48137e-05 0)
(1.07023e-05 2.29318e-05 0)
(-2.22058e-07 2.66022e-07 0)
(-9.27311e-10 6.70641e-09 0)
(-2.37892e-05 0.000254859 0)
(2.59751e-05 0.000254859 0)
(3.43353e-06 8.42446e-06 0)
(-1.90594e-06 1.12554e-05 0)
(1.01224e-06 8.45461e-06 0)
(5.89593e-06 1.4827e-05 0)
(4.76595e-06 3.20298e-05 0)
(5.74402e-09 6.6512e-08 0)
(2.56629e-06 2.01127e-06 0)
(-3.61427e-06 6.33348e-06 0)
(8.91458e-07 8.55184e-06 0)
(-8.80292e-07 6.74243e-06 0)
(1.77895e-05 0.000107668 0)
(-1.56081e-05 0.000107653 0)
(-5.55615e-09 5.59807e-08 0)
(5.49422e-06 6.37025e-06 0)
(-8.09075e-12 8.3852e-11 0)
(4.97728e-06 6.17774e-06 0)
(-6.766e-11 7.16223e-10 0)
(3.58559e-06 1.43128e-05 0)
(4.31757e-06 3.20432e-05 0)
(1.24985e-07 -9.44672e-08 0)
(-8.52188e-06 2.29214e-05 0)
(-9.44272e-11 1.60611e-09 0)
(1.26421e-06 6.60073e-07 0)
(-7.93617e-07 6.30775e-07 0)
(3.7164e-06 1.41905e-05 0)
(1.27734e-09 5.69891e-08 0)
(-9.75393e-06 0.000214681 0)
(1.19729e-05 0.000214675 0)
(-4.57006e-06 8.88826e-06 0)
(8.70725e-06 2.30304e-05 0)
(1.4304e-06 1.93929e-06 0)
(-3.94542e-06 7.11416e-05 0)
(5.66438e-06 6.84272e-06 0)
(-1.40086e-06 1.51835e-06 0)
(4.63939e-09 8.9399e-08 0)
(1.12947e-06 1.89568e-05 0)
(8.54858e-07 0.000102016 0)
(1.90509e-10 7.16763e-09 0)
(-5.79073e-08 1.69697e-07 0)
(-2.27229e-06 5.66979e-06 0)
(-1.92744e-05 0.000243604 0)
(2.14594e-05 0.000243604 0)
(-6.87356e-07 2.46283e-06 0)
(-3.97883e-12 3.86198e-11 0)
(8.60407e-06 0.000236016 0)
(-4.59425e-07 9.34328e-06 0)
(-3.57458e-06 2.34467e-05 0)
(-8.93822e-07 6.85804e-06 0)
(6.77506e-06 4.41668e-05 0)
(-5.94839e-07 5.05786e-07 0)
(-5.49079e-06 1.3349e-05 0)
(7.67024e-06 1.33553e-05 0)
(-1.92003e-06 5.09241e-06 0)
(-2.26647e-08 -1.06419e-08 0)
(2.11408e-09 4.70462e-08 0)
(-7.20731e-06 3.20182e-05 0)
(3.39848e-06 1.25928e-05 0)
(5.55471e-06 6.81326e-06 0)
(4.52485e-06 3.50712e-06 0)
(1.42678e-05 8.77575e-05 0)
(8.95999e-08 -6.6352e-08 0)
(-5.69062e-07 4.83424e-07 0)
(-1.80834e-06 1.55366e-05 0)
(-8.1191e-07 1.14945e-05 0)
(-5.75465e-06 5.78921e-05 0)
(-7.04353e-06 3.77312e-05 0)
(4.21216e-07 5.47299e-06 0)
(-6.98606e-07 5.044e-07 0)
(4.84572e-07 0.000262811 0)
(-1.10853e-07 2.89773e-06 0)
(6.02014e-06 9.9771e-06 0)
(3.27153e-07 4.10936e-06 0)
(-1.08517e-07 1.80734e-07 0)
(-1.7903e-12 1.19875e-10 0)
(-1.0907e-06 3.83194e-06 0)
(-1.56192e-11 1.63729e-09 0)
(-3.57795e-06 1.6212e-05 0)
(-1.99986e-06 7.66789e-06 0)
(7.08767e-06 6.04718e-05 0)
(-6.63127e-08 1.57933e-07 0)
(-5.97439e-08 1.21766e-07 0)
(-2.55138e-05 0.000290125 0)
(2.7699e-05 0.000290125 0)
(-2.24842e-06 3.25386e-06 0)
(-5.33147e-07 6.70463e-07 0)
(-1.03001e-11 4.10611e-11 0)
(5.26492e-10 2.74153e-08 0)
(2.02588e-05 0.000113709 0)
(-1.81636e-05 0.000113718 0)
(-7.45794e-06 0.000131207 0)
(1.38138e-10 7.18868e-09 0)
(3.81383e-06 1.28209e-05 0)
(-8.51806e-07 7.41296e-07 0)
(-5.09955e-06 1.00227e-05 0)
(4.63113e-06 1.57285e-05 0)
(-8.72469e-07 6.44859e-07 0)
(-2.66732e-06 2.20907e-05 0)
(1.97774e-07 -4.34565e-08 0)
(-2.59289e-07 1.72945e-07 0)
(-2.19749e-07 2.38268e-07 0)
(-1.63379e-06 2.09896e-06 0)
(4.81641e-07 1.32571e-06 0)
(2.98262e-06 5.58789e-06 0)
(3.9492e-06 1.42698e-05 0)
(-1.11051e-11 1.53823e-10 0)
(-9.36135e-07 1.87658e-06 0)
(-1.6457e-06 2.0019e-06 0)
(-1.99053e-06 4.45712e-06 0)
(2.21344e-06 7.36652e-06 0)
(3.23174e-09 9.05112e-08 0)
(-1.52318e-05 9.02554e-05 0)
(4.99588e-08 6.06981e-05 0)
(7.16539e-06 0.000257132 0)
(-3.04717e-07 1.29838e-07 0)
(1.06783e-06 2.47016e-05 0)
(2.16148e-09 3.47353e-08 0)
(4.33608e-10 9.03228e-09 0)
(1.11292e-06 7.85666e-07 0)
(2.07728e-06 3.03654e-06 0)
(6.29036e-06 1.64253e-05 0)
(5.05267e-06 0.000169663 0)
(7.72895e-06 0.000347511 0)
(5.30848e-06 0.000393619 0)
(1.79836e-06 8.99372e-06 0)
(3.19094e-06 6.16038e-06 0)
(1.65881e-09 2.85333e-08 0)
(-1.30952e-06 1.37762e-06 0)
(5.57801e-06 5.86548e-06 0)
(3.99957e-06 1.28908e-05 0)
(-6.60214e-12 4.57163e-11 0)
(-1.2237e-07 3.02015e-05 0)
(1.73595e-06 8.87292e-06 0)
(-1.66057e-07 2.36738e-07 0)
(4.39029e-06 6.22291e-05 0)
(5.32398e-06 8.52372e-05 0)
(5.44764e-07 1.55186e-05 0)
(1.04407e-05 2.67411e-05 0)
(2.87344e-06 5.38346e-06 0)
(-3.38563e-10 3.04408e-09 0)
(-3.81964e-06 2.36604e-05 0)
(-3.49951e-10 3.16253e-09 0)
(1.32566e-05 0.000106622 0)
(2.74297e-06 6.17036e-06 0)
(-2.65087e-06 4.02122e-05 0)
(4.49455e-06 9.55804e-05 0)
(1.29334e-10 4.40842e-09 0)
(-1.1709e-11 4.03165e-11 0)
(1.57019e-06 1.07979e-05 0)
(-1.25288e-09 1.08246e-07 0)
(2.61698e-06 5.04464e-06 0)
(-2.01961e-06 1.11701e-05 0)
(-2.90909e-06 1.19661e-05 0)
(-5.72795e-06 2.28058e-05 0)
(-1.84024e-05 0.000356723 0)
(2.0734e-05 0.000356741 0)
(3.878e-06 5.6334e-06 0)
(6.63899e-09 6.02629e-08 0)
(-1.58945e-06 3.56881e-06 0)
(6.13149e-06 9.91245e-06 0)
(-9.25143e-09 1.19869e-07 0)
(4.45594e-06 1.57363e-05 0)
(-1.41889e-06 1.52566e-06 0)
(-7.23301e-07 4.91464e-07 0)
(-1.54876e-06 1.51701e-05 0)
(5.27241e-07 0.000102928 0)
(-2.52069e-10 5.8117e-09 0)
(-5.20611e-06 1.02577e-05 0)
(-8.75389e-06 8.94773e-05 0)
(-2.67894e-07 2.89084e-07 0)
(1.60412e-06 1.79489e-06 0)
(-4.57382e-06 1.47931e-05 0)
(2.02446e-07 -8.17127e-08 0)
(6.75822e-06 1.47949e-05 0)
(-5.14665e-12 3.31971e-11 0)
(-8.16847e-06 2.09831e-05 0)
(1.73196e-06 5.63499e-06 0)
(-9.80373e-06 0.000304043 0)
(1.27619e-05 4.72815e-05 0)
(1.54052e-06 7.26185e-06 0)
(-2.25224e-07 2.45154e-07 0)
(-7.40966e-06 0.000359584 0)
(-1.99316e-12 1.91064e-11 0)
(4.89837e-09 4.35607e-08 0)
(-3.77008e-07 3.06884e-07 0)
(2.06335e-07 5.09981e-06 0)
(2.21744e-06 1.05875e-05 0)
(-4.3193e-06 9.43065e-05 0)
(7.60575e-06 1.22553e-05 0)
(4.43466e-12 1.39099e-10 0)
(-1.1514e-05 0.000126492 0)
(-1.20658e-09 3.2976e-08 0)
(-1.93273e-06 1.14509e-05 0)
(7.53487e-07 3.35008e-05 0)
(9.01084e-06 3.56929e-05 0)
(1.46125e-05 0.000100133 0)
(-1.24281e-05 0.000100133 0)
(1.35609e-05 0.000141965 0)
(-1.13502e-05 0.000141948 0)
(-7.65987e-12 7.64882e-11 0)
(-4.14684e-06 0.000177781 0)
(5.76094e-11 7.8534e-10 0)
(8.34135e-06 0.000170618 0)
(-1.28418e-06 2.50008e-05 0)
(5.19277e-06 5.02686e-06 0)
(6.35836e-06 3.64134e-05 0)
(2.42243e-09 1.02066e-07 0)
(4.80331e-06 4.26431e-06 0)
(1.42989e-06 8.09506e-07 0)
(4.18519e-06 7.09497e-06 0)
(9.20287e-06 4.28097e-05 0)
(2.60426e-05 0.000281588 0)
(-2.38576e-05 0.000281587 0)
(1.74025e-06 5.54509e-06 0)
(1.70309e-11 4.20266e-10 0)
(3.53195e-11 6.87755e-10 0)
(1.60083e-07 -8.20927e-08 0)
(5.45248e-06 5.64348e-06 0)
(-1.55243e-05 9.66116e-05 0)
(1.77088e-05 9.66114e-05 0)
(-2.37992e-06 5.95495e-05 0)
(4.4026e-07 3.00579e-06 0)
(-8.36981e-07 7.97156e-07 0)
(2.03324e-05 0.000114696 0)
(-1.81504e-05 0.000114724 0)
(1.43315e-05 0.00010519 0)
(6.65203e-07 1.15051e-05 0)
(2.62696e-06 9.49686e-06 0)
(1.46193e-05 0.000141658 0)
(-1.24082e-05 0.000141641 0)
(-2.69044e-06 0.000109053 0)
(5.16276e-13 5.08781e-11 0)
(1.58132e-06 1.86811e-06 0)
(1.77579e-06 1.97247e-06 0)
(-3.52354e-10 3.98221e-09 0)
(2.66403e-06 0.000267543 0)
(-3.10104e-06 7.60333e-06 0)
(5.86863e-06 8.14039e-05 0)
(-4.47738e-06 9.83139e-05 0)
(1.38179e-05 0.000158233 0)
(-1.16284e-05 0.000158305 0)
(-1.59607e-12 1.06398e-11 0)
(6.82126e-06 4.50161e-05 0)
(1.18279e-05 5.63169e-05 0)
(-1.46204e-06 2.47777e-06 0)
(-2.33634e-06 2.21631e-05 0)
(1.37118e-06 2.81738e-05 0)
(-6.53767e-11 6.49471e-10 0)
(9.2413e-06 2.14486e-05 0)
(-5.02557e-06 9.77676e-06 0)
(6.08788e-07 3.12895e-06 0)
(-2.89904e-10 3.17065e-09 0)
(-8.77034e-07 7.66095e-07 0)
(-1.3767e-06 3.69952e-06 0)
(-6.03482e-08 1.7278e-07 0)
(-4.60159e-06 0.000125506 0)
(1.9208e-06 1.89522e-06 0)
(-1.34158e-07 1.91324e-07 0)
(1.91402e-09 3.00919e-08 0)
(3.54042e-06 3.6559e-05 0)
(-3.86219e-06 1.09686e-05 0)
(-2.47091e-06 5.04475e-06 0)
(-4.34364e-11 8.24155e-10 0)
(2.39007e-06 2.97112e-06 0)
(-8.51666e-10 4.88798e-08 0)
(-2.34215e-06 4.96979e-06 0)
(3.24668e-06 6.25571e-06 0)
(6.49887e-06 0.00017122 0)
(-1.20379e-11 1.36247e-10 0)
(5.03598e-06 5.10072e-06 0)
(-2.44932e-05 0.000291887 0)
(2.66785e-05 0.000291887 0)
(3.70125e-10 1.18904e-08 0)
(-6.0091e-06 2.28017e-05 0)
(7.58177e-07 1.52982e-07 0)
(6.47588e-06 0.000344964 0)
(3.99095e-07 1.18645e-06 0)
(-6.09857e-09 5.95744e-08 0)
(-4.58762e-06 9.5227e-05 0)
(-1.58875e-09 2.34551e-08 0)
(-2.37398e-11 1.49197e-10 0)
(3.98518e-06 2.8769e-05 0)
(8.98905e-06 3.24011e-05 0)
(4.68295e-07 -2.40603e-08 0)
(4.04953e-06 2.48461e-05 0)
(-7.97633e-06 3.37347e-05 0)
(1.29034e-05 5.46738e-05 0)
(-8.0384e-07 9.85914e-07 0)
(-7.69892e-06 3.2679e-05 0)
(7.32051e-12 4.24793e-10 0)
(5.27143e-06 9.64176e-05 0)
(-1.0694e-06 2.46366e-05 0)
(-1.03419e-05 3.26158e-05 0)
(9.00014e-07 1.39532e-06 0)
(4.88306e-06 2.87387e-05 0)
(-9.48487e-08 4.6858e-06 0)
(1.81771e-10 4.42409e-09 0)
(-1.12568e-05 8.61495e-05 0)
(-2.97959e-06 7.61148e-06 0)
(2.90606e-06 5.62348e-06 0)
(7.6443e-07 3.24649e-06 0)
(9.23048e-06 2.66408e-05 0)
(1.314e-05 5.33983e-05 0)
(-5.51943e-06 2.73604e-05 0)
(1.44744e-05 5.3608e-05 0)
(-2.25425e-08 1.24663e-07 0)
(-2.71619e-06 1.49932e-05 0)
(6.1943e-06 4.10564e-05 0)
(-1.31871e-10 8.01611e-10 0)
(-1.66186e-06 0.000161202 0)
(-6.4062e-08 7.21355e-08 0)
(1.41884e-05 0.000106061 0)
(8.9532e-06 3.60607e-05 0)
(1.04407e-06 2.50969e-05 0)
(2.0002e-11 4.38605e-10 0)
(-7.87518e-07 3.74066e-05 0)
(-5.37548e-06 5.30913e-05 0)
(1.10207e-05 6.6702e-05 0)
(-7.9258e-08 1.56227e-07 0)
(-5.24385e-06 1.13992e-05 0)
(-4.56372e-07 2.95532e-07 0)
(-7.9682e-06 8.87615e-05 0)
(-1.45601e-07 -3.61033e-08 0)
(-2.01629e-07 8.34461e-06 0)
(-5.28812e-06 6.07318e-05 0)
(-8.34275e-10 2.80725e-08 0)
(-1.30411e-06 9.56305e-05 0)
(-8.92602e-06 5.41966e-05 0)
(-1.58022e-06 1.94856e-06 0)
(-3.58941e-12 3.13005e-11 0)
(-3.55466e-06 8.39869e-06 0)
(-9.35235e-06 4.03335e-05 0)
(-7.80097e-07 1.00983e-06 0)
(1.97433e-09 3.87849e-08 0)
(-1.73972e-06 3.65227e-06 0)
(2.67819e-06 2.07256e-06 0)
(-2.12716e-05 0.000154123 0)
(2.34554e-05 0.000154124 0)
(4.51256e-06 2.31392e-05 0)
(2.86586e-06 1.89043e-05 0)
(1.46497e-06 1.11582e-05 0)
(1.64356e-06 1.18787e-05 0)