/*--------------------------------*- C++ -*----------------------------------*\
| =========                 |                                                 |
| \\      /  F ield         | OpenFOAM: The Open Source CFD Toolbox           |
|  \\    /   O peration     | Version:  v3.0+                                 |
|   \\  /    A nd           | Web:      www.OpenFOAM.com                      |
|    \\/     M anipulation  |                                                 |
\*---------------------------------------------------------------------------*/
FoamFile
{
    version     2.0;
    format      ascii;
    class       volSymmTensorField;
    location    "7000";
    object      sigma;
}
// * * * * * * * * * * * * * * * * * * * * * * * * * * * * * * * * * * * * * //

dimensions      [1 -1 -2 0 0 0 0];

internalField   nonuniform List<symmTensor> 
24076
(
(-7.73848e+07 2.41606e+06 -4.95225e-12 713037 1.3552e-13 -1.90238e+07)
(-7459.34 -87661.9 4.17799e-15 1.02642e+06 -7.36756e-15 252825)
(-192.962 -1928.32 -5.92594e-17 15178.9 1.52298e-16 3718.32)
(342.917 -1451.2 -1.73527e-17 15678.8 1.19718e-16 3975.31)
(-1.15256e+07 4.38504e+06 2.6776e-12 6.02906e+06 -9.74921e-13 -1.3638e+06)
(-3728.38 -67143 1.38095e-15 1.19265e+06 4.39064e-14 294994)
(7113.33 -101586 -1.01486e-16 1.06414e+06 -1.3956e-14 265800)
(-8.25262e+07 1.45767e+06 -6.28144e-12 436040 1.57661e-12 -2.03682e+07)
(257.24 -947.525 -1.23285e-18 1144.1 4.98854e-17 347.702)
(-7.04463e+07 -1.22037e+06 5.32235e-12 88992.6 -1.24251e-11 -1.74571e+07)
(5.49056e+07 -8.18292e+06 -1.09186e-12 1.22892e+07 2.06048e-12 1.66724e+07)
(-6.8487e+07 -1.12793e+06 -2.12023e-12 -20069.6 6.26277e-12 -1.6998e+07)
(-3.40248e+07 9.44905e+06 -2.11234e-12 2.22483e+06 -1.95793e-12 -7.89022e+06)
(-7.35393e+06 4.89891e+06 -2.86702e-12 5.8846e+06 -7.22607e-13 -364570)
(-8.46e+07 -1.04234e+06 1.04029e-12 -402215 -9.15564e-12 -2.10908e+07)
(-6.56937e+06 -1.86728e+06 -5.99557e-12 -249996 -1.50103e-11 -1.69202e+06)
(4.49002e+07 -834355 8.11485e-12 -49877.5 -3.35185e-11 1.11283e+07)
(-4.56154e+07 -1.14207e+06 -1.0125e-11 42823.4 2.67464e-11 -1.13075e+07)
(-570817 -3.16732e+06 -1.10059e-11 397217 6.17456e-12 -43073.5)
(-8.52145e+06 -3.38452e+06 -1.98549e-11 -170554 1.79315e-11 -2.15666e+06)
(-8.32894e+07 194090 5.39152e-13 -366006 -2.78366e-12 -2.07566e+07)
(4.77493e+07 -4.12234e+06 1.32414e-12 6.61113e+06 -3.41681e-12 1.34879e+07)
(-7376.54 -63173.8 1.75654e-15 1.50404e+06 -1.76554e-16 371352)
(5.57491e+07 -7.41588e+06 1.94491e-12 1.18612e+07 -4.40168e-13 1.67755e+07)
(1.82723e+06 7.49655e+06 3.25658e-13 3.78175e+06 -3.44686e-13 1.3917e+06)
(3.06817e+06 -2.05696e+06 -9.19598e-12 320270 5.60117e-12 840741)
(2.31886e+06 -3.78282e+06 -3.25227e-14 5.93031e+06 1.88564e-14 2.04679e+06)
(5157.63 -82010.5 -2.05608e-15 1.19719e+06 1.08514e-14 298327)
(5.90481e+06 -2.74219e+06 -1.10374e-11 -306527 -9.6886e-13 1.38905e+06)
(4.6285e+06 8.86005e+06 -6.41174e-12 3.92101e+06 -1.94072e-12 2.12131e+06)
(1.31273e+07 -2.19461e+06 4.47799e-12 -319967 7.91371e-12 3.17776e+06)
(13635.8 -72803.6 -1.22858e-15 282105 -3.78846e-15 73379.3)
(-3.07603e+07 -2.16396e+06 1.76738e-11 131937 2.25259e-12 -7.59952e+06)
(-2.50075e+07 -357611 2.63846e-12 3.18716e+06 -7.48701e-12 -5.41407e+06)
(-3.5702e+07 -3.09194e+06 1.48989e-11 -205593 -1.76272e-12 -8.90939e+06)
(-6.03992e+07 -2.32933e+06 8.69819e-12 44642 3.12375e-12 -1.49752e+07)
(-3.32956e+07 8.7741e+06 -4.1774e-12 1.62927e+06 -1.40474e-12 -7.85706e+06)
(4.61002e+07 478196 8.84136e-12 189748 -1.92514e-11 1.14855e+07)
(-4.6537e+07 336060 -1.86828e-12 -226177 4.04506e-11 -1.16029e+07)
(-8.47477e+07 48501.2 -2.42805e-12 -279155 -2.88087e-13 -2.10969e+07)
(2.5508e+07 -9.13077e+06 6.64182e-13 3.44479e+06 -7.00701e-13 7.18377e+06)
(8.75883e+06 -2.18363e+06 -1.51624e-11 337876 -3.11745e-12 2.25708e+06)
(-2.54298e+07 7.06931e+06 -8.90421e-12 3.3391e+06 -3.36279e-12 -5.48116e+06)
(-2.15677e+07 -683486 -4.21054e-12 2.97476e+06 -2.30414e-12 -4.61329e+06)
(-5.65742e+07 -1.03457e+06 4.5897e-12 87192.6 3.8767e-12 -1.40156e+07)
(8.15977e+07 -1.39742e+06 -7.61385e-12 -30711.3 9.61047e-13 2.02384e+07)
(56505.3 -420306 3.3262e-15 1.30833e+06 8.9831e-15 338643)
(-2.0362e+07 -2.56906e+06 5.15102e-14 -8788.26 4.36772e-12 -5.05441e+06)
(3.11619e+06 -4.17602e+06 8.6765e-14 6.12565e+06 -4.92214e-14 2.29309e+06)
(6.01307e+07 -2.44982e+06 1.35889e-11 -133025 4.16788e-12 1.48866e+07)
(611.02 -2464.08 -4.05519e-16 41308.6 -1.07888e-15 10401.1)
(596338 -1.80572e+06 9.03398e-14 5.84141e+06 -1.42418e-13 1.59734e+06)
(1142.85 -2905.84 1.54389e-17 1741.39 -1.96471e-16 715.639)
(4105.8 -110232 5.69861e-15 1.29982e+06 1.34001e-14 323531)
(187.849 -921.185 -2.96996e-18 1099.36 -5.22202e-17 319.384)
(-3.4397e+07 -1.62154e+06 0 -277324 0 -8.60339e+06)
(-1.28798e+07 702769 9.54869e-13 4.14378e+06 1.19648e-12 -2.16758e+06)
(-8.67087e+07 -230625 6.81827e-12 58036 5.77586e-12 -2.14998e+07)
(-153212 -2.86754e+06 1.8434e-11 -42065.3 7.99838e-12 -48452.3)
(-4.0132e+07 -2.42188e+06 5.47857e-12 -261050 1.39155e-11 -1.00223e+07)
(8.17792e+07 193781 2.31454e-11 -205459 -3.17344e-11 2.02401e+07)
(69105.3 -407785 1.64259e-15 570137 1.91836e-14 158609)
(9.75618e+07 -234491 -3.38816e-13 -124311 1.21025e-11 2.41762e+07)
(5.63135e+07 -975841 -3.34139e-13 24286 -7.80601e-12 1.39785e+07)
(4.10767e+07 -3.03234e+06 -4.05558e-12 1.0891e+07 -3.29525e-12 1.28942e+07)
(-8.20534e+07 -859388 9.62574e-12 261432 1.11805e-11 -2.02943e+07)
(-2.2979e+07 1.59177e+06 -5.71536e-12 4.21614e+06 -3.08945e-12 -4.65545e+06)
(3.61825e+07 -2.28807e+06 -2.70495e-13 1.10215e+07 1.62857e-12 1.17123e+07)
(6021.04 -146708 3.14529e-15 795705 -1.5993e-15 198924)
(-2.13985e+07 1.05299e+06 2.86391e-12 3.88238e+06 -5.669e-13 -4.34611e+06)
(-292437 -2.97246e+06 -3.90758e-11 -25736.4 -1.07373e-13 -78945.3)
(59775.6 -224960 -1.63409e-14 2.17456e+06 2.82626e-14 554384)
(6.12097e+07 -1.12713e+06 -2.69444e-12 -123085 -1.32655e-12 1.51568e+07)
(42331.2 -121493 -1.15585e-16 140890 -1.77329e-14 45460.9)
(2.36253e+07 -9.07022e+06 1.12218e-12 3.59293e+06 -1.09916e-12 6.7534e+06)
(-1.47021e+07 -1.89039e+06 -2.50957e-11 478526 1.01381e-11 -3.52917e+06)
(4.98014e+07 -5.78466e+06 3.22736e-12 7.26772e+06 -2.36492e-12 1.416e+07)
(5.90834e+07 -1.67985e+06 -3.99765e-11 48330.1 2.31994e-11 1.46718e+07)
(-5.40155e+07 807788 0 1.25885e+06 0 -1.309e+07)
(9.89087e+07 -600654 -3.03809e-12 -216475 8.17858e-12 2.44875e+07)
(19094.3 -389952 -2.1951e-15 1.23004e+06 -3.19398e-14 309937)
(-1.94887e+07 -1.9246e+06 -7.50176e-12 -53651.9 -1.27403e-12 -4.84885e+06)
(2.64375e+07 -3.43878e+06 -5.07671e-12 3.60062e+06 2.56612e-12 7.45306e+06)
(1.46792e+07 3.81288e+06 0 7.39134e+06 0 5.47616e+06)
(9.2196e+06 -9.35222e+06 1.1439e-13 9.41727e+06 -9.65808e-15 4.62419e+06)
(1403.89 -2908 1.04593e-17 1975.55 -1.01639e-16 838.507)
(-1.54594e+07 -2.09334e+06 8.13485e-12 157618 -1.03606e-12 -3.79669e+06)
(4.89295e+07 -1.97626e+06 -1.4074e-11 -225616 1.79166e-11 1.20844e+07)
(209222 -2.82824e+06 -2.21133e-11 6972.98 1.50322e-11 53642.3)
(-9.91119e+06 -2.51475e+06 4.41178e-11 102881 -1.07828e-11 -2.43364e+06)
(-1.85501e+07 -3.46639e+06 8.96403e-12 261921 -7.51506e-12 -4.53766e+06)
(-233878 -2.94043e+06 -1.74119e-11 45226.4 2.70765e-11 -46808.2)
(4.7127e+07 -2.73106e+06 4.21463e-12 1.07541e+06 -4.07624e-12 1.196e+07)
(-1.3984e+07 -539184 7.40005e-12 4.1611e+06 4.89173e-12 -2.43726e+06)
(1.37157e+07 3.89945e+06 2.64296e-12 8.19806e+06 2.49305e-12 5.43725e+06)
(4.46891e+07 -1.36163e+07 -1.0866e-12 1.14951e+07 1.51024e-12 1.39404e+07)
(7.35639e+06 -3.51872e+06 3.84311e-12 -391383 -2.08751e-11 1.72816e+06)
(-6.64219e+06 -3.04002e+06 0 83004.7 0 -1.62747e+06)
(6376.29 -78609.4 1.49008e-16 256725 2.79515e-15 65280.8)
(-2.27421e+07 4.32946e+06 2.37359e-12 4.67565e+06 3.20823e-12 -4.48265e+06)
(2.49999e+07 -3.01826e+06 1.06674e-11 3.40059e+06 3.78347e-12 7.04674e+06)
(4.23066e+07 -4.60728e+06 -2.39459e-12 1.01846e+07 4.86875e-13 1.30241e+07)
(1.02358e+07 -2.92823e+06 1.30317e-11 104511 -2.17567e-11 2.56565e+06)
(-5.52023e+07 655532 2.2225e-12 1.65384e+06 2.85509e-12 -1.32865e+07)
(1.48771e+07 -3.044e+06 4.6989e-12 73031.6 1.25498e-11 3.70943e+06)
(2.4295e+07 -1.37473e+07 4.72602e-13 1.05047e+07 -7.6838e-13 8.6345e+06)
(10928.9 -36868.6 1.64657e-17 57638.5 -3.90511e-15 17013)
(-5221.21 -78759.5 2.08407e-15 1.80202e+06 -9.6064e-15 445823)
(7.30231e+07 -4.40594e+06 -7.50143e-12 1.80176e+06 -1.67161e-12 1.85656e+07)
(2.71986e+07 -3.25816e+06 -1.69969e-11 89773.4 1.94754e-12 6.77081e+06)
(6.46312e+06 -1.82142e+06 1.22692e-11 59843.5 -2.97935e-12 1.61848e+06)
(-1.44764e+07 -2.36965e+06 1.37976e-11 452164 -1.67761e-11 -3.4797e+06)
(162.479 -1265.98 -2.54164e-17 3432.52 2.257e-17 891.993)
(108633 -434805 7.2395e-16 632338 9.93621e-15 183850)
(-1.16086e+07 -1.5442e+06 -1.10364e-11 139101 3.35812e-11 -2.84581e+06)
(-334.315 -3722.89 -4.15617e-16 38163.2 -1.64501e-15 9386.13)
(4.90601e+07 -6.1022e+06 1.88822e-12 1.19306e+07 -9.97603e-13 1.5133e+07)
(2.2969e+07 -1.6683e+06 -7.02401e-12 -390077 -9.65044e-13 5.60229e+06)
(-7.85462e+06 -2.27208e+06 -3.98667e-12 -23971.4 -4.77057e-11 -1.95484e+06)
(3.05291e+07 -2.60528e+06 7.6508e-12 -170174 7.27188e-12 7.53267e+06)
(4.67506e+06 -2.99015e+06 2.59491e-12 -327321 6.96107e-12 1.07876e+06)
(5.12845e+07 -856717 5.22124e-12 12507 2.31007e-12 1.27278e+07)
(2.09529e+07 -1.48926e+07 -4.51223e-13 1.37852e+07 6.29824e-13 8.61922e+06)
(-8.11224e+07 1.84329e+06 -2.35812e-12 921202 -1.28727e-12 -1.98995e+07)
(-5.32986e+07 -2.36603e+06 0 213098 0 -1.31716e+07)
(4.67649e+07 -912096 4.30258e-12 -362512 6.78835e-14 1.15134e+07)
(7.28228e+07 -2.58274e+06 1.99299e-12 1.42076e+06 2.39557e-12 1.84213e+07)
(-4.34321e+07 -1.1756e+06 -4.34806e-12 135775 4.16249e-12 -1.07427e+07)
(1.58208e+07 -1.84097e+06 4.75024e-13 67794.8 1.75911e-13 3.94227e+06)
(898.617 -18304.4 7.74938e-17 190130 -1.53041e-15 47398)
(5.08281e+07 -2.32746e+06 -6.51835e-12 -105526 -9.89889e-13 1.25853e+07)
(2.96512e+07 -1.81552e+06 9.17674e-12 243469 2.57743e-11 7.41749e+06)
(2.25114e+07 -2.58686e+06 6.18048e-12 -160959 -4.33189e-11 5.5456e+06)
(12395.7 -97797.3 4.00212e-15 1.55862e+06 -2.72734e-14 389800)
(4.85154e+07 -2.64808e+06 -4.57624e-12 956836 5.38596e-12 1.22751e+07)
(945408 -2.23938e+06 -1.4736e-13 7.8747e+06 1.64581e-13 2.18845e+06)
(-3.90319e+06 -1.97119e+06 1.15653e-11 1.22402e+06 -1.38138e-12 -664756)
(-2.57649e+07 8.28533e+06 -5.64291e-12 3.75658e+06 -4.38014e-12 -5.4607e+06)
(-3.31662e+06 -1.69366e+06 -3.37447e-11 -120342 1.29487e-12 -852779)
(-8.21163e+06 -1.81158e+06 -7.26679e-13 1.11041e+06 -2.98162e-12 -1.76196e+06)
(-1.2502e+07 -2.2559e+06 2.47199e-12 1.21316e+06 -4.49856e-12 -2.80099e+06)
(345.764 -1407.57 1.16872e-17 3452.41 1.02858e-16 942.405)
(4.24375e+06 -3.58464e+06 4.24291e-14 1.92894e+06 -1.26026e-13 1.53157e+06)
(5.36953e+06 -2.77278e+06 -2.65822e-11 13264.4 -1.23107e-11 1.33558e+06)
(-2.39871e+07 -1.53123e+06 -3.48408e-11 -248427 5.19178e-12 -6.01332e+06)
(-1.27481e+07 -2.84071e+06 -2.29087e-12 158712 -4.47303e-13 -3.12369e+06)
(2.08663e+07 -1.83607e+06 1.19037e-12 306547 -8.17983e-12 5.25341e+06)
(-2.93104e+07 -2.4284e+06 -3.39974e-11 -9053.89 -3.04229e-12 -7.27474e+06)
(-1.04464e+06 -2.48923e+06 -8.59049e-12 1.05619e+06 -5.33897e-12 2864.99)
(1898.7 -11182.4 6.14123e-16 91872 1.80176e-15 23266.4)
(6.64112e+07 -1.59045e+06 -5.5573e-12 242299 -1.83514e-12 1.65381e+07)
(290.041 -679.983 5.74053e-18 183.591 -4.49459e-17 117.518)
(-4.45133e+07 7.66925e+06 -8.43907e-13 129523 -2.09497e-13 -1.10125e+07)
(-2.29212e+07 5.25564e+06 3.71847e-12 4.19853e+06 2.59204e-12 -4.64547e+06)
(-5.40959e+07 -1.22698e+06 2.61729e-12 433000 -2.3406e-12 -1.33149e+07)
(-7.75748e+06 -3.22484e+06 3.23761e-11 570364 -2.65764e-11 -1.78327e+06)
(-8.09795e+07 1.52888e+06 3.41532e-13 -242260 5.2318e-13 -2.01528e+07)
(1.43554e+07 -2.21356e+06 -7.63676e-12 109081 3.46815e-13 3.58894e+06)
(-4.4745e+06 -2.85616e+06 8.69401e-12 1.66015e+06 -1.01605e-11 -698298)
(1824.5 -8296.1 9.82983e-17 20325.8 8.23319e-16 5495.94)
(2.12858e+06 6.04991e+06 -9.77569e-14 -3.94772e+06 1.7827e-13 -451365)
(234.07 -913.567 0 863.751 0 272.392)
(-8.74912e+07 10296.6 8.62634e-12 -81467 -1.29323e-13 -2.17286e+07)
(9.38611e+07 -4.96218e+06 9.21165e-13 2.26318e+06 -1.68033e-12 2.38504e+07)
(959699 -3.05354e+06 5.95155e-12 -313127 -1.26729e-11 160428)
(-3.43359e+07 -801585 -3.4308e-11 114194 -2.82166e-11 -8.4911e+06)
(3.42966e+07 -821614 -8.57786e-12 -121495 3.0174e-11 8.47953e+06)
(3.64422e+07 -1.91372e+06 -1.37153e-13 166397 6.88185e-13 9.08334e+06)
(5.15832e+07 -5.87037e+06 -4.89987e-12 1.02436e+07 2.68462e-12 1.53405e+07)
(2.09031e+07 -5.73158e+06 -1.75951e-13 -809641 1.0571e-13 4.98559e+06)
(-3.3722e+07 -1.09403e+06 -7.73948e-12 1.46489e+06 -2.40005e-12 -8.00363e+06)
(3583.32 -28680.5 -2.31952e-14 1.65207e+06 4.57423e-14 410801)
(7.76895e+06 -2.23232e+06 -3.65255e-12 91702 -2.94036e-12 1.95039e+06)
(-2.3973e+07 -2.17188e+06 3.21326e-12 392019 -6.66226e-12 -5.85093e+06)
(5.40565e+07 -1.3839e+06 -3.87225e-12 -28928.3 -5.69692e-12 1.34053e+07)
(-5.3889e+07 -1.39774e+06 6.8153e-12 148140 -1.03169e-11 -1.33342e+07)
(5.14493e+07 -1.93963e+06 6.25854e-12 -88064.7 -1.26939e-11 1.27438e+07)
(-5.0968e+07 -1.96556e+06 7.70844e-12 -18941.4 -5.25229e-12 -1.26509e+07)
(-7.79276e+07 236353 -1.25792e-12 66792.9 2.66688e-11 -1.93189e+07)
(7.33499e+07 -1.85992e+06 -1.04444e-11 -92707.7 7.66355e-12 1.81766e+07)
(9.45563e+07 -580410 8.49325e-12 -115559 -7.3673e-13 2.34327e+07)
(126836 -321128 -7.87633e-16 172698 9.66987e-15 74320.5)
(-3.71185e+07 1.30861e+06 5.43543e-12 2.48357e+06 -1.06477e-12 -8.59364e+06)
(1.0998e+07 1.69769e+06 -2.05253e-13 -3.95357e+06 1.54429e-13 1.74787e+06)
(1.15502e+07 1.80868e+06 3.65689e-13 -4.59436e+06 -2.34264e-13 1.72589e+06)
(1.90685e+07 -438739 -1.72267e-12 8.83127e+06 1.80307e-12 6.92249e+06)
(5.20947e+07 -4.60707e+06 5.53997e-13 9.78632e+06 -3.02362e-12 1.53539e+07)
(8.25785e+06 -1.5295e+07 0 2.87442e+07 0 9.18097e+06)
(6.82852e+07 -1.13169e+07 -4.25192e-13 1.20121e+07 2.5768e-12 1.99234e+07)
(-2.42668e+07 1.12342e+07 -6.15563e-13 -405119 5.9607e-13 -6.12161e+06)
(-3059.95 -14444.1 -1.30039e-15 333783 1.28099e-15 82059.1)
(4.80229e+07 -2.57664e+06 -1.31373e-12 -37180 -1.41057e-12 1.19062e+07)
(2.03165e+07 -2.63763e+06 -1.54072e-11 281959 -1.10416e-11 5.1109e+06)
(4.37141e+07 -1.16121e+06 -2.19769e-11 -61044.9 -8.7882e-12 1.08312e+07)
(-2.77689e+07 -2.41885e+06 3.73212e-12 -15761.7 2.27294e-11 -6.89393e+06)
(-7.95363e+07 -279898 -5.4183e-12 175395 -1.98774e-12 -1.9691e+07)
(-311.932 -88299.9 -2.49539e-15 1.24433e+06 1.91452e-14 308666)
(-4.64682e+07 -2.07595e+06 2.93213e-12 26015.7 -2.0916e-11 -1.15232e+07)
(4.67188e+07 -1.99984e+06 -1.79965e-11 -89416.4 1.16919e-11 1.15697e+07)
(7.92658e+07 -207232 5.42971e-12 -163158 -1.98957e-12 1.9627e+07)
(-3.6587e+07 325962 -2.70412e-12 2.48229e+06 -2.46105e-12 -8.46207e+06)
(6.42567e+06 -1.30886e+07 2.31956e-13 2.7128e+07 -3.51012e-13 8.32534e+06)
(2.77603e+07 -1.24026e+06 8.53999e-12 -351873 7.71369e-12 6.8006e+06)
(-2.78008e+07 -1.24432e+06 0 354411 0 -6.81002e+06)
(-2.58154e+06 -2.78166e+06 -1.69563e-11 -107635 -8.93212e-13 -667239)
(-1.70275e+07 4.65275e+06 -3.42138e-12 4.61677e+06 -5.62403e-13 -3.07937e+06)
(7.48389e+07 -897323 -8.71229e-12 -41327.6 7.76352e-12 1.85588e+07)
(4.27838e+07 -2.19309e+06 6.27544e-12 60951.2 -2.18702e-11 1.06307e+07)
(-7.12673e+07 3.77877e+06 -4.32149e-12 105857 -1.85474e-12 -1.76566e+07)
(1.31902e+07 -3.02755e+06 -1.19977e-12 66454.4 7.43666e-12 3.28925e+06)
(167061 -722554 0 1.70888e+06 0 465459)
(-4.77303e+06 -3.0139e+06 -4.95173e-12 -14928 3.82947e-12 -1.18799e+06)
(137657 -578097 -2.32596e-15 3.48012e+06 -6.60747e-14 897645)
(6.45395e+07 -1.36767e+06 -3.57956e-12 -293764 7.30607e-12 1.59407e+07)
(304.705 -1015.77 0 925.924 0 305.344)
(6.80368e+06 -2.42748e+06 2.94477e-12 189162 -9.72298e-12 1.73507e+06)
(713297 -2.25238e+06 7.28758e-14 7.44337e+06 -2.4706e-13 2.02383e+06)
(8.31946e+07 -362424 3.30156e-12 -74266.2 2.89842e-12 2.06238e+07)
(5.2475e+06 -83324.4 -1.98932e-11 103780 3.06154e-14 1.32776e+06)
(-5.2593e+06 -84712.3 2.00655e-11 -102986 -5.05276e-14 -1.33049e+06)
(6.46173e+06 -2.45462e+06 1.58605e-11 144123 2.6691e-12 1.63905e+06)
(-9.16672e+07 67638.1 1.1778e-11 -293062 2.79964e-12 -2.28172e+07)
(-9.66855e+07 418.475 -1.799e-13 -594187 -5.44771e-13 -2.41371e+07)
(4.17412e+07 -4.07392e+06 2.1292e-12 4.94899e+06 1.99938e-12 1.15848e+07)
(-7.93876e+07 -491129 -4.16616e-12 281165 3.28641e-13 -1.96279e+07)
(11321.2 -24366.9 -9.17587e-17 10443.2 7.24836e-16 5400.19)
(2423.81 -10673.2 -4.068e-17 17945.8 -5.10099e-16 5054.11)
(5.02073e+07 -1.29045e+06 -9.87936e-12 259128 1.82012e-11 1.25217e+07)
(10646.2 -23532.7 -6.06647e-17 14821.4 8.53387e-16 6319.03)
(-1.14348e+07 -2.07103e+06 3.35479e-11 -120985 8.46452e-12 -2.86722e+06)
(1656.4 -9074.82 -1.44299e-17 17871.3 -4.53532e-16 4845.21)
(4.66706e+07 -1.37818e+06 1.09565e-11 -34896.2 -9.79144e-12 1.15713e+07)
(4900.99 -19035.2 6.57787e-17 34574.2 2.70964e-16 9794.6)
(143378 -400540 1.14938e-15 178144 -1.35431e-14 79776.2)
(-1.0745e+07 -2.06306e+06 -4.55576e-12 2.72262e+06 9.4785e-13 -1.99051e+06)
(-1.98596e+07 -1.71437e+06 1.71862e-11 -197135 -1.02313e-11 -4.97648e+06)
(3.21938e+07 -6.28954e+06 4.17132e-13 4.97899e+06 1.42665e-13 9.22333e+06)
(-2.26854e+07 9.88315e+06 -1.78912e-12 -970665 -5.06775e-13 -5.86956e+06)
(3.14977e+07 -3.16843e+06 -9.25982e-12 290283 -7.64459e-12 7.88723e+06)
(7.53432e+07 -1.47076e+06 -6.77253e-12 151435 1.98297e-11 1.87318e+07)
(-7.48737e+07 -1.63177e+06 1.04159e-11 87923.7 -2.12054e-11 -1.85559e+07)
(1.0704e+07 -9.85077e+06 3.61514e-13 9.64519e+06 6.50227e-14 5.04904e+06)
(3.22748e+07 -2.82566e+06 1.79306e-11 -37455.8 1.67289e-11 7.99874e+06)
(3.26969e+07 -1.30067e+06 2.11444e-11 495122 -3.27285e-11 8.23561e+06)
(-6.1329e+07 885953 1.11273e-12 -192832 1.7697e-11 -1.52648e+07)
(6.09475e+07 820594 2.89697e-12 32921.5 -1.64707e-11 1.51305e+07)
(4.20515e+07 -2.17052e+06 0 68544 0 1.04508e+07)
(-8.37057e+07 -1.60045e+06 2.90576e-12 493304 3.86733e-12 -2.06467e+07)
(8.33597e+07 -1.50372e+06 -6.60998e-12 -471380 1.0433e-12 2.05663e+07)
(5.15247e+07 -7.02344e+06 9.01719e-13 1.22739e+07 5.9723e-13 1.58297e+07)
(3.37628e+07 -335456 -1.81435e-11 -54870.2 -3.35738e-12 8.36362e+06)
(-1.1709e+07 -2.44138e+06 2.31242e-11 881.677 4.94424e-11 -2.90501e+06)
(-1.57869e+06 6.31906e+06 8.35473e-13 -4.01871e+06 -1.10287e-13 -1.38883e+06)
(-8.11515e+07 -647361 1.58483e-12 331355 3.3794e-12 -2.00531e+07)
(-6.03442e+07 -145451 0 -248865 0 -1.50344e+07)
(6.04802e+07 -128316 -2.67687e-12 275538 -2.23399e-12 1.50747e+07)
(-2856.91 -86119.6 1.40894e-15 672876 1.71279e-14 166245)
(6924.58 -77364.3 2.00071e-15 226299 3.09802e-15 57867.5)
(-48990.4 -294239 -6.29762e-14 3.31583e+06 -9.90149e-14 810568)
(-9.74137e+06 -1.85378e+06 -1.47601e-11 -92541 3.82633e-12 -2.43999e+06)
(-2.22561e+07 6.69474e+06 -7.25789e-12 4.44448e+06 -2.71341e-12 -4.41942e+06)
(-9.95784e+07 40048.8 3.88142e-12 -671720 3.65747e-13 -2.48741e+07)
(-5.51583e+07 -955014 0 -109119 0 -1.3713e+07)
(-9.46405 -5.42153 1.21164e-18 172.771 5.46492e-18 40.5199)
(4.87004e+07 -3.72179e+06 1.00128e-13 1.61096e+06 5.74513e-12 1.24833e+07)
(-2.27344e+06 9.08744e+06 2.51883e-12 3.87155e+06 -6.05238e-13 396523)
(7.59782e+07 -1.46793e+06 5.8081e-12 -57645.5 8.41825e-12 1.88374e+07)
(-7.39568e+06 -2.79187e+06 1.83825e-11 81334.2 2.12808e-11 -1.81484e+06)
(4.35437e+07 -2.4587e+06 8.22377e-12 -254456 -9.50773e-12 1.07409e+07)
(256.57 -537.48 2.69252e-18 10984 1.7939e-16 2789)
(2.63022e+07 -1.66451e+06 -2.91557e-11 -523906 -1.03416e-11 6.39611e+06)
(-2.66737e+07 -1.65158e+06 5.28247e-12 475079 5.03472e-11 -6.5004e+06)
(-7.85196e+07 722095 1.76457e-12 259825 6.12625e-12 -1.94178e+07)
(-6.84387e+06 -2.55728e+06 -4.30323e-12 85569.1 6.8383e-12 -1.67687e+06)
(4.3245e+06 -5.62499e+06 1.61645e-13 7.8961e+06 -7.21153e-14 3.03218e+06)
(3.87348e+07 -2.87066e+06 8.67966e-12 -244469 -2.14918e-11 9.55024e+06)
(4.78318e+07 -2.10668e+06 8.54945e-12 -234615 2.68723e-11 1.18098e+07)
(3856.92 -69581.8 -2.74519e-14 1.68335e+06 6.17581e-14 418630)
(6.63467e+07 -1.1867e+06 -1.03494e-11 154862 1.1979e-11 1.65004e+07)
(-8.58778e+07 -27859.4 0 -685567 0 -2.14781e+07)
(1127.88 -7799.26 0 66834.2 0 16862.8)
(-64069 -2.25832e+06 -2.56039e-11 302311 4.66022e-11 59112.8)
(470377 -1.73018e+06 -1.39943e-11 1850.2 1.01725e-11 117169)
(102224 -821217 2.21044e-13 5.44871e+06 -2.08332e-13 1.3773e+06)
(359684 -2.91296e+06 -5.84956e-12 2.49215e+06 2.74633e-12 707599)
(3.32704e+07 -6.29535e+06 1.17378e-13 4.87126e+06 4.63495e-13 9.46372e+06)
(133982 -351031 -4.33991e-16 337477 1.73782e-14 116978)
(-6.07488e+07 -856355 3.8212e-12 68825.5 -1.99157e-12 -1.50559e+07)
(9.98978e+07 -2.7194e+07 6.5856e-13 1.07843e+07 -5.35792e-13 2.74625e+07)
(-3.72743e+07 1.59868e+06 0 2.70749e+06 0 -8.57673e+06)
(1.051e+07 -1.95656e+06 4.80112e-12 295648 2.4901e-11 2.6811e+06)
(-7.43e+07 1.43971e+06 -7.79927e-12 548315 -5.7909e-12 -1.82993e+07)
(-2.54803e+07 -2.25815e+06 3.35261e-12 188395 -7.00778e-12 -6.27544e+06)
(-1.82719e+07 3.00314e+06 3.01459e-12 4.66041e+06 4.88891e-12 -3.3773e+06)
(-3.24168e+07 -64175.8 -2.08206e-11 -975732 -6.34624e-13 -8.28535e+06)
(3.23661e+07 -64653.9 -9.19594e-12 977691 -4.23331e-12 8.27328e+06)
(5.13871e+07 -2.03703e+06 4.84016e-12 -106971 -8.24698e-12 1.27237e+07)
(683.355 -3640.43 6.17587e-17 16863 4.82858e-18 4353.61)
(20975.6 -57800.7 2.37269e-17 73504 2.52214e-15 23442.3)
(-3.31912e+07 -2.85093e+06 9.36974e-12 -93685 -4.68953e-12 -8.25867e+06)
(4.01278e+07 -2.18209e+06 8.22467e-12 128227 1.2603e-12 9.98834e+06)
(-4.05368e+07 -2.67126e+06 -3.07152e-12 -78530 -2.21228e-11 -1.00775e+07)
(3.19945e+07 -1.38597e+06 -8.13761e-12 259284 -3.88219e-11 8.00283e+06)
(-3.20383e+07 -1.28729e+06 2.15425e-11 -173743 2.22616e-11 -7.99246e+06)
(3.06502e+07 -6.50162e+06 -9.80874e-13 4.84215e+06 3.77835e-13 8.80638e+06)
(249.329 -1159.73 -7.62902e-19 2403.52 -5.34313e-17 658.226)
(6.11694e+06 -2.3378e+06 -1.6276e-11 -155049 3.65344e-11 1.47927e+06)
(5.20653e+07 -1.9361e+06 -3.15143e-12 55104.2 2.21831e-11 1.29321e+07)
(2.25481e+07 -2.45407e+06 1.3957e-11 4.21243e+06 -5.15185e-12 6.63984e+06)
(1.07528e+07 -1.84826e+06 2.81406e-11 142500 -2.31459e-12 2.70334e+06)
(2.04661e+07 -1.97039e+06 5.79704e-12 -254634 2.04804e-11 5.01488e+06)
(-1.3017e+06 -1.83091e+06 2.62679e-11 89261.9 -1.9373e-12 -300830)
(-21.2751 -324.129 1.10547e-17 1642.52 1.19503e-17 402.263)
(5.09629e+07 -2.19265e+06 -2.23059e-11 -28521.6 -6.91661e-13 1.26379e+07)
(3.64791e+07 -2.19606e+06 -1.07192e-11 49164.3 -6.41447e-12 9.06339e+06)
(-9.50627e+07 -949818 3.73902e-12 -159382 1.97846e-12 -2.36265e+07)
(-3.2464e+07 -2.84412e+06 -5.65804e-12 69243.7 -6.08279e-13 -8.0378e+06)
(178143 -320318 3.23723e-15 119724 -1.96814e-14 73906.9)
(7.26409e+07 -3.23518e+07 1.73239e-12 1.8684e+07 -2.66189e-12 2.26596e+07)
(7.7938e+06 -3.09569e+06 6.86187e-12 140.418 6.79584e-12 1.93384e+06)
(-3.98948e+07 -2.16742e+06 7.85059e-12 -127812 -4.98555e-12 -9.93043e+06)
(7.89094e+07 -291649 -3.88577e-12 -100789 -1.41722e-12 1.9554e+07)
(4.60581e+07 -1.33281e+06 -8.84392e-12 19834.1 -4.97158e-12 1.14329e+07)
(110149 -378348 -3.00363e-16 487014 -2.8656e-14 148168)
(-5611.86 -114395 3.6337e-15 1.29603e+06 6.40194e-15 320180)
(-5.02348e+07 -2.74539e+06 3.8735e-12 80346.2 8.83386e-12 -1.24443e+07)
(-4.39309e+07 -145339 -3.87417e-11 -927299 -5.74153e-12 -1.11302e+07)
(4.39378e+07 -143030 -2.13517e-11 922327 1.53667e-11 1.11307e+07)
(-6.98462e+07 5.29801e+06 -1.02623e-13 332961 -1.35823e-13 -1.72476e+07)
(2.09184e+07 934949 2.66338e-12 9.19708e+06 -4.51599e-12 7.47226e+06)
(2.34076e+07 -3.67564e+06 -4.78814e-12 2.3754e+06 -2.81052e-12 6.39728e+06)
(-5.09998e+07 -523877 -1.26073e-11 -41767 6.61259e-12 -1.26644e+07)
(5.10544e+07 -568327 0 23275.3 0 1.26734e+07)
(-4.96767e+06 -3.39244e+06 -2.14947e-11 237654 1.2263e-11 -1.17361e+06)
(-3.48609e+07 -2.96848e+06 -6.55548e-12 311619 -7.39533e-12 -8.57239e+06)
(-6.7156e+07 -1.34229e+06 -3.60078e-12 52114.3 -6.03571e-12 -1.66498e+07)
(5.0179e+07 -5.18253e+06 8.36631e-13 1.09052e+07 1.81446e-12 1.51562e+07)
(-3234.38 -74486.5 -1.3419e-14 1.33492e+06 -2.69751e-14 330418)
(6.90076e+07 -1.79585e+06 7.27129e-12 164936 -9.67693e-12 1.71631e+07)
(-2.34656e+07 1.02357e+07 -1.50043e-12 95796.1 -2.60911e-13 -5.79852e+06)
(1.00817e+08 -1.04501e+06 1.88226e-12 403532 2.387e-13 2.51149e+07)
(4.01757e+06 -1.95464e+06 1.26973e-11 -147504 8.76645e-12 960243)
(-286.118 -67907.9 -3.90784e-15 625843 -3.95737e-15 155213)
(3.18796e+07 -1.76184e+06 3.02333e-11 42261.4 -6.23805e-12 7.92047e+06)
(-865318 -3.46328e+06 -1.16438e-11 53779.3 -8.01169e-12 -201359)
(2.26627e+07 -2.48413e+07 -2.45986e-12 2.93551e+07 2.32355e-12 1.29067e+07)
(2.8506e+06 -3.30942e+06 -4.93406e-14 4.2674e+06 6.60074e-14 1.76612e+06)
(1.7262e+07 -1.25102e+06 3.19703e-13 7.53783e+06 3.31878e-12 6.15334e+06)
(-8.58159e+06 -1.48532e+06 -1.92989e-11 315660 1.53358e-12 -2.05095e+06)
(-6.50068e+07 -1.27356e+06 -3.15918e-12 99168.5 8.34447e-12 -1.61049e+07)
(4.66269e+07 -4.68471e+06 8.57522e-13 9.81467e+06 1.74273e-12 1.40043e+07)
(4.83273e+06 4.03056e+06 3.67952e-13 7.76872e+06 -5.84533e-13 3.12668e+06)
(5.01861e+07 -1.49936e+06 -1.64617e-11 -89772.2 1.08853e-11 1.24299e+07)
(-6.97959e+06 -3.0103e+06 2.5684e-12 65777.6 -6.60709e-12 -1.71546e+06)
(-8.2016e+07 1.01867e+06 -5.15617e-12 395620 -2.38068e-12 -2.02517e+07)
(-2.95364e+07 -1.8487e+06 1.58296e-11 57251.1 -3.28915e-11 -7.31438e+06)
(-4.51727e+07 -1.38084e+06 -7.1758e-12 160520 -5.3166e-12 -1.11684e+07)
(-7.18659e+06 -2.90217e+06 3.64491e-12 614491 6.32004e-12 -1.63067e+06)
(2.24756e+07 -930124 -1.23649e-11 209342 -2.58853e-11 5.62859e+06)
(-2.94519e+06 1.0336e+07 -3.2956e-12 2.43328e+06 1.95103e-14 -127015)
(-2.16525e+06 -2.53669e+06 -1.41022e-11 -324642 1.46582e-11 -617792)
(-6.47657e+07 -1.55407e+06 -3.76113e-12 468183 -2.58704e-12 -1.59535e+07)
(-2.77371e+07 2.07719e+06 3.20446e-12 3.2798e+06 -1.45778e-12 -6.06834e+06)
(120083 -472086 2.10601e-15 780128 4.03927e-14 223361)
(9.61075e+07 -337839 0 86460 0 2.38677e+07)
(-2.77226e+07 1.06777e+06 1.29461e-14 -4.16861e+06 -3.52519e-13 -7.91285e+06)
(1.58859e+07 -3.56476e+06 -7.43602e-12 -207080 -2.95081e-12 3.89022e+06)
(-5.8459e+07 -1.43029e+06 -5.07538e-12 -361571 1.44773e-11 -1.45946e+07)
(-5.13615e+07 248333 -3.28188e-14 1.8352e+06 1.21403e-12 -1.22885e+07)
(-5.8592e+06 -2.44148e+06 1.16241e-11 -39721 1.27099e-11 -1.46364e+06)
(-8.5876e+07 -82373.3 -6.00881e-12 270187 -5.60314e-13 -2.12405e+07)
(-1.33781e+07 9.45355e+06 2.89327e-12 3.14811e+06 1.36868e-12 -2.53827e+06)
(-8.1489e+07 -1.33757e+06 -5.82758e-12 214052 -7.58674e-12 -2.0166e+07)
(872132 -1.58741e+06 8.50166e-14 3.12614e+06 -9.33738e-14 992052)
(-8.01286e+07 -1.73631e+06 5.68033e-12 130267 4.55841e-12 -1.98492e+07)
(7.98513e+07 -1.63688e+06 -5.17435e-12 -105828 -4.5722e-12 1.97865e+07)
(5343.86 -32477.1 -2.27626e-16 75504.3 1.16712e-16 20060.1)
(3.9456e+07 -1.98662e+06 -2.50577e-11 172481 -2.07934e-11 9.83262e+06)
(-3.95784e+07 -2.06711e+06 -1.93623e-11 -258174 -2.90378e-11 -9.88426e+06)
(673980 -2.02628e+06 1.93966e-13 6.23797e+06 -1.40579e-13 1.71499e+06)
(2.71386e+07 -2.88997e+06 -1.12685e-13 2.44823e+06 -5.17222e-13 7.3411e+06)
(1.33885e+07 -3.16155e+06 -1.71495e-12 17762.9 -8.79145e-12 3.32637e+06)
(-3.38619e+07 9.99911e+06 3.19219e-13 484234 -5.99119e-13 -8.28169e+06)
(2.83555e+07 1.29158e+06 7.00139e-13 8.0039e+06 -2.20616e-12 9.02152e+06)
(4.80523e+07 -2.3566e+06 -1.05164e-12 307781 -1.73714e-11 1.19991e+07)
(4873.84 -66975 -2.61277e-15 493492 -5.42607e-15 123655)
(3.54927e+07 -1.64528e+06 -2.54208e-12 244633 1.38554e-11 8.86717e+06)
(11928 -34876.9 -2.00117e-15 1.58844e+06 1.58289e-15 397083)
(372.2 -2507.93 7.23616e-17 11847.4 2.48646e-16 3031.94)
(-6.82566e+07 1.85066e+06 6.65977e-12 1.32093e+06 3.12757e-12 -1.66081e+07)
(8.40315e+06 4.73725e+06 3.40446e-12 7.63043e+06 -1.20504e-12 3.97826e+06)
(2.92947e+07 -22732.3 2.51451e-11 242948 -2.3651e-12 7.32888e+06)
(-2.93277e+07 -22017.8 -4.82731e-12 -245007 -2.76653e-12 -7.3376e+06)
(-1.04638e+07 -2.95649e+06 -1.97209e-11 122798 4.1532e-12 -2.56582e+06)
(4.47537e+07 -479617 -1.26019e-11 -57577.8 -8.11855e-12 1.109e+07)
(7.92846e+07 -564519 1.21372e-11 -15713.8 -3.57563e-12 1.96682e+07)
(-7.95523e+07 -636979 -7.33717e-12 46576.4 4.56216e-12 -1.9727e+07)
(8.10867e+07 -9.03066e+06 -2.09872e-12 9.01331e+06 6.20559e-12 2.23557e+07)
(4.05268e+07 -2.26235e+06 -6.47834e-12 -101831 5.87499e-12 1.00302e+07)
(-2.27542e+07 3.55063e+06 -4.55369e-12 5.11421e+06 3.65653e-12 -4.37685e+06)
(5.99743e+07 -1.73835e+06 6.37584e-12 -41768.8 -4.95122e-13 1.48705e+07)
(-3.52295e+07 -2.93336e+06 -9.68905e-12 300204 -2.20558e-11 -8.66668e+06)
(392.234 -3321.28 4.74555e-17 8811.49 9.53012e-17 2283.63)
(3.52861e+07 -1.3175e+06 2.90843e-12 1.02166e+07 1.0425e-12 1.12902e+07)
(-8.41803e+07 -429046 1.50595e-12 12857.2 -3.77315e-12 -2.08837e+07)
(2.88685e+07 -1.50485e+06 8.11047e-12 -61999.1 4.52793e-11 7.14748e+06)
(-2.91103e+07 -1.44843e+06 -2.3756e-12 -168809 3.42427e-11 -7.26473e+06)
(-2.4841e+07 -2.57127e+06 -2.76156e-11 -276964 8.6807e-12 -6.23227e+06)
(-7.08674e+06 -2.21281e+06 3.874e-12 -42177.2 1.35285e-13 -1.76883e+06)
(8.36456e+06 -2.27945e+06 -1.01225e-11 -312663 -1.78887e-11 1.99784e+06)
(9.08053e+07 -5261.3 -2.66309e-11 754568 -1.33688e-12 2.27179e+07)
(-6.93531e+07 -72150.2 -1.10442e-11 120521 3.39256e-12 -1.7178e+07)
(354.369 -2948.58 5.07348e-17 11088.3 5.1632e-16 2839.16)
(3.61915e+06 -3.57253e+06 0 202817 0 948307)
(-9.48775e+06 -2.51997e+06 -2.36219e-11 -12060.8 -2.33876e-11 -2.3571e+06)
(-2.53258e+07 1.03978e+07 1.00045e-12 -724474 9.45002e-13 -6.4636e+06)
(-2.33593e+07 -1.44323e+06 3.64008e-11 -322949 -2.872e-11 -5.87604e+06)
(59.2511 -417.699 -1.27256e-17 2875.53 5.10741e-17 728.179)
(1.03422e+08 -2.56607e+07 -1.59692e-12 1.09487e+07 2.08847e-12 2.83778e+07)
(3.42451e+07 -2.19531e+06 -5.61188e-13 113080 2.96148e-11 8.52497e+06)
(-3.42373e+07 -1.98224e+06 2.70502e-12 192817 5.70128e-12 -8.44712e+06)
(4.99814e+07 -2.58807e+06 3.94251e-12 1.68416e+06 2.77866e-12 1.28193e+07)
(-4.58314e+07 6.71737e+06 -2.61249e-12 1.92698e+06 -5.20914e-13 -1.08936e+07)