/*--------------------------------*- C++ -*----------------------------------*\
| =========                 |                                                 |
| \\      /  F ield         | OpenFOAM: The Open Source CFD Toolbox           |
|  \\    /   O peration     | Version:  v3.0+                                 |
|   \\  /    A nd           | Web:      www.OpenFOAM.com                      |
|    \\/     M anipulation  |                                                 |
\*---------------------------------------------------------------------------*/
FoamFile
{
    version     2.0;
    format      ascii;
    class       volScalarField;
    location    "7000";
    object      sigmaEq;
}
// * * * * * * * * * * * * * * * * * * * * * * * * * * * * * * * * * * * * * //

dimensions      [1 -1 -2 0 0 0 0];

internalField   nonuniform List<scalar> 
24076
(
7.04622e+07
943721
14234.6
14106.6
1.70507e+07
1.08475e+06
970437
7.48061e+07
1846.05
6.36392e+07
4.30053e+07
6.17848e+07
3.62979e+07
1.42681e+07
7.60172e+07
6.58494e+06
4.05597e+07
4.12212e+07
5.54982e+06
9.56353e+06
7.4842e+07
3.88294e+07
1.36652e+06
4.35845e+07
1.31703e+07
4.36862e+06
7.55171e+06
1.08517e+06
7.31318e+06
1.55085e+07
1.26679e+07
274785
2.80947e+07
2.50359e+07
3.24881e+07
5.46578e+07
3.47762e+07
4.14422e+07
4.18043e+07
7.62225e+07
2.58531e+07
8.52872e+06
2.8313e+07
2.17964e+07
5.11227e+07
7.3657e+07
1.35035e+06
1.88896e+07
8.03299e+06
5.44993e+07
37039.5
5.74842e+06
5111.58
1.18469e+06
1809.42
3.09399e+07
1.49558e+07
7.82487e+07
4.96791e+06
3.62406e+07
7.39148e+07
844432
8.80876e+07
5.07994e+07
2.97036e+07
7.42189e+07
2.41789e+07
2.51372e+07
757000
2.24084e+07
5.15426e+06
1.95519e+06
5.53339e+07
231725
2.43881e+07
1.40141e+07
4.07903e+07
5.33306e+07
4.96989e+07
8.93778e+07
1.28646e+06
1.78503e+07
2.19968e+07
1.06936e+07
1.68659e+07
5132.15
1.45231e+07
4.4434e+07
4.90208e+06
1.00143e+07
1.79634e+07
5.09893e+06
4.19565e+07
1.59351e+07
9.94568e+06
3.97851e+07
9.23271e+06
8.02346e+06
264454
2.53128e+07
2.06978e+07
3.18175e+07
1.04637e+07
5.10654e+07
1.43648e+07
2.80432e+07
77540.3
1.63494e+06
6.49446e+07
2.5105e+07
6.58814e+06
1.40168e+07
3694.31
898721
1.0909e+07
35269.2
3.71708e+07
2.12115e+07
8.08792e+06
2.80298e+07
6.84033e+06
4.62683e+07
2.79367e+07
7.39367e+07
4.84067e+07
4.24834e+07
6.47565e+07
3.93281e+07
1.45705e+07
173714
4.60994e+07
2.67432e+07
2.09116e+07
1.40655e+06
4.32745e+07
7.48274e+06
5.64166e+06
2.9838e+07
4.12517e+06
8.84421e+06
1.28231e+07
3754.66
6.70709e+06
6.81324e+06
2.16088e+07
1.26176e+07
1.88569e+07
2.67611e+07
4.67963e+06
83692.2
5.97762e+07
1187.38
4.23812e+07
2.56264e+07
4.91657e+07
9.30003e+06
7.29001e+07
1.34236e+07
7.29389e+06
22233.5
1.17348e+07
1696.36
7.88473e+07
8.3383e+07
5.40498e+06
3.10859e+07
3.10576e+07
3.29084e+07
4.03438e+07
2.18575e+07
3.15942e+07
1.48812e+06
7.94198e+06
2.22412e+07
4.88351e+07
4.8776e+07
4.65911e+07
4.60802e+07
7.03358e+07
6.63039e+07
8.53752e+07
562708
3.54611e+07
1.33962e+07
1.4435e+07
1.13385e+07
4.06093e+07
3.32181e+07
5.62874e+07
2.90564e+07
304405
4.35699e+07
1.86769e+07
3.95239e+07
2.53812e+07
7.18698e+07
1.13288e+06
4.20839e+07
4.23462e+07
7.16159e+07
3.4913e+07
3.01132e+07
2.53968e+07
2.54357e+07
5.31619e+06
2.06415e+07
6.75474e+07
3.87276e+07
6.46893e+07
1.29546e+07
1.89009e+06
6.75906e+06
3.19562e+06
5.84807e+07
1865.71
7.32081e+06
7.30828e+06
7.50933e+07
4.65629e+06
4.6676e+06
7.12588e+06
8.24527e+07
8.67499e+07
3.46893e+07
7.18198e+07
42566
23425.9
4.51408e+07
41419.6
1.08324e+07
21643.5
4.21869e+07
42968.1
699116
1.23646e+07
1.80083e+07
2.76012e+07
2.61186e+07
2.87167e+07
6.78855e+07
6.76554e+07
1.78389e+07
2.95457e+07
2.92008e+07
5.5188e+07
5.49626e+07
3.80606e+07
7.59216e+07
7.55871e+07
3.95182e+07
3.04983e+07
1.13762e+07
1.12359e+07
7.34524e+07
5.42364e+07
5.43386e+07
627050
239792
3.07055e+06
9.28816e+06
2.62541e+07
8.93001e+07
4.96924e+07
163.363
4.31881e+07
1.66201e+07
6.86166e+07
8.28898e+06
3.96955e+07
9756.55
2.4294e+07
2.4587e+07
7.10266e+07
7.65047e+06
1.06754e+07
3.54719e+07
4.34721e+07
1.52008e+06
5.97563e+07
7.6933e+07
60938.6
3.92484e+06
3.02645e+06
5.0415e+06
5.42057e+06
2.8567e+07
644071
5.48624e+07
9.46133e+07
3.58104e+07
9.85605e+06
6.7476e+07
2.3453e+07
2.08142e+07
2.84984e+07
2.84513e+07
4.65619e+07
15988.3
112510
3.02697e+07
3.62915e+07
3.67929e+07
2.87595e+07
2.88498e+07
2.65759e+07
2821.67
6.93934e+06
4.7036e+07
1.77665e+07
1.011e+07
1.89625e+07
3.40603e+06
1599.4
4.61423e+07
3.30828e+07
8.56326e+07
2.97432e+07
562138
7.6502e+07
8.8408e+06
3.60802e+07
7.12478e+07
4.15893e+07
747386
1.1898e+06
4.5617e+07
3.89193e+07
3.89292e+07
6.39109e+07
1.27751e+07
2.03585e+07
4.59744e+07
4.60393e+07
7.50112e+06
3.20936e+07
6.0653e+07
3.83944e+07
1.21332e+06
6.2191e+07
2.76643e+07
9.06393e+07
5.04212e+06
576792
2.88821e+07
6.05461e+06
4.53489e+07
6.12998e+06
1.07067e+07
8.38595e+06
5.87473e+07
3.58372e+07
8.07934e+06
4.54061e+07
8.21257e+06
7.42935e+07
2.68743e+07
4.09339e+07
8.582e+06
2.01763e+07
1.8499e+07
4.71578e+06
5.88314e+07
2.77926e+07
1.02311e+06
8.66166e+07
2.20008e+07
1.57466e+07
5.25083e+07
4.77307e+07
6.74462e+06
7.76584e+07
2.18994e+07
7.36953e+07
3.51913e+06
7.24305e+07
7.2155e+07
85269.2
3.56211e+07
3.568e+07
6.21023e+06
2.31906e+07
1.32466e+07
3.54312e+07
1.9988e+07
4.32977e+07
456371
3.19526e+07
1.42484e+06
11274
6.26522e+07
9.16963e+06
2.62365e+07
2.62648e+07
1.08196e+07
4.04162e+07
7.15263e+07
7.1793e+07
6.82322e+07
3.68381e+07
2.52992e+07
5.4207e+07
3.24036e+07
9572.34
2.46562e+07
7.59366e+07
2.62139e+07
2.62467e+07
2.26364e+07
7.42518e+06
8.72763e+06
8.13248e+07
6.26422e+07
10991
6.92598e+06
9.5978e+06
2.86586e+07
2.09722e+07
2649.23
9.60148e+07
3.10338e+07
3.12153e+07
4.40331e+07
4.43656e+07
2.23284e+07
6.93965e+06
3.46709e+07
2.42078e+07
4.33861e+07
1.99645e+07
5.74145e+06
5.99533e+07
2.74092e+07
1.27228e+07
9.41647e+06
2.1749e+07
2.25554e+07
1.10503e+06
8.35527e+06
2.47879e+07
3.24314e+07
325857
3.4448e+06
5.63863e+07
3.6554e+07
4.38882e+06
8.48188e+07
1.03805e+06
5.97547e+07
2.91794e+07
1.92846e+07
1.08511e+07
2.9414e+07
1.22281e+07
4.9739e+07
4.14799e+07
143005
8.21475e+06
750731
890922
1.10808e+07
1.33656e+07
6.72997e+07
4.73707e+07
76463.4
3142.25
4.17205e+07
4.23979e+07
4.32499e+07
804390
4.80282e+07
3246.83
5.00159e+06
4.11853e+07
5.98406e+07
3.11259e+07
3.05568e+07
6.46682e+07
3.23421e+07
47472.6
3.50252e+07
3.36846e+07
3.3478e+07
3.44746e+07
8.53877e+07
3.46818e+07
2.90797e+07
2.73571e+07
8.41975e+07
2.58478e+07
3.78441e+07
4.18101e+07
4.18226e+07
2.89954e+06
8.16397e+07
4.54376e+07
1.80055e+07
345868
3.23246e+07
120771
3.09398e+07
3.01831e+07
7.36508e+07
9775.69
4.6918e+06
2.43257e+06
1.85623e+07
2.10445e+07
5.038e+07
9.26085e+07
5.41873e+07
6.25491e+07
8.48772e+06
2.02507e+07
5.12213e+07
675.932
6.49732e+07
1.71203e+07
2.86839e+06
5.57196e+07
2.02576e+07
1.12271e+07
6.13251e+06
5.72748e+07
230761
2.10078e+07
224725
7.26864e+06
1.70613e+07
1.71115e+07
3.43902e+07
851033
8.15726e+07
785621
5.08645e+07
2.97211e+06
2.98159e+06
4853.74
1.8847e+06
8.70554e+07
3.2607e+07
6.67093e+07
7.5006e+06
1.09368e+07
1.50201e+07
15646.2
5.99775e+06
2.04899e+07
2.05267e+07
16099.1
58801.2
3.23627e+07
1.28761e+07
1.30506e+07
5.37959e+07
1.00625e+07
43936.2
1.05928e+07
4.99814e+07
3.58238e+06
4.8968e+07
4.87999e+07
7.21225e+07
7.24013e+07
8.32651e+07
848.067
457278
4.03286e+06
1.64831e+07
116167
7.92853e+07
2.45945e+07
12621.8
4.54881e+07
1.99998e+07
2.00372e+07
2.54812e+07
2.65454e+07
4.6158e+07
1.27135e+07
5.04107e+06
52436
7.14777e+07
32609.2
2.00596e+06
3.18393e+07
2.15623e+07
2.06992e+07
9.17815e+07
1.85609e+07
1.84755e+07
1.09843e+07
8.84493e+06
2.5171e+07
1.51003e+07
3.34837e+07
2.19653e+06
2.86535e+07
75570.5
7.36635e+07
5.7514e+07
4.83581e+07
9.17832e+06
2.17866e+07
3.15713e+07
1.63582e+07
2.32784e+07
6.13554e+07
5.03189e+07
7.51705e+07
3.3782e+07
8.78794e+06
2.65755e+07
1.20691e+07
2.26099e+07
4.96082e+07
8.03248e+07
3.91262e+07
1.57974e+07
1.57732e+07
1.23104e+06
7.60726e+06
3.34642e+07
27836.4
5.77915e+07
5.14497e+07
1.75051e+07
1.74442e+07
4.83486e+07
13725.7
8.32461e+06
6.15751e+07
1.53721e+07
3.34171e+07
3.30996e+07
737764
29139
5.60838e+06
2.74777e+07
5.71686e+06
1.96964e+07
33319.2
13942.7
5.62136e+07
1.96729e+07
3.32381e+07
4.31571e+07
3.97533e+07
2.8237e+07
128829
2.66101e+07
5.75486e+07
6.26311e+07
7.00716e+07
1.68182e+07
9.29069e+06
1.95643e+07
1.79162e+07
2.05019e+07
7.38675e+07
6.26456e+07
6.5202e+07
6.43217e+07
196.335
745847
1.3205e+07
8.33246e+07
1.89168e+06
3.05507e+07
2.12872e+07
3.82514e+06
52286.4
2.97347e+07
1.63244e+07
1.68609e+07
4.08756e+07
2.23283e+07
2.23055e+07
1.57497e+07
5.66111e+07
5.66144e+07
6.1754e+07
6.78166e+07
503958
5.17987e+07
8.19815e+07
1.06745e+07
621212
2.80233e+07
2.80101e+07
3.6446e+07
3.87291e+07
3.36011e+06
5.18226e+07
2.7335e+07
1.14519e+06
5.27549e+07
9.3548e+07
4.92282e+06
2.99509e+07
5.01931e+07
5.0007e+07
2.31364e+06
8.09798e+07
3282.95
7.06026e+07
26602.8
2.83122e+07
2.08874e+07
1.26996e+07
8.18854e+07
44780.4
3.21298e+07
2.81586e+07
2.87751e+07
1.27249e+06
1.72303e+07
1.69872e+07
8.67072e+07
6.53302e+07
3.01256e+07
1.99819e+07
8.05986e+07
7.67145e+07
1.49707e+06
4.92738e+06
6.37329e+06
139350
3.93505e+06
6.30405e+07
2.28357e+07
2.30028e+07
2.52061e+07
1908.91
1.08629e+07
2.08141e+07
3.97063e+07
2.96191e+07
3.04084e+07
3.30415e+07
7.82518e+07
7.86416e+07
5.51744e+07
7.57398e+06
962719
5.64477e+07
2.76304e+07
7.70271e+07
8.34187e+07
4.38381e+07
1.26833e+07
3.09365e+07
3.02976e+07
2.57534e+07
3.25592e+07
4.95547e+07
6.21746e+06
2.72719e+07
5.59619e+06
1.32958e+07
6.8507e+07
6.06075e+06
4.49266e+06
2606.51
3.60588e+07
36565.9
5.01776e+07
4.75082e+07
2.94723e+07
3.12124e+06
6.58122e+06
2.1388e+07
2.14396e+07
9.4527e+07
1.93216e+07
82.1117
571800
5.41445e+07
5.4225e+07
2.04785e+07
147724
3.22243e+07
4.56587e+07
8.54081e+07
3.90239e+07
3.23306e+07
3.39886e+07
2.41259e+07
1.57517e+07
1.18455e+07
6.62736e+07
1.55302e+07
3.98332e+07
3.35075e+07
4938.93
3.29025e+07
7.49226e+07
5.96498e+07
2.02064e+07
1.57034e+06
5.647e+07
5.90045e+06
7.72408e+06
1.76938e+07
6.09334e+06
651115
173603
2.88135e+07
3.55888e+07
5.51352e+07
9.50459e+06
4.93363e+06
4.66475e+06
1.15607e+07
4.15685e+07
539455
7.24116e+07
8.67793e+07
3.60469e+07
3869.85
1.04515e+07
1.2937e+07
8.0009e+06
1.47358e+07
1.38017e+07
7.43655e+06
7.19115e+07
3.83034e+07
132325
4.08739e+07
143043
3.71778e+07
3.37414e+07
2.25145e+07
1.19415e+07
88610.5
94.7518
9.40349e+06
1.75004e+06
3.43789e+07
3.96595e+07
4.98115e+07
5.66077e+07
9.12488e+06
9.21328e+06
5.42605e+07
1.01575e+06
5.29199e+07
7.16935e+07
1.94037e+06
3.47542e+07
7.21603e+07
2.64916e+07
2.9147e+07
4.13067e+06
148264
8.70218e+07
3.21484e+07
1.24342e+07
3.14118e+07
6.34764e+07
1.34981e+07
6.36304e+07
3935.81
8.29824e+07
1.89057e+07
9.44121e+06
6.19617e+07
1.09552e+07
9.73572e+06
5.54903e+06
1309.7
780136
1.73382e+07
8.1666e+06
1.76303e+07
1.96354e+07
8.11135e+07
2603.2
3.11331e+07
1.0142e+06
3.86318e+07
6.2861e+06
4.97744e+07
4.24217e+07
4.24125e+07
2.78334e+07
2.78684e+07
3261.33
1.12492e+07
14431.4
1.43558e+07
1.8379e+07
8.37152e+07
3.2354e+07
1.45401e+06
8.40082e+07
3.66758e+07
5.36942e+07
4.71011e+07
2.31065e+07
2.31294e+07
1.81205e+07
8216.32
13160.7
1.26749e+07
8.5522e+07
5.06389e+07
5.06284e+07
1.47749e+07
7.33603e+06
2.75063e+07
5.42542e+07
5.45648e+07
3.92932e+07
6.92197e+06
2.45579e+07
3.30137e+07
3.30224e+07
1.37449e+07
645.517
3.32082e+07
3.66363e+07
143700
5.55716e+06
7.04528e+07
1.94158e+07
1.92546e+07
2.77791e+07
2.75183e+07
864.527
3.05171e+07
5.26921e+07
5.16716e+07
2.88974e+07
6.56835e+06
27172.8
7.01118e+07
8.51488e+07
9.70012e+06
116270
3.07549e+07
4.36637e+07
4.57419e+06
1.70865e+07
3.81766e+07
5.51756e+06
577923
1.67441e+07
6.62864e+07
7.18254e+07
22366
4.00685e+07
1.35749e+06
6.68683e+07
4.00612e+07
9.98349e+06
4830.54
7.90956e+07
2.21873e+07
2.22558e+07
236686
6.13629e+07
2.69715e+07
5.55209e+06
1.47473e+07
2.27606e+06
1.77645e+07
962765
16938.1
2.19087e+07
5.51693e+07
2.18359e+07
2.24151e+07
6.11618e+07
5.59007e+07
2.65203e+07
5.8871e+07
8528.72
1.26799e+07
1.96413e+07
7.90262e+07
2.19979e+07
2.67325e+07
1.24665e+07
84445.4
4.31517e+07
6.52337e+07
3.76968e+07
9.1174e+06
6.22829e+07
5.90855e+07
4.9126e+07
6.74513e+07
3.22395e+06
4.11893e+07
3.15359e+07
93673.3
8.58118e+06
1.37579e+07
3.99989e+07
5.14263e+07
3.22925e+06
8190.41
1.27699e+07
3.27222e+07
4.35025e+07
3.04261e+06
8.14233e+07
1.90287e+07
3.12852e+07
1.18551e+07
1.84606e+07
3.05207e+07
792577
1.08822e+07
4.76044e+07
6.82792e+07
1947.83
7.35741e+07
6.03751e+07
2.69934e+07
763799
5.56739e+07
5.36796e+07
4.60174e+07
4.593e+07
3.00511e+07
1.72936e+07
8.58496e+06
7.16567e+06
7.44981e+07
4.89777e+07
2.70561e+07
2.70605e+07
974361
2.67386e+07
8.82949e+06
117189
5.89489e+07
65465.3
5.56628e+06
18923.8
2.86495e+07
4.73776e+06
5.9055e+07
5.50952e+06
3.77559e+07
3.95951e+07
1.72087e+07
710080
27360.5
7.23559e+07
7.35092e+06
5.02564e+06
1.74106e+07
1.34099e+07
5.94776e+07
5.66742e+07
6.354e+07
707727
7.13308e+06
1.48734e+07
1.75723e+07
6.57728e+06
1.96886e+07
1.42261e+07
1.95759e+07
4.46343e+06
9252.8
5.47201e+07
2.43946e+07
2.48778e+07
2.44251e+07
5.09881e+06
3.90207e+07
1.11103e+07
4.77669e+07
8.2126e+07
1.27141e+07
5822.25
8.12489e+06
4.33872e+06
5.9331e+07
6.78705e+07
2.66147e+07
4.96347e+07
4.08341e+07
3.72993e+07
74556.1
2.57079e+07
1.3595e+07
630029
308974
5.46398e+06
6.29267e+07
120284
1.09328e+07
6.21098e+07
4.53452e+07
8.52405e+06
2807.25
2.4422e+07
2.96333e+07
4.31512e+07
3.34373e+07
29030.1
4.06558e+07
1.74754e+07
2.45262e+07
1.09829e+07
4.41494e+07
5.52989e+07
4.33846e+07
5.95118e+07
2.37814e+07
75431.3
9.92311e+06
2063.91
1.66015e+07
2.0319e+07
5.27253e+06
6.09999e+07
8.0504e+07
3.69332e+07
7.70307e+07
1.09472e+06
1.24479e+07
781006
4.818e+07
6.22537e+07
3.14761e+07
1.55362e+07
1.56814e+07
5.01627e+07
9575.82
1.68835e+07
350806
2.32269e+07
2.09338e+07
8.64819e+06
4.09115e+06
1.25286e+07
7.26844e+06
3.01767e+07
2.78272e+07
5.16327e+07
5.16262e+07
2.66866e+07
2.6509e+07
1.33086e+07
2.33527e+07
25502
4.67845e+07
2.72026e+07
316848
85558
5.40078e+07
2.64048e+07
6674.12
1.65192e+07
1.67858e+07
3.18339e+07
8.22359e+07
1.97847e+07
2.67029e+07
4.51062e+07
3.30637e+07
4.75476e+07
4.09872e+07
18096.2
77216.8
2.89988e+07
1.22628e+07
6.78202e+07
7.13869e+07
85099.4
2.98865e+07
3.30832e+07
3.30305e+07
2.97759e+07
3.74864e+07
4.20981e+06
59433.1
1.23369e+07
5.16594e+07
713141
997556
3.44853e+07
7.40196e+06
4.73923e+07
4.74107e+07
49484.4
518800
5.2554e+06
5.88161e+07
1.67612e+07
3.57357e+07
6.89761e+07
4.69159e+07
1.40271e+06
4.64903e+07
9.81316e+06
1.01013e+06
116415
236558
2895.51
7.16045e+06
1.14458e+07
797262
1.92582e+06
4.26893e+07
1.31801e+07
1.39626e+07
2.6022e+07
6.56298e+06
4.22268e+07
6.46716e+06
7.16021e+07
7.19021e+07
4.96236e+07
6.62046e+06
2.81247e+07
3.57476e+07
6.53305e+07
3.93465e+06
3.77171e+06
4.78049e+06
6.25592e+07
2.45552e+07
4.714e+07
1.35722e+07
1.31157e+07
3.79264e+07
5.8701e+07
3.58793e+07
5.70876e+07
1.92618e+07
1.92201e+07
4.05162e+07
7.27914e+06
3.05021e+07
1.091e+07
2.66936e+07
876.105
8.37851e+06
6.46712e+07
16781.2
2.5853e+07
5.2667e+06
4.71949e+07
1.13173e+07
1.20512e+07
4.33706e+07
14298.6
4.60849e+07
6.47687e+07
4.39693e+07
1.22001e+07
64654.2
2.58933e+07
5.40645e+06
8.52549e+07
5.81905e+06
6.22651e+07
2.7194e+07
1.16294e+07
209130
2.0886e+06
2.08792e+06
4.94063e+07
1.11055e+07
1.93977e+07
4.93956e+07
5.13939e+07
5.2417e+07
4.91146e+07
4.54201e+07
22649.8
6.20453e+07
5.54794e+06
1.44108e+07
5.26667e+06
6.14823e+06
6.06766e+06
3733.57
8.31062e+06
2.37663e+06
2.79507e+06
3.11235e+07
7.14117e+07
35347.5
1813.57
3.64279e+06
646939
4.72438e+07
3.49252e+07
6.09999e+06
7.55958e+07
5.25399e+06
4.90835e+07
1.09543e+07
4.38403e+07
1.52642e+07
2.3909e+07
2.09335e+07
2.79508e+07
6.95725e+07
3.19788e+07
7.8108e+07
2.43686e+07
6.8378e+07
6.04305e+07
548232
5.9933e+07
1.43168e+07
2.45663e+07
1.21268e+07
2.61836e+07
5.88362e+06
4.67995e+07
3.63988e+07
123511
5.70044e+07
4.0914e+07
6.9214e+07
1315.75
3.32702e+07
1.4954e+07
8.23254e+07
1.5214e+07
8.18856e+07
6.93351e+07
8.7098e+06
1.96056e+07
5.29444e+07
368071
2.13984e+07
3.30495e+06
797105
5.8611e+07
1.53092e+07
5.21039e+06
4.94505e+07
4.03003e+07
3.99325e+07
1.59549e+07
1.19783e+07
4.1658e+07
6.32009e+07
8.13555e+07
7.48042e+07
4.35872e+07
8.09109e+07
288884
5.32335e+07
7.06116e+07
1.21018e+07
4.28725e+06
7.57413e+07
1.38067e+07
3.83906e+07
8.85094e+07
8.87468e+06
1.49367e+07
8.71206e+07
1.8873e+07
2.01956e+07
8.77396e+06
5.56629e+07
1.05839e+07
1.97222e+07
5.30234e+07
482332
1.26946e+07
1.62992e+07
1.63953e+07
1.81346e+07
4.09055e+07
4.5881e+07
5.38265e+06
1.41029e+07
6.51974e+07
4.66882e+07
721956
789386
4.47641e+06
1.53451e+06
7.51777e+07
6.07384e+07
5.7307e+07
1.0275e+07
6.15732e+07
2.63924e+07
3.10408e+07
591498
4.86277e+07
3.63306e+07
2.24181e+07
7.40644e+07
1.67336e+07
7.43478e+07
2.12214e+07
5.79185e+06
6.84736e+07
3.16453e+07
2.02467e+07
3.00588e+07
2.82702e+07
4.25913e+07
1.97992e+07
26368.5
3.41677e+07
5.13209e+07
4.79279e+07
606.944
4.77327e+06
4379.07
2.50736e+07
2.98795e+07
237450
3.00885e+06
375438
1.9434e+06
5.78674e+07
5.79807e+07
5.10719e+07
6750.57
1.87195e+06
7.41579e+06
1.15557e+07
4.42034e+07
219354
1.0762e+07
630140
3.40939e+07
6.42729e+06
879.271
1.76695e+06
1.24772e+07
8.2617e+07
5.28065e+07
5.28985e+07
2.74563e+07
4.46622e+07
4.15243e+07
4.00191e+07
8.06158e+07
7.87551e+07
2.05985e+07
9.96487e+06
2.11998e+07
6.82791e+07
3.8063e+07
2.78221e+07
1.5825e+06
8.46992e+07
1.45284e+07
3.50003e+07
2.92076e+07
1.21793e+07
6.70957e+06
1.13486e+07
4.02162e+07
5.27166e+07
6.73148e+07
2.38944e+07
4.26456e+06
8.75796e+07
7.79166e+06
2.04687e+07
9.75617e+06
4591.35
2.97937e+06
378.092
8.98881e+06
1.09652e+07
2.11573e+07
4.20121e+07
3.21006e+06
204153
6.79409e+07
1.88043e+07
2.9808e+06
1.12073e+06
8.26424e+07
8.59201e+07
3.54997e+07
2.06676e+07
29041.5
1.06506e+07
2.22347e+06
8.34649e+07
4.34487e+07
3.72717e+07
5.05281e+07
1.14587e+06
3.97764e+07
3.97339e+07
4.55738e+07
1.89018e+07
224097
2.30313e+07
694616
4.71457e+07
8.08978e+07
552169
5.84277e+07
4.71893e+07
6.05543e+07
3.74072e+07
4.73956e+07
3.98754e+07
2.29772e+07
4.07245e+07
5.11482e+07
5.11241e+07
2960.12
1.57817e+06
1.56107e+06
2.92814e+07
7.1948e+07
3.80407e+06
2.75388e+07
77284.5
5.3923e+07
1.2578e+06
502993
779.744
34564.5
1.82508e+06
4.93751e+07
6.17006e+07
2.73829e+07
3.88564e+07
5.7369e+07
2.18344e+07
8.88798e+06
5.05902e+07
4.40888e+07
6732.95
8.77764e+06
8.61055e+06
1.23958e+07
4.73612e+07
30948.9
3.52309e+06
6.87182e+07
18266.7
2.14347e+07
5.77311e+07
919379
1.05112e+07
3.0684e+07
1.96867e+06
1.39755e+07
80001.3
1.58309e+06
738461
3.88073e+07
1.70124e+07
706262
2.38917e+07
5.40335e+07
1.96111e+07
5.66101e+07
4.88021e+06
4.98899e+07
1.98867e+07
4.91611e+06
3.22157e+07
1.59987e+07
5.3605e+07
4.99972e+07
187694
7.62537e+06
1.22137e+07
1.22523e+07
4.55895e+07
5.00119e+07
1.60151e+07
7.18413e+07
3.47888e+07
528640
1.55166e+07
1.57292e+07
3.42125e+07
9.33958e+06
1.07772e+07
1705
1.08325e+07
4.55497e+07
4.54608e+07
2.86423e+07
8.18578e+07
5657.37
5.80805e+07
2.03304e+06
6.59556e+07
8.46148e+07
4079.17
94529.1
1.19496e+07
6.11543e+07
7.98745e+06
1.99881e+07
88492.1
4.75738e+07
8.96607e+07
4.01171e+07
13056.4
3.56927e+07
6.24397e+06
3.8865e+06
5.07726e+07
7.99737e+06
17052.8
1.41369e+07
2.88338e+07
7.51502e+06
8.6558e+06
4.40302e+07
7.03804e+07
3.52102e+07
3.00111e+07
5.73332e+07
5.2165e+07
2.15075e+07
3.53022e+07
8.82428e+06
3082.67
3.99743e+07
138942
3.78488e+07
3.80492e+07
3.26504e+07
5.34679e+06
7.15938e+07
4.197e+07
4.21026e+07
4.26285e+07
6.61939e+06
58919.2
9.25988e+06
1.27034e+07
109120
2.80571e+07
4.59246e+06
75955.4
5.24103e+07
8.83965e+06
5.77147e+06
5.43343e+07
6.23839e+07
602350
8574.47
3.10752e+07
5.76173e+06
209794
1.21727e+07
16066.2
7.65796e+07
2.12985e+07
2284.36
9.13533e+06
9.22623e+06
2.86676e+07
6.95668e+07
3.77658e+07
5385.44
52040
7.33313e+07
8.64218e+07
4.77819e+07
1.8609e+06
3.42758e+07
8.34759e+07
5.07437e+07
8.97827e+07
9.46343e+06
5.01363e+07
2.06028e+07
40166.2
2.83998e+07
5.82549e+07
5.47128e+07
5.64851e+07
734684
1.00128e+07
5.18585e+07
1.11837e+06
2.17693e+07
6.32907e+06
4.43497e+06
5.8948e+07
4.74025e+07
5.59027e+06
2.84758e+07
6.50449e+07
3.60983e+07
6.16394e+07
2.29761e+07
3.88944e+06
2.29192e+07
8932.29
4.40869e+07
407.908
2.86331e+07
5.59321e+07
4.27374e+07
1.16196e+07
7.57371e+07
2.12416e+07
2.55195e+07
1.9359e+07
4.82081e+07
8.45338e+07
1.73999e+07
9.13586e+07
4.28554e+07
4.22402e+07
3060.41
152615
8.6726e+07
48316.8
5.54312e+07
4142.77
4.37703e+06
4.94347e+07
38867.3
4.08659e+07
5.7777e+06
5.12696e+07
8.70594e+07
8.24553e+06
5.48441e+06
6309.93
6.1178e+06
1.11539e+07
3.86637e+07
3.85527e+07
12726.5
923866
35632.9
6.02931e+07
6.02979e+07
106693
6.86352e+06
5.31383e+07
7.05222e+07
2.7739e+07
680951
2.78393e+07
3.38599e+07
88516.7
5.36748e+07
7.40989e+07
4.45148e+06
3.24803e+07
562123
3.126e+07
5.53315e+07
2.70407e+07
7.32192e+07
9.33487e+06
1.65676e+07
7.23074e+07
7.097e+07
6.7469e+07
1.45131e+07
3.85083e+07
5.84044e+07
1.03253e+06
1.69931e+07
5.41215e+07
1.50017e+07
4.15142e+07
3.18697e+06
2.26198e+07
1.64573e+06
1.23787e+06
8.96937e+07
2.80497e+07
19829.9
9.11963e+07
48341.9
7.35989e+06
7.56569e+06
8.01872e+07
4.96692e+07
1.94722e+07
2.06656e+07
1119.17
3.95317e+07
1.73685e+07
5.8444e+07
1.75485e+07
4.27698e+07
22550.1
2.28349e+07
7.05636e+07
8.05626e+07
8.33703e+07
479801
3.89411e+07
3.10378e+07
3.5715e+06
8.248e+06
2042.14
2.07542e+07
4.10906e+07
1.12783e+07
2.85211e+07
2.50451e+07
3.24022e+07
3.7998e+07
73590.6
4309.09
2.83914e+07
2.67866e+07
8.66137e+06
227422
148599
5.20227e+06
6.91337e+07
4.98985e+07
9.18515e+07
6.82121e+07
6.83666e+07
2.82462e+07
788787
2.03526e+07
63420.6
5.474e+07
2.93029e+07
3.84909e+07
4.02322e+07
4.34156e+07
3.18918e+07
2.79842e+06
8.28208e+07
4.1259e+06
4.41676e+07
5.62672e+07
4.96308e+07
5.67523e+06
2.78409e+07
2.77885e+07
1.24317e+07
5.19598e+07
46676.2
1.94437e+06
1.23343e+06
6.84061e+07
2.23994e+07
6.01435e+07
7.01563e+07
1.69827e+07
1.67917e+07
8.42715e+07
5.26113e+07
1.80634e+07
2.98253e+07
2.92554e+07
5.71148e+07
3.1031e+07
3.8705e+07
1.68891e+07
7.99386e+07
782.522
5.79636e+07
7.34769e+07
2.74918e+07
102653
214516
35814.6
9.53166e+06
8.31256e+07
3.47131e+07
7.35348e+07
2.4227e+07
5.51741e+07
9.09868e+06
9.18969e+06
5.61173e+06
8.85745e+06
4619.18
2.42509e+07
1.34344e+07
171110
3.37404e+06
3099.55
2.08459e+07
1.29431e+07
4.48245e+07
6150.14
6.01856e+07
6.0159e+07
6.79638e+06
6.05785e+07
2.90908e+07
5.77309e+07
5.84279e+07
4.12893e+07
4.0965e+07
324311
166580
5861.99
5.08179e+06
239741
1.61305e+07
4.63884e+07
7.55447e+07
3.00398e+06
1.76625e+07
523760
6.69269e+07
1.65353e+07
8.53661e+07
4.36713e+07
8.04619e+07
2.39156e+07
1.18633e+07
7.31085e+07
803610
4.58393e+07
9.36929e+06
7.32972e+07
1.99566e+07
8.16315e+06
4.18609e+06
6.08777e+07
2.81573e+07
4846.5
7.57373e+07
2.68668e+07
2.95284e+07
6.10449e+07
2.09957e+07
5.37817e+07
236650
9.44386e+06
2.29018e+07
2.26343e+06
4.23236e+07
1.05965e+07
5290.06
7.19162e+07
4.25583e+07
441541
857746
5.12658e+07
3.84586e+07
1.40563e+07
1.1151e+07
5.50866e+06
9.0441e+07
9.80187e+06
3.04746e+07
4.60344e+07
3.68783e+07
2.20886e+07
3618.25
6.98683e+07
4.09326e+06
1.46197e+07
4.15537e+07
5.09695e+07
8.72056e+06
8.81714e+07
544699
3.0773e+07
3.7462e+07
596120
2.70978e+07
8272.82
2.4626e+07
7.18058e+07
949657
1.99579e+07
7.98038e+06
1.74696e+07
1.7452e+07
5.60505e+06
16041.9
4.98873e+06
3.60735e+06
5.70862e+07
1.06995e+07
1.11062e+07
5.51786e+07
1.0429e+06
5.22391e+07
7.0243e+06
2.95089e+06
116010
7.71974e+07
4.62994e+07
7.34259e+07
2.0056e+07
3.9869e+06
1.44693e+07
1.2029e+07
1.81534e+07
2.45242e+07
1.79975e+07
748237
2.87938e+07
2.87767e+07
1.57286e+07
1.52479e+07
8.55484e+07
3.65983e+07
1.56512e+07
1.00668e+07
5.98753e+07
3.26231e+07
3.26809e+07
2.61307e+07
5.76946e+07
1.33552e+07
1.7565e+07
912607
113185
4.50712e+06
1.23943e+06
2.84738e+07
4.72322e+07
4.24979e+06
2.33598e+07
8.20307e+07
4.48538e+06
4.61323e+07
926904
1.68361e+07
2.92911e+07
5.4381e+07
4.98286e+07
4.93499e+07
523861
3.52342e+07
1.7751e+07
2.84465e+07
6.96613e+06
9.09504e+06
1.00573e+07
6.78892e+07
140366
7.99374e+07
577317
1.34304e+07
2.28564e+07
5.7707e+07
1.41593e+07
1.19165e+07
6.67371e+07
2.09509e+07
4.44906e+06
4.9085e+07
2.60182e+07
2.59665e+07
2.14842e+06
6.68518e+06
218703
4.83768e+07
1.7326e+06
2.81092e+07
2.81086e+07
5.16795e+06
2.2753e+07
6.47268e+07
5.0459e+07
3359.12
8.05298e+07
2.21946e+07
2.2686e+07
8.39115e+06
2.48605e+07
6.22778e+07
2.65798e+07
2.65627e+07
3.50433e+07
88153.9
1.14847e+07
5.90704e+06
506266
3.62247e+06
6.01415e+07
910324
4.07186e+07
1.51619e+07
3.93837e+06
6.39003e+07
2.86829e+07
89122.9
1.0244e+07
5.6365e+07
4.50803e+06
4.79912e+07
1.753e+07
1.13429e+06
4.07616e+07
1.01591e+07
3.05756e+07
1.76339e+07
2.11909e+07
6.82692e+06
7.79896e+07
8.12476e+07
91513.4
2.03831e+07
2.32331e+07
5592.25
4.20178e+07
2.37491e+07
4.46399e+07
3.19429e+07
3.09546e+07
55034.9
2.00495e+07
1.38617e+07
2.47002e+07
4.86096e+07
3.01487e+07
3.72933e+07
489704
5.52072e+07
8.76796e+07
4.57867e+07
1.67824e+07
8013.35
7.27331e+06
1.70158e+07
8.8335e+07
2.19738e+07
2.20384e+07
5.85819e+07
1.55545e+07
729639
1.71023e+06
6.30676e+07
5.31959e+07
2.26873e+07
9.08029e+07
1.22732e+07
123199
1.37628e+06
4.99747e+07
1.28018e+06
1.98334e+07
2.04743e+07
4.62107e+07
37949.4
116977
2.90096e+07
1.51587e+07
5.13699e+07
4.67854e+06
3.83731e+07
2140.6
1.73357e+07
2.45504e+07
3.69081e+07
9.39401e+07
6.41936e+07
8.02082e+07
1.68514e+07
2.54454e+07
3.63402e+07
7.97163e+07
2.62259e+07
1.53626e+07
4.05348e+07
2.19199e+07
2.55353e+07
4.65504e+07
4.65216e+07
8.62359e+07
5.22211e+07
5.2911e+06
944048
4.6445e+06
4.99847e+07
9.50546e+06
846840
1.01719e+07
324492
4.06105e+07
523803
1.1829e+07
8.95368e+07
2.04435e+07
602556
2.56761e+07
4.62667e+07
128939
7.01874e+07
1754.65
6.1424e+06
2.7132e+07
1.89673e+07
106539
1.96673e+07
124870
4.45952e+06
8.2569e+06
6.43658e+06
7.87198e+06
3.25431e+07
3.65664e+07
1.52483e+07
1.00716e+07
2.6355e+07
104254
5750.07
1.5941e+07
7.55294e+07
6.08783e+07
84047.7
1.41311e+07
6.83792e+07
51537.7
2.73795e+07
5.21748e+07
3.68194e+07
1.80015e+07
5.08038e+06
6.70878e+06
1.79672e+07
6.76059e+07
1.12693e+06
643982
2.56442e+07
95473.9
4.40315e+06
37564.3
2.75804e+07
1.98389e+07
7.34965e+07
7.13088e+06
432.143
10731.4
3.10562e+07
2.3871e+07
2.92822e+07
3.41648e+07
4.75203e+07
48479.9
2.06335e+06
4175.3
5.67129e+07
5.00364e+07
1.00582e+07
1.54466e+07
2.84092e+07
8.97627e+07
899500
4.04913e+06
2.864e+07
7.48255e+07
2.41605e+07
6.03203e+06
6.7532e+07
328.054
6.14628e+07
4.19304e+07
8.33493e+06
2.31969e+07
3.76474e+07
3.55005e+07
1.70111e+07
3.79888e+07
7.84545e+06
154631
5.34233e+07
216954
5.54179e+07
2.58172e+07
3.13292e+06
4.6601e+07
6.73071e+07
1.58418e+07
7.91606e+06
5.43527e+07
116112
4.64338e+06
16901.8
24358.4
443320
5.97195e+07
1.64656e+07
1.56134e+07
4.29933e+07
4.88186e+07
2.46407e+07
4.59843e+06
4.8316e+07
2.45345e+07
3.88213e+07
1933.36
18188.1
2.73914e+06
6.71203e+07
8.11739e+06
6.52533e+06
1.66147e+07
7.21621e+07
4.71401e+07
8056.45
6.66307e+07
2.70875e+07
4.51452e+06
3.31487e+07
6.90324e+07
6.00974e+06
154875
3.8191e+07
3.19602e+07
1.79365e+07
1.31672e+07
8.61189e+07
7.90506e+07
4.68891e+07
3.91579e+07
4.24109e+07
4.80482e+06
8.67158e+07
1.78289e+07
3.84265e+06
1.19898e+07
1.72778e+07
2.74015e+07
2.5345e+07
1.60064e+07
8.59739e+07
4.12186e+07
4.11027e+07
6.32011e+07
2.17224e+06
1.46666e+06
4.93326e+07
2.63904e+07
3.32987e+07
118189
44604
2.8301e+07
2.12801e+07
4.54165e+07
1.10664e+06
127220
599558
2.04868e+07
1.79231e+07
7.487e+07
2.505e+07
3.50153e+07
16686.1
5.13264e+07
5.3354e+06
60748.2
7.49314e+07
1.99506e+06
9.00975e+07
3.37147e+07
1.6159e+07
7.37145e+07
1.33172e+06
5.00052e+07
5.00468e+07
4.79964e+06
6.20699e+07
3.7405e+07
6.45847e+07
5.21227e+07
4.47931e+07
4.47762e+07
5.21154e+07
5.18587e+07
9.37429e+07
2.39183e+07
2.408e+07
7.9349e+07
5.70351e+07
5.71051e+07
7.91087e+07
665116
217428
5.56809e+07
7.12894e+06
4.76406e+07
4.75961e+07
8.48687e+07
5.15876e+06
2.55729e+07
3.62336e+07
2.20646e+07
1.04127e+07
1.75928e+07
16275.6
8.70995e+06
2.71492e+07
1.77144e+07
3.7871e+06
2.46132e+07
5.8795e+07
8.13281e+07
3.16387e+07
3.7316e+07
1.87964e+07
8.15422e+07
8.10958e+07
2.25216e+06
4.60437e+07
3.19393e+07
1.84169e+07
4.00606e+07
3.74969e+07
1.226e+07
3.9203e+06
21561.7
8.33439e+07
4.21677e+07
6.77549e+07
5.92888e+07
3.91686e+07
3.91364e+07
13796.2
3466.44
3.89963e+07
3.16325e+07
4.18194e+07
5.65593e+07
48139.3
8.33518e+07
2.74148e+07
5.89045e+06
2.59925e+07
1.43975e+07
2.04452e+07
7.58252e+07
4.04841e+07
5.00034e+07
5.93589e+07
4.28731e+07
4.78665e+06
1.57724e+07
5.5875e+07
5.22556e+06
1.58434e+07
1.76723e+07
7.73391e+07
39491.1
584747
5.68404e+07
6.98857e+06
2.82174e+07
4.43766e+07
57515.8
8.34825e+06
8.67426e+07
6.10074e+07
1.85364e+07
1.28656e+07
2.57738e+07
3.29286e+06
3.25913e+06
3.35761e+07
7.6672e+07
6.83169e+06
8.8511e+07
8.8235e+07
210890
22609.2
17329.9
2.83782e+07
7.85739e+07
1.99876e+06
1.341e+07
1.30736e+07
2.73905e+07
1.64979e+07
1.14323e+07
961119
3.04709e+07
637636
2.49925e+07
2.49873e+07
2.95494e+07
4.82257e+07
7.22465e+06
5.41023e+07
4.02268e+06
4.7367e+06
4.48887e+07
2.58056e+07
3.00396e+07
5.40268e+07
1.28189e+07
2.93152e+07
2.48132e+07
2.2888e+07
131698
8.02267e+07
228200
1.04928e+06
6.14051e+07
8.73038e+07
339716
3.58843e+07
3.75123e+07
2.70183e+07
9.48544e+06
19486.3
947805
52751.2
3.19677e+07
1.67216e+06
1.7096e+07
2.13001e+07
8.73713e+06
4.62303e+07
122888
5.3706e+07
3.77389e+07
6.29155e+07
6.28923e+07
6.96784e+06
5.55476e+07
7.32236e+07
5.31525e+07
1.71025e+07
2.12835e+07
23436.4
5.46352e+07
4.54538e+07
1.75948e+07
3.02665e+07
5.92183e+07
5.52035e+07
8.14724e+07
2.75198e+07
7.39243e+07
4471
1.90285e+07
3.54459e+07
9656.22
324329
3.54856e+07
785679
23088.2
9.94658e+06
1.60151e+07
9.80134e+06
5.79597e+07
2.37405e+07
1.09481e+07
813225
4.09204e+07
5.51862e+07
3.67807e+07
5.13863e+07
6.54149e+07
6.20395e+06
1.52336e+07
1.39885e+07
2.65309e+07
1.51294e+07
1.39079e+07
2.1777e+07
2.79722e+07
2.80587e+07
5.13314e+07
1.39022e+07
7.74486e+07
9.11637e+07
1.22801e+07
4.1846e+07
3.56737e+07
2444.23
4.90749e+06
7.98714e+06
5.78525e+06
1.08889e+07
2.74151e+06
400559
2.67898e+07
1.63574e+06
9.40767e+06
1.00953e+08
568184
1.89418e+07
4.897e+07
1.13661e+06
956810
3393.88
611827
7.17496e+07
6.5829e+06
43242.4