/*--------------------------------*- C++ -*----------------------------------*\
| =========                 |                                                 |
| \\      /  F ield         | OpenFOAM: The Open Source CFD Toolbox           |
|  \\    /   O peration     | Version:  v3.0+                                 |
|   \\  /    A nd           | Web:      www.OpenFOAM.com                      |
|    \\/     M anipulation  |                                                 |
\*---------------------------------------------------------------------------*/
FoamFile
{
    version     2.0;
    format      ascii;
    class       volVectorField;
    location    "7000";
    object      D;
}
// * * * * * * * * * * * * * * * * * * * * * * * * * * * * * * * * * * * * * //

dimensions      [0 1 0 0 0 0 0];

internalField   nonuniform List<vector> 
27023
(
(7.1431e-07 2.0648e-07 0)
(-7.14744e-07 2.06496e-07 0)
(-5.73245e-07 1.52841e-07 0)
(5.72889e-07 1.52797e-07 0)
(7.04355e-07 1.99356e-07 0)
(-7.04786e-07 1.99377e-07 0)
(-2.5716e-06 1.94264e-06 0)
(2.57065e-06 1.94267e-06 0)
(-3.32821e-07 9.07746e-08 0)
(3.32567e-07 9.06207e-08 0)
(-1.84386e-06 1.10874e-06 0)
(1.843e-06 1.10883e-06 0)
(-7.78736e-08 6.603e-08 0)
(7.78046e-08 6.57897e-08 0)
(1.3625e-06 4.5764e-06 0)
(-5.78047e-08 5.09106e-07 0)
(-7.13465e-08 4.80525e-07 0)
(2.6655e-06 4.07963e-06 0)
(-2.66659e-06 4.07965e-06 0)
(-1.88088e-06 3.56595e-06 0)
(1.87981e-06 3.56594e-06 0)
(-2.59465e-06 1.97044e-06 0)
(2.59369e-06 1.97047e-06 0)
(-1.64541e-06 1.6432e-06 0)
(1.64443e-06 1.64324e-06 0)
(-3.58673e-07 3.10682e-06 0)
(1.12168e-06 1.11654e-06 0)
(-9.99599e-07 7.8167e-05 0)
(1.14712e-06 1.14281e-06 0)
(-3.8171e-06 2.0758e-05 0)
(-6.78266e-07 3.32161e-06 0)
(-1.92162e-06 3.6062e-06 0)
(1.92055e-06 3.60619e-06 0)
(2.60471e-06 6.74595e-06 0)
(1.38008e-06 4.64873e-06 0)
(-2.59399e-06 1.04732e-05 0)
(-1.57403e-06 2.748e-06 0)
(1.57299e-06 2.74801e-06 0)
(-3.42234e-07 9.28588e-08 0)
(3.42007e-07 9.27324e-08 0)
(5.6214e-07 1.49443e-07 0)
(-5.6249e-07 1.4949e-07 0)
(2.36782e-06 2.04298e-05 0)
(7.18479e-07 2.0587e-07 0)
(-7.18917e-07 2.05888e-07 0)
(-2.7034e-06 4.12774e-06 0)
(2.70231e-06 4.12772e-06 0)
(-1.6995e-06 2.27305e-06 0)
(1.69849e-06 2.27305e-06 0)
(-2.45963e-06 1.04969e-05 0)
(-1.66327e-06 2.25343e-06 0)
(1.66227e-06 2.25343e-06 0)
(2.67267e-06 6.83446e-06 0)
(-6.73955e-08 3.2136e-08 0)
(6.72979e-08 3.19555e-08 0)
(-2.88493e-06 6.65852e-06 0)
(-2.99835e-06 2.72552e-05 0)
(-1.23168e-05 0.000108949 0)
(1.38781e-06 1.06524e-05 0)
(-5.68161e-07 1.51588e-07 0)
(5.6781e-07 1.51551e-07 0)
(-3.52094e-06 2.06502e-05 0)
(-1.91379e-07 4.18598e-06 0)
(-1.42718e-06 7.4536e-05 0)
(2.6008e-06 2.06597e-05 0)
(-6.34772e-07 3.31316e-06 0)
(-1.79833e-06 4.10184e-06 0)
(-3.95797e-07 3.09761e-06 0)
(1.10049e-06 7.03667e-07 0)
(1.52936e-06 1.06478e-05 0)
(-1.54058e-06 2.75416e-06 0)
(1.53954e-06 2.75417e-06 0)
(-2.21616e-06 2.13182e-06 0)
(2.21518e-06 2.13183e-06 0)
(-3.77106e-06 3.91361e-06 0)
(3.76999e-06 3.91358e-06 0)
(-4.39656e-08 4.70339e-08 0)
(4.39263e-08 4.6828e-08 0)
(3.13086e-06 2.61243e-06 0)
(-3.13186e-06 2.61244e-06 0)
(9.81799e-07 2.03729e-06 0)
(-1.82984e-06 1.10106e-06 0)
(1.82897e-06 1.10115e-06 0)
(-2.19524e-06 2.14042e-06 0)
(2.19425e-06 2.14044e-06 0)
(4.1248e-06 4.16407e-06 0)
(-4.12588e-06 4.1641e-06 0)
(1.79899e-06 4.09607e-06 0)
(-1.33683e-07 7.91446e-05 0)
(1.69383e-05 0.000246298 0)
(-1.64325e-05 0.000246157 0)
(-7.85222e-07 2.24006e-07 0)
(7.84743e-07 2.23987e-07 0)
(-6.50965e-07 5.3824e-07 0)
(1.26967e-07 5.04569e-08 0)
(1.58786e-06 1.47889e-06 0)
(-1.58883e-06 1.47885e-06 0)
(1.0021e-06 2.01578e-06 0)
(1.80074e-06 1.58832e-05 0)
(-3.30111e-08 1.27281e-05 0)
(3.56119e-06 2.25848e-05 0)
(1.70249e-05 0.000249848 0)
(-1.6201e-05 0.000249944 0)
(-2.30481e-06 1.80444e-06 0)
(2.30386e-06 1.80448e-06 0)
(-2.0336e-07 1.26443e-05 0)
(-2.57825e-06 2.08599e-06 0)
(2.57729e-06 2.08601e-06 0)
(-2.90125e-06 6.58289e-06 0)
(-1.31754e-05 0.000110366 0)
(-2.66917e-06 2.75864e-05 0)
(-2.56985e-06 2.09701e-06 0)
(2.56889e-06 2.09703e-06 0)
(-1.61214e-06 1.61409e-06 0)
(1.61116e-06 1.61413e-06 0)
(-3.78754e-06 3.96589e-06 0)
(3.78648e-06 3.96586e-06 0)
(-6.10651e-07 2.57805e-08 0)
(1.02828e-06 3.39439e-07 0)
(1.13287e-06 3.08771e-06 0)
(-1.10728e-06 5.41421e-06 0)
(-1.40843e-07 4.17493e-06 0)
(1.77029e-06 9.9597e-07 0)
(-1.77106e-06 9.95896e-07 0)
(-2.7723e-06 2.12171e-06 0)
(2.77133e-06 2.12173e-06 0)
(-7.87965e-07 2.21336e-07 0)
(7.87481e-07 2.21314e-07 0)
(-2.27918e-06 1.77348e-06 0)
(2.27823e-06 1.77352e-06 0)
(1.57949e-06 1.57377e-05 0)
(1.19138e-08 2.41694e-08 0)
(-1.17573e-08 2.36046e-08 0)
(6.67289e-07 3.42714e-06 0)
(-1.03978e-06 5.42806e-06 0)
(4.15377e-06 4.2163e-06 0)
(-4.15485e-06 4.21633e-06 0)
(-3.42239e-07 1.74609e-06 0)
(-2.59836e-06 3.68312e-06 0)
(2.59729e-06 3.68311e-06 0)
(2.33749e-06 1.66591e-06 0)
(-2.33842e-06 1.66586e-06 0)
(2.32177e-07 1.92341e-06 0)
(-2.49024e-06 1.86365e-06 0)
(2.4893e-06 1.86369e-06 0)
(6.69671e-07 3.47763e-06 0)
(2.50957e-06 2.88428e-05 0)
(-1.33943e-06 9.04671e-07 0)
(-1.84379e-06 4.13304e-06 0)
(-1.1011e-06 4.15727e-07 0)
(1.1005e-06 4.15752e-07 0)
(-1.29393e-06 5.25324e-07 0)
(1.29324e-06 5.25359e-07 0)
(2.77342e-06 1.64547e-05 0)
(1.17655e-06 3.08037e-06 0)
(1.25798e-05 0.000146683 0)
(-1.24897e-05 0.000146627 0)
(-1.42538e-06 4.69031e-06 0)
(-2.60149e-06 3.64306e-06 0)
(2.60042e-06 3.64304e-06 0)
(4.91618e-06 1.34553e-05 0)
(2.97121e-06 2.89097e-05 0)
(9.36143e-06 4.65325e-05 0)
(-3.44131e-07 1.16647e-05 0)
(1.48842e-06 6.99656e-07 0)
(-1.48916e-06 6.99603e-07 0)
(2.17402e-06 1.49467e-06 0)
(-2.17493e-06 1.4946e-06 0)
(7.28589e-07 2.10701e-06 0)
(-7.42303e-08 2.06223e-06 0)
(-1.46172e-06 7.33849e-05 0)
(3.10422e-06 2.57942e-06 0)
(-3.10522e-06 2.57943e-06 0)
(1.03176e-05 0.000147123 0)
(-1.02416e-05 0.000147035 0)
(7.43348e-06 7.98336e-05 0)
(-2.25405e-07 1.15778e-05 0)
(2.41146e-07 1.89458e-06 0)
(6.24309e-06 7.99685e-05 0)
(-3.71685e-07 1.72542e-06 0)
(1.84592e-06 4.1272e-06 0)
(2.31365e-06 1.65171e-06 0)
(-2.31457e-06 1.65165e-06 0)
(3.39774e-06 2.29179e-05 0)
(3.13154e-06 6.11966e-06 0)
(3.21963e-06 6.12525e-06 0)
(1.55648e-06 1.47629e-06 0)
(-1.55745e-06 1.47626e-06 0)
(9.0835e-06 4.70974e-05 0)
(2.67719e-06 3.8842e-05 0)
(2.1568e-06 1.47136e-06 0)
(-2.15771e-06 1.47129e-06 0)
(8.98646e-07 1.68032e-06 0)
(-3.25343e-07 7.27745e-06 0)
(-2.76937e-06 2.13227e-06 0)
(2.7684e-06 2.13229e-06 0)
(7.38397e-06 2.2736e-05 0)
(2.04738e-06 1.3266e-06 0)
(-2.04827e-06 1.32652e-06 0)
(1.00516e-06 3.31981e-07 0)
(-1.48472e-06 4.72097e-06 0)
(1.08174e-06 7.19112e-07 0)
(-4.28455e-06 4.94828e-06 0)
(4.28344e-06 4.94824e-06 0)
(7.039e-07 1.97116e-07 0)
(-7.04333e-07 1.9714e-07 0)
(9.48093e-07 2.9337e-06 0)
(5.33659e-06 1.29889e-05 0)
(-4.21428e-06 4.90136e-06 0)
(4.21317e-06 4.90133e-06 0)
(-4.39609e-10 1.02085e-08 0)
(4.36656e-10 1.01585e-08 0)
(-6.12142e-07 5.17124e-07 0)
(9.8948e-07 2.95197e-06 0)
(3.5887e-07 1.01798e-07 0)
(-3.59095e-07 1.01996e-07 0)
(1.03035e-06 1.62966e-06 0)
(-1.0186e-07 2.04146e-06 0)
(-9.58129e-07 4.75364e-05 0)
(3.38281e-06 3.19307e-06 0)
(-3.38385e-06 3.19309e-06 0)
(2.88349e-06 3.95055e-05 0)
(1.78722e-06 1.01227e-06 0)
(-1.788e-06 1.0122e-06 0)
(2.74707e-06 1.6695e-05 0)
(-3.03362e-06 3.11523e-06 0)
(3.03259e-06 3.11522e-06 0)
(-2.15712e-06 1.92889e-06 0)
(2.15615e-06 1.92892e-06 0)
(-1.91355e-07 6.8818e-08 0)
(1.91212e-07 6.86324e-08 0)
(-2.76823e-06 0.000111797 0)
(-3.13848e-06 3.17746e-06 0)
(3.13745e-06 3.17744e-06 0)
(4.7557e-06 1.32626e-05 0)
(-3.43784e-06 3.80943e-06 0)
(3.43678e-06 3.8094e-06 0)
(-5.89508e-06 8.28458e-06 0)
(-1.9609e-06 5.99761e-06 0)
(2.63244e-06 1.96527e-06 0)
(-2.6334e-06 1.96524e-06 0)
(-1.13338e-06 8.58461e-07 0)
(-8.43389e-06 3.27146e-05 0)
(-4.19087e-06 9.47981e-06 0)
(2.30684e-06 5.10719e-06 0)
(-6.43972e-07 3.2665e-07 0)
(8.5462e-08 2.73618e-05 0)
(1.02877e-06 9.96228e-07 0)
(-5.2321e-06 1.94994e-05 0)
(2.34569e-06 5.1809e-06 0)
(2.8903e-06 2.42727e-06 0)
(-2.89129e-06 2.42727e-06 0)
(2.09262e-06 1.50569e-05 0)
(5.45791e-07 8.72726e-07 0)
(7.43286e-06 2.36788e-05 0)
(5.32455e-06 1.31685e-05 0)
(-4.96476e-06 8.40606e-06 0)
(5.51737e-06 1.60376e-05 0)
(-2.14375e-06 3.72364e-06 0)
(2.14267e-06 3.72363e-06 0)
(-5.41313e-07 -7.53008e-09 0)
(-1.36909e-07 1.44727e-06 0)
(-1.17403e-05 6.09821e-05 0)
(-3.48158e-06 3.79874e-06 0)
(3.48052e-06 3.79871e-06 0)
(-2.51393e-06 1.8885e-06 0)
(2.51298e-06 1.88854e-06 0)
(-3.8633e-07 4.83694e-06 0)
(4.31928e-07 8.65493e-07 0)
(-1.752e-06 9.68861e-07 0)
(1.75122e-06 9.68936e-07 0)
(-6.24466e-06 4.32553e-05 0)
(1.00559e-06 3.97742e-06 0)
(2.88312e-06 9.37163e-06 0)
(-1.01655e-06 1.83996e-05 0)
(-2.7925e-07 7.37494e-06 0)
(1.50435e-06 7.14697e-07 0)
(-1.50509e-06 7.14643e-07 0)
(2.23456e-06 4.07443e-06 0)
(-2.23566e-06 4.07443e-06 0)
(-6.71293e-06 3.3319e-05 0)
(3.65937e-06 9.6558e-06 0)
(-1.26344e-05 0.000266111 0)
(1.25194e-05 0.000265838 0)
(5.07376e-09 4.14288e-08 0)
(-5.04951e-09 4.16337e-08 0)
(1.33485e-06 8.28933e-06 0)
(2.17631e-06 1.10175e-05 0)
(-3.57418e-07 2.99828e-07 0)
(-1.18629e-06 4.43479e-07 0)
(-3.52843e-06 0.000220219 0)
(1.45155e-06 8.42405e-06 0)
(2.84896e-06 2.84468e-06 0)
(-2.84998e-06 2.84469e-06 0)
(3.83418e-06 3.79085e-06 0)
(-3.83524e-06 3.79088e-06 0)
(4.70358e-06 1.91872e-05 0)
(-4.1683e-06 8.65626e-06 0)
(4.10103e-06 4.58707e-06 0)
(-4.10212e-06 4.5871e-06 0)
(-7.02543e-08 7.42944e-08 0)
(-2.3549e-07 5.58754e-07 0)
(2.24216e-06 1.62722e-06 0)
(-2.2431e-06 1.62716e-06 0)
(2.94721e-07 -9.33805e-09 0)
(-5.12637e-07 1.18917e-07 0)
(5.12304e-07 1.18822e-07 0)
(-1.05265e-06 1.62234e-06 0)
(-1.53626e-06 5.13991e-06 0)
(6.37535e-07 2.63649e-05 0)
(-7.45407e-07 6.68104e-05 0)
(-9.50011e-09 3.852e-08 0)
(9.53007e-09 3.83187e-08 0)
(-2.35323e-07 5.3973e-08 0)
(2.35159e-07 5.38337e-08 0)
(-4.00221e-06 1.73632e-05 0)
(1.84346e-06 2.94101e-06 0)
(-1.8445e-06 2.94101e-06 0)
(-6.33653e-08 3.07758e-06 0)
(-1.7183e-06 6.37254e-06 0)
(-1.14865e-07 8.05255e-08 0)
(1.14748e-07 8.02261e-08 0)
(1.23724e-06 1.21115e-06 0)
(7.66142e-07 1.79057e-07 0)
(6.05531e-07 2.80299e-08 0)
(-2.04829e-06 8.33413e-06 0)
(6.81238e-06 1.5211e-05 0)
(-4.57862e-07 4.85671e-06 0)
(-1.30263e-06 8.83664e-07 0)
(1.46704e-06 8.38188e-07 0)
(5.97811e-07 1.31464e-06 0)
(-1.46774e-06 8.38603e-07 0)
(7.8719e-06 1.64086e-05 0)
(-1.2269e-07 5.08671e-08 0)
(-3.68928e-06 1.73139e-05 0)
(9.55328e-07 3.33117e-07 0)
(-9.55865e-07 3.33105e-07 0)
(6.79291e-07 3.16341e-06 0)
(-3.19241e-07 5.88418e-07 0)
(-2.36736e-06 2.00342e-06 0)
(2.36639e-06 2.00344e-06 0)
(1.08485e-05 4.12548e-05 0)
(-1.08943e-05 4.12642e-05 0)
(-7.26536e-10 9.98052e-09 0)
(7.2224e-10 9.93149e-09 0)
(1.03739e-06 7.00543e-07 0)
(-7.45027e-07 2.28403e-07 0)
(7.44584e-07 2.28401e-07 0)
(3.90196e-06 3.80989e-05 0)
(-5.70184e-07 4.41872e-06 0)
(7.66773e-06 3.65674e-05 0)
(-7.66913e-06 3.65675e-05 0)
(-3.19041e-06 3.19828e-06 0)
(3.18938e-06 3.19826e-06 0)
(-5.04907e-08 2.89508e-08 0)
(5.04293e-08 2.87827e-08 0)
(-1.89422e-07 1.04477e-07 0)
(3.04899e-06 2.59243e-06 0)
(-3.04999e-06 2.59244e-06 0)
(3.82075e-07 9.77395e-06 0)
(1.15707e-06 4.88204e-07 0)
(3.97859e-06 4.63185e-06 0)
(-3.97968e-06 4.63189e-06 0)
(2.21239e-06 1.47495e-06 0)
(-2.21328e-06 1.47488e-06 0)
(-4.8584e-06 0.000108239 0)
(3.60907e-06 1.69765e-05 0)
(1.97046e-07 6.64665e-07 0)
(8.87517e-07 2.7908e-07 0)
(-8.88037e-07 2.79084e-07 0)
(3.14508e-06 2.70325e-06 0)
(-3.14609e-06 2.70326e-06 0)
(5.38883e-07 3.00438e-07 0)
(3.04917e-06 5.60099e-06 0)
(5.91586e-07 1.74792e-08 0)
(3.94717e-06 8.45315e-06 0)
(3.04701e-06 5.67622e-06 0)
(1.25479e-06 1.80705e-06 0)
(9.09063e-06 6.3523e-05 0)
(-1.43788e-06 2.44878e-06 0)
(-1.64184e-06 6.31915e-06 0)
(1.43685e-06 2.44875e-06 0)
(-2.63981e-06 2.02667e-06 0)
(2.63885e-06 2.0267e-06 0)
(1.02634e-06 1.05691e-06 0)
(-4.65994e-07 2.01651e-06 0)
(-3.09494e-06 3.80331e-05 0)
(5.78992e-06 1.62367e-05 0)
(1.39476e-06 9.16597e-07 0)
(7.61346e-08 -1.21443e-07 0)
(9.52766e-07 8.00591e-07 0)
(-6.77067e-06 0.000220485 0)
(-1.15821e-06 4.88329e-07 0)
(-5.45316e-06 0.000244759 0)
(-3.38633e-08 4.51405e-07 0)
(6.32975e-07 1.06022e-05 0)
(-1.9839e-06 5.75394e-06 0)
(-2.6371e-06 2.47932e-05 0)
(6.62326e-06 1.11571e-05 0)
(2.16375e-06 5.76597e-06 0)
(-2.13964e-06 1.93909e-06 0)
(2.13866e-06 1.93912e-06 0)
(-7.48885e-07 3.92533e-07 0)
(9.10543e-07 1.65127e-06 0)
(-2.1878e-06 6.67464e-05 0)
(9.1856e-07 2.89222e-07 0)
(-9.19097e-07 2.89226e-07 0)
(-2.00028e-08 2.49081e-06 0)
(-9.66792e-07 4.57761e-06 0)
(1.43328e-06 1.27255e-06 0)
(-9.7813e-08 3.08754e-06 0)
(-1.43211e-06 1.27236e-06 0)
(-1.7421e-09 3.01161e-08 0)
(1.74431e-09 2.99763e-08 0)
(4.09004e-06 5.86779e-05 0)
(-3.01438e-06 7.50187e-06 0)
(-1.03934e-06 2.96549e-07 0)
(-3.12258e-06 5.35599e-06 0)
(-2.17036e-06 8.25493e-06 0)
(2.40069e-06 6.2225e-06 0)
(-6.66931e-07 1.74378e-06 0)
(3.5498e-06 8.3234e-06 0)
(-4.65907e-07 -4.037e-08 0)
(-2.34341e-07 1.89073e-06 0)
(-1.07798e-06 4.82585e-05 0)
(5.70337e-06 9.71108e-06 0)
(3.93151e-06 4.55776e-06 0)
(-3.9326e-06 4.55779e-06 0)
(7.50924e-06 1.76386e-05 0)
(-7.75118e-07 1.85704e-05 0)
(-1.27516e-05 6.13909e-05 0)
(1.0439e-06 1.60149e-06 0)
(-3.61401e-06 4.12635e-06 0)
(3.61293e-06 4.12632e-06 0)
(2.06785e-06 2.24454e-06 0)
(-2.06885e-06 2.24453e-06 0)
(-3.64939e-06 7.42361e-06 0)
(-1.27524e-07 -1.13503e-07 0)
(-4.08036e-07 9.96088e-08 0)
(4.07781e-07 9.95365e-08 0)
(1.17789e-05 3.70623e-05 0)
(-1.17808e-05 3.70625e-05 0)
(-2.18119e-06 3.24259e-06 0)
(2.18014e-06 3.24258e-06 0)
(-6.68056e-10 1.708e-08 0)
(6.70819e-10 1.71623e-08 0)
(6.5896e-07 1.68551e-06 0)
(9.73346e-07 8.94045e-06 0)
(2.62063e-06 5.78749e-06 0)
(1.00016e-07 -9.39323e-08 0)
(3.75367e-07 -1.85912e-08 0)
(2.02161e-06 1.27249e-06 0)
(-2.02248e-06 1.27241e-06 0)
(2.04823e-06 1.30013e-06 0)
(-2.04911e-06 1.30005e-06 0)
(-2.54766e-06 4.68477e-06 0)
(2.54654e-06 4.68475e-06 0)
(-1.22402e-06 4.9742e-07 0)
(1.22337e-06 4.97454e-07 0)
(4.3146e-07 1.60746e-06 0)
(-2.96943e-08 1.85576e-06 0)
(5.27606e-07 3.90525e-06 0)
(3.11167e-06 8.59425e-06 0)
(-7.53892e-07 1.3492e-06 0)
(-8.65174e-06 3.32155e-05 0)
(1.1552e-06 6.42298e-06 0)
(2.66221e-06 2.00234e-06 0)
(-2.66317e-06 2.00232e-06 0)
(3.40442e-06 8.81412e-06 0)
(-3.79871e-06 3.80069e-05 0)
(-4.42465e-06 8.49915e-05 0)
(-4.97333e-06 9.9759e-06 0)
(-3.54696e-06 7.14355e-06 0)
(1.24709e-06 1.14067e-06 0)
(5.99331e-07 3.07229e-06 0)
(-2.75135e-06 2.64606e-06 0)
(2.75034e-06 2.64606e-06 0)
(6.25345e-06 8.4659e-05 0)
(-6.05318e-06 8.46673e-05 0)
(-5.33856e-07 1.39562e-07 0)
(5.33519e-07 1.39484e-07 0)
(-3.1187e-06 3.19075e-06 0)
(3.11767e-06 3.19073e-06 0)
(-1.1014e-07 3.5463e-06 0)
(-4.5549e-07 1.37226e-06 0)
(6.19382e-07 3.04334e-06 0)
(-5.74741e-07 9.33231e-09 0)
(-9.59537e-06 2.35406e-05 0)
(-6.3122e-06 0.000177912 0)
(1.80123e-06 1.04492e-06 0)
(-1.80207e-06 1.04483e-06 0)
(1.89551e-06 6.13282e-06 0)
(-1.18683e-06 4.36675e-07 0)
(-1.05545e-07 3.60128e-06 0)
(1.84805e-06 2.98104e-06 0)
(-1.8491e-06 2.98104e-06 0)
(-8.27986e-07 2.61917e-07 0)
(8.27501e-07 2.61916e-07 0)
(-9.53417e-07 7.89091e-07 0)
(7.26338e-06 1.76414e-05 0)
(2.32288e-06 6.25058e-06 0)
(8.65233e-07 2.07303e-07 0)
(-8.65811e-07 2.07343e-07 0)
(6.53777e-06 3.40029e-05 0)
(2.45993e-07 6.20979e-07 0)
(-1.51647e-06 2.31878e-06 0)
(1.51546e-06 2.31879e-06 0)
(1.22693e-06 1.77362e-06 0)
(-2.24533e-06 1.49141e-06 0)
(2.24444e-06 1.49147e-06 0)
(-1.88853e-06 1.15667e-06 0)
(1.88767e-06 1.15676e-06 0)
(1.40701e-06 1.02457e-06 0)
(1.59108e-06 8.17773e-07 0)
(-1.59182e-06 8.17713e-07 0)
(1.34542e-06 6.04454e-06 0)
(3.1641e-06 1.47507e-05 0)
(-3.41546e-06 4.10477e-06 0)
(3.41438e-06 4.10474e-06 0)
(3.12219e-06 5.35764e-06 0)
(3.86749e-06 4.33504e-06 0)
(-3.86858e-06 4.33508e-06 0)
(-7.32531e-06 3.32152e-05 0)
(2.58315e-06 2.43249e-06 0)
(-2.58415e-06 2.43248e-06 0)
(2.28301e-06 4.10781e-06 0)
(-2.2841e-06 4.10782e-06 0)
(5.64576e-07 3.49607e-06 0)
(-1.33757e-06 6.25669e-07 0)
(1.33691e-06 6.25712e-07 0)
(1.16095e-05 7.76442e-05 0)
(6.48051e-07 1.07754e-05 0)
(4.16721e-07 3.47469e-06 0)
(4.91534e-07 2.02988e-06 0)
(-1.79084e-06 1.50998e-06 0)
(1.78987e-06 1.51003e-06 0)
(3.01712e-06 2.59503e-06 0)
(-3.01812e-06 2.59503e-06 0)
(2.00848e-06 6.15011e-06 0)
(7.39214e-06 2.2425e-05 0)
(-1.25582e-06 1.8072e-06 0)
(-4.07186e-07 3.91201e-05 0)
(1.28099e-06 9.09015e-07 0)
(1.25786e-06 1.11349e-06 0)
(-6.27654e-06 8.29595e-05 0)
(3.99723e-07 9.67552e-08 0)
(-3.99974e-07 9.6829e-08 0)
(8.73036e-06 2.29769e-05 0)
(3.85776e-06 3.84152e-06 0)
(-3.85882e-06 3.84156e-06 0)
(-6.86189e-06 4.38032e-05 0)
(-1.40439e-07 3.43836e-06 0)
(2.37158e-06 2.03148e-06 0)
(-2.37255e-06 2.03146e-06 0)
(1.14831e-06 4.69306e-07 0)
(7.55706e-06 3.70512e-05 0)
(-7.55849e-06 3.70514e-05 0)
(-4.0327e-08 2.5198e-06 0)
(-1.02756e-07 -1.34888e-07 0)
(1.68018e-06 1.77868e-05 0)
(1.06543e-06 1.07187e-06 0)
(1.71251e-06 5.93237e-06 0)
(-1.52613e-06 2.2844e-06 0)
(1.52513e-06 2.2844e-06 0)
(4.9062e-06 1.9444e-05 0)
(1.66619e-08 3.91169e-07 0)
(-2.72888e-06 3.28831e-06 0)
(2.72784e-06 3.2883e-06 0)
(-8.18765e-07 5.28911e-06 0)
(1.89555e-06 3.7004e-06 0)
(-1.89663e-06 3.70041e-06 0)
(6.72461e-07 5.06832e-06 0)
(-8.98097e-07 3.10735e-07 0)
(8.97587e-07 3.10747e-07 0)
(2.03464e-06 1.32339e-06 0)
(-2.03553e-06 1.32331e-06 0)
(1.00593e-06 3.8602e-07 0)
(-1.00647e-06 3.85995e-07 0)
(-4.45969e-06 1.54166e-05 0)
(1.11921e-06 1.60744e-06 0)
(-1.12298e-06 1.60796e-06 0)
(-5.20575e-06 1.9185e-05 0)
(1.1396e-06 4.45501e-07 0)
(-1.14021e-06 4.45472e-07 0)
(2.5345e-06 1.1007e-05 0)
(-5.13644e-07 7.41955e-07 0)
(7.00274e-07 2.12795e-06 0)
(3.17857e-06 7.52571e-06 0)
(-9.72955e-08 3.11053e-07 0)
(1.57076e-07 3.54787e-08 0)
(5.40655e-07 3.29359e-07 0)
(5.76651e-06 9.60851e-06 0)
(-1.57628e-06 1.61702e-06 0)
(1.57531e-06 1.61705e-06 0)
(-9.54112e-06 7.25803e-05 0)
(-1.57111e-06 1.6573e-06 0)
(1.57013e-06 1.65733e-06 0)
(1.319e-05 0.000116805 0)
(2.13155e-06 2.08305e-06 0)
(-2.13253e-06 2.08303e-06 0)
(5.79553e-07 3.93251e-06 0)
(2.71052e-07 9.83217e-06 0)
(1.93222e-06 3.66576e-06 0)
(-1.9333e-06 3.66577e-06 0)
(-3.48961e-06 4.01764e-06 0)
(3.48853e-06 4.01761e-06 0)
(-4.16834e-06 8.77465e-06 0)
(-8.25507e-07 1.59632e-06 0)
(-1.18225e-06 9.28668e-07 0)
(-2.41642e-06 2.67605e-06 0)
(2.41541e-06 2.67605e-06 0)
(-3.36941e-06 3.30247e-06 0)
(3.36837e-06 3.30245e-06 0)
(-3.95651e-06 2.75296e-05 0)
(1.27251e-06 6.09552e-06 0)
(-1.21032e-05 0.000270706 0)
(1.19072e-05 0.00027035 0)
(-1.28356e-06 2.39511e-06 0)
(1.28246e-06 2.39501e-06 0)
(1.33353e-05 0.000109267 0)
(3.0634e-09 3.37047e-09 0)
(9.544e-10 1.38591e-09 0)
(-9.59188e-10 1.39283e-09 0)
(-3.07868e-09 3.38726e-09 0)
(2.01132e-06 1.53004e-05 0)
(-7.5376e-08 6.79525e-08 0)
(7.52865e-08 6.77084e-08 0)
(1.12396e-06 4.17267e-07 0)
(-1.12457e-06 4.17242e-07 0)
(7.70403e-07 2.20378e-07 0)
(-7.70873e-07 2.20398e-07 0)
(-9.04759e-07 3.164e-07 0)
(9.04248e-07 3.16413e-07 0)
(-2.28152e-07 1.10976e-06 0)
(-1.9415e-06 1.85325e-06 0)
(1.94053e-06 1.85327e-06 0)
(2.73221e-06 6.59842e-06 0)
(7.08832e-06 9.08627e-05 0)
(1.83776e-06 1.78588e-06 0)
(-1.83874e-06 1.78585e-06 0)
(1.62906e-06 5.91125e-06 0)
(-2.2549e-06 2.49041e-06 0)
(2.25389e-06 2.49042e-06 0)
(2.20541e-06 6.82143e-06 0)
(1.27944e-06 3.77482e-06 0)
(-3.55128e-06 7.2428e-06 0)
(9.65105e-07 3.59756e-07 0)
(-9.65638e-07 3.59735e-07 0)
(-3.16862e-06 6.08683e-06 0)
(-2.56991e-07 7.56864e-06 0)
(8.91069e-09 2.08413e-06 0)
(4.5447e-06 3.8655e-05 0)
(2.60678e-06 2.4276e-06 0)
(-2.60777e-06 2.42759e-06 0)
(2.41226e-07 -2.25601e-09 0)
(-1.37923e-06 9.72823e-07 0)
(3.10396e-06 2.67089e-06 0)
(-3.10496e-06 2.67089e-06 0)
(-2.22709e-10 1.46228e-08 0)
(2.23584e-10 1.46922e-08 0)
(-2.50201e-06 4.71929e-06 0)
(2.5009e-06 4.71928e-06 0)
(-6.45279e-06 3.39863e-05 0)
(1.06599e-06 2.59513e-05 0)
(-3.56141e-06 3.17271e-06 0)
(3.56037e-06 3.17269e-06 0)
(1.08548e-06 1.80935e-06 0)
(1.40326e-06 8.98413e-07 0)
(-1.86334e-07 -1.30834e-07 0)
(-1.3351e-05 0.000205665 0)
(-1.15156e-06 4.7112e-07 0)
(-1.62646e-06 4.48727e-06 0)
(-1.43543e-06 1.03132e-05 0)
(7.74012e-08 7.76605e-08 0)
(5.18775e-07 2.0085e-06 0)
(3.68598e-06 8.38951e-06 0)
(-1.06382e-06 3.36445e-07 0)
(-3.01418e-06 6.59158e-06 0)
(3.74016e-06 9.82758e-06 0)
(7.46563e-07 1.83888e-07 0)
(6.50415e-06 8.30486e-05 0)
(-1.11627e-08 4.05296e-08 0)
(1.11907e-08 4.03228e-08 0)
(-2.16004e-06 2.11581e-06 0)
(2.15906e-06 2.11582e-06 0)
(-1.12443e-06 4.95385e-07 0)
(1.38597e-07 2.77245e-06 0)
(1.25913e-06 6.43144e-06 0)
(2.4014e-06 7.76703e-05 0)
(-1.29279e-05 7.731e-05 0)
(-2.84335e-06 6.35306e-06 0)
(1.41602e-06 1.00788e-06 0)
(2.75121e-07 5.62409e-06 0)
(-1.22562e-05 0.000118921 0)
(1.3124e-05 0.000118709 0)
(4.41873e-07 1.83048e-06 0)
(-7.47229e-07 1.98212e-07 0)
(7.46759e-07 1.9818e-07 0)
(-1.30626e-06 1.10703e-06 0)
(-7.58611e-06 2.10562e-05 0)
(3.62662e-07 5.676e-06 0)
(5.50358e-06 4.41533e-05 0)
(-2.78273e-06 2.67161e-06 0)
(2.78172e-06 2.6716e-06 0)
(4.12001e-06 4.66024e-06 0)
(-4.12111e-06 4.66028e-06 0)
(1.18199e-09 3.42625e-08 0)
(-1.15741e-09 3.40912e-08 0)
(3.98037e-07 3.04653e-05 0)
(1.9703e-07 6.34331e-07 0)
(1.24822e-06 4.28108e-06 0)
(1.33864e-07 1.51098e-06 0)
(1.45842e-06 1.78594e-06 0)
(-1.45941e-06 1.78593e-06 0)
(-7.29202e-06 6.75609e-05 0)
(-3.48991e-07 8.55739e-08 0)
(3.48764e-07 8.54742e-08 0)
(3.40815e-06 3.23391e-06 0)
(-3.40919e-06 3.23393e-06 0)
(7.73817e-06 1.7885e-05 0)
(-2.44798e-06 2.36085e-06 0)
(2.44699e-06 2.36086e-06 0)
(4.25412e-07 2.11788e-08 0)
(-3.72175e-06 7.51205e-06 0)
(2.23625e-06 7.40251e-06 0)
(2.6449e-06 2.20732e-05 0)
(-4.83506e-06 1.22307e-05 0)
(-4.22501e-07 7.89193e-06 0)
(-3.38529e-06 4.12585e-06 0)
(3.38421e-06 4.12582e-06 0)
(-8.59374e-06 9.14378e-05 0)
(3.77198e-07 2.4667e-06 0)
(-2.23715e-06 1.5031e-06 0)
(2.23625e-06 1.50316e-06 0)
(2.84934e-06 1.38415e-05 0)
(4.80539e-06 6.71826e-06 0)
(8.54629e-07 1.14627e-06 0)
(-4.80659e-06 6.71812e-06 0)
(-6.45494e-07 6.78164e-08 0)
(6.44808e-07 6.74469e-08 0)
(-2.81625e-06 8.86636e-06 0)
(-8.76882e-07 2.23722e-07 0)
(3.94799e-06 1.34131e-05 0)
(2.60889e-08 -4.72559e-08 0)
(2.63912e-06 6.61412e-06 0)
(7.55652e-07 1.90258e-06 0)
(-1.08174e-05 3.04851e-05 0)
(6.01165e-07 3.1142e-06 0)
(-8.49118e-07 1.94599e-07 0)
(8.48537e-07 1.94554e-07 0)
(3.91121e-06 4.31752e-06 0)
(-3.91229e-06 4.31756e-06 0)
(-1.29935e-06 6.59335e-06 0)
(-5.61554e-07 2.53223e-05 0)
(2.64022e-06 2.52622e-06 0)
(-2.64122e-06 2.52621e-06 0)
(2.61074e-06 5.86187e-06 0)
(-3.714e-06 1.56691e-05 0)
(-1.19563e-05 0.000116815 0)
(-6.71502e-07 3.45355e-06 0)
(-4.10607e-06 2.13467e-05 0)
(-7.30309e-07 2.213e-07 0)
(7.29873e-07 2.21296e-07 0)
(6.96513e-07 5.21569e-06 0)
(-1.54138e-06 1.88835e-06 0)
(1.54039e-06 1.88837e-06 0)
(3.68267e-06 3.95177e-06 0)
(-3.68373e-06 3.9518e-06 0)
(-5.75721e-08 3.6091e-06 0)
(2.11084e-06 7.41378e-06 0)
(1.27864e-07 7.44765e-08 0)
(1.08161e-05 3.04858e-05 0)
(-1.68917e-06 9.26521e-07 0)
(1.68835e-06 9.26611e-07 0)
(-2.36684e-06 8.82249e-06 0)
(-1.22835e-07 1.41207e-06 0)
(1.83933e-06 1.18784e-05 0)
(4.31124e-06 1.25312e-05 0)
(2.28216e-06 1.61506e-05 0)
(1.02493e-06 9.65224e-07 0)
(4.47221e-07 1.71183e-06 0)
(9.35182e-07 4.02607e-07 0)
(-2.04086e-06 6.03122e-06 0)
(-3.68353e-06 3.81172e-06 0)
(3.68247e-06 3.81169e-06 0)
(-1.86074e-06 1.10925e-06 0)
(1.85989e-06 1.10934e-06 0)
(-1.08311e-05 4.84264e-05 0)
(1.06554e-05 4.83778e-05 0)
(5.28719e-07 3.45338e-06 0)
(-1.22604e-07 -1.32888e-07 0)
(-3.55794e-06 3.76448e-06 0)
(3.55688e-06 3.76445e-06 0)
(3.7931e-06 7.32009e-06 0)
(3.67957e-06 8.64136e-06 0)
(-7.249e-08 4.50492e-06 0)
(2.55815e-06 2.10952e-05 0)
(-4.40594e-06 0.000249137 0)
(-1.60437e-07 9.25644e-08 0)
(1.60332e-07 9.22983e-08 0)
(1.05223e-06 3.9804e-06 0)
(5.01798e-07 4.9159e-06 0)
(-2.46988e-06 1.8073e-06 0)
(2.46894e-06 1.80734e-06 0)
(1.07856e-07 2.03181e-06 0)
(-4.38229e-06 3.86096e-05 0)
(7.90711e-08 -1.3402e-07 0)
(-3.2837e-06 2.83026e-06 0)
(3.28268e-06 2.83024e-06 0)
(9.07077e-07 2.08324e-07 0)
(-9.07709e-07 2.08376e-07 0)
(1.24306e-06 1.42261e-06 0)
(7.1187e-07 1.88553e-07 0)
(-7.12319e-07 1.88588e-07 0)
(2.05222e-06 4.83372e-05 0)
(3.22709e-07 8.9524e-06 0)
(-1.03278e-06 7.68833e-05 0)
(-9.40405e-07 3.95286e-05 0)
(-3.46714e-06 4.05042e-06 0)
(3.46606e-06 4.05039e-06 0)
(1.47195e-06 2.61314e-05 0)
(1.82469e-06 3.08033e-06 0)
(-1.82574e-06 3.08033e-06 0)
(-4.33923e-06 4.79945e-06 0)
(4.33813e-06 4.79941e-06 0)
(1.08341e-06 1.59214e-06 0)
(-1.08428e-06 1.59253e-06 0)
(-1.23705e-06 5.12273e-07 0)
(1.23641e-06 5.12309e-07 0)
(2.29933e-06 1.59254e-06 0)
(-2.30024e-06 1.59248e-06 0)
(-4.35269e-07 3.1248e-06 0)
(5.47376e-06 1.5132e-05 0)
(-2.39618e-06 1.70537e-06 0)
(2.39525e-06 1.70542e-06 0)
(7.15946e-06 2.17701e-05 0)
(1.76024e-07 2.14945e-06 0)
(-1.23976e-06 4.85283e-07 0)
(1.2391e-06 4.85316e-07 0)
(-3.23428e-06 4.37028e-06 0)
(3.23319e-06 4.37025e-06 0)
(1.46108e-06 7.6643e-07 0)
(2.67258e-06 2.54159e-06 0)
(-2.67358e-06 2.54159e-06 0)
(3.70295e-06 3.37806e-06 0)
(-3.70399e-06 3.37808e-06 0)
(-1.46191e-06 7.6633e-07 0)
(-1.57848e-06 8.11564e-06 0)
(-2.05496e-06 6.40122e-06 0)
(-3.96981e-06 8.62517e-05 0)
(-2.74291e-06 3.83635e-06 0)
(2.74184e-06 3.83633e-06 0)
(4.69549e-06 6.6977e-06 0)
(-1.6481e-07 1.82851e-06 0)
(-1.28828e-07 7.4872e-08 0)
(-4.69663e-06 6.69755e-06 0)
(-9.73657e-07 2.08291e-06 0)
(-1.3015e-06 1.07653e-06 0)
(2.11373e-06 6.87205e-06 0)
(-1.55335e-06 1.92137e-06 0)
(1.55236e-06 1.92139e-06 0)
(-1.61958e-08 1.81629e-06 0)
(-4.45459e-07 1.75396e-06 0)
(2.92901e-06 8.28719e-06 0)
(-1.05473e-05 3.68786e-05 0)
(1.05456e-05 3.68784e-05 0)
(-2.27903e-06 1.4739e-05 0)
(1.10714e-07 2.78896e-06 0)
(-2.92236e-08 4.43338e-08 0)
(2.92246e-08 4.41237e-08 0)
(1.01922e-06 8.93915e-07 0)
(1.20368e-06 1.18724e-06 0)
(2.34161e-06 1.10952e-05 0)
(-2.4551e-06 1.80542e-06 0)
(2.45416e-06 1.80546e-06 0)
(1.4965e-06 8.54163e-07 0)
(1.11303e-05 7.89095e-05 0)
(1.46321e-06 7.79919e-07 0)
(-3.5159e-06 2.72091e-05 0)
(-1.19088e-06 4.91832e-07 0)
(1.19026e-06 4.91867e-07 0)
(5.83729e-06 1.7106e-05 0)
(-7.30934e-07 1.31456e-06 0)
(-1.49695e-06 8.54162e-07 0)
(1.98308e-05 0.000191785 0)
(-1.97767e-05 0.000191777 0)
(-1.46405e-06 7.79821e-07 0)
(4.2447e-06 1.21172e-05 0)
(-1.25603e-06 4.96427e-07 0)
(1.25536e-06 4.9646e-07 0)
(3.73106e-06 4.6179e-06 0)
(-3.73216e-06 4.61793e-06 0)
(-3.53871e-06 9.17419e-06 0)
(7.01719e-07 2.16762e-06 0)
(-2.25924e-06 8.6986e-06 0)
(-1.93918e-06 1.20867e-06 0)
(1.9383e-06 1.20876e-06 0)
(2.70799e-06 3.07556e-06 0)
(-2.70902e-06 3.07557e-06 0)
(9.4341e-09 7.05776e-07 0)
(3.03716e-06 2.1945e-05 0)
(-2.7217e-06 3.86542e-06 0)
(2.72062e-06 3.8654e-06 0)
(2.6022e-06 9.24227e-06 0)
(-3.35069e-07 1.08515e-07 0)
(3.34855e-07 1.08345e-07 0)
(1.60115e-06 5.5569e-06 0)
(8.99209e-07 1.94384e-07 0)
(-5.1145e-06 8.05906e-06 0)
(4.09995e-06 1.2573e-05 0)
(3.53901e-06 8.9311e-06 0)
(7.44021e-06 2.33139e-05 0)
(-1.56791e-06 4.45124e-06 0)
(1.63608e-06 4.34819e-06 0)
(7.20096e-07 7.40515e-06 0)
(-3.41324e-06 3.33725e-06 0)
(3.4122e-06 3.33723e-06 0)
(4.80568e-07 4.91037e-05 0)
(-6.24175e-08 1.02187e-06 0)
(-7.07547e-07 3.42258e-06 0)
(2.34136e-06 7.73825e-06 0)
(1.42669e-06 1.8082e-05 0)
(2.57092e-07 3.87978e-07 0)
(2.02257e-07 2.17745e-06 0)
(-3.57609e-06 1.89007e-05 0)
(3.25736e-06 2.52271e-05 0)
(-9.35882e-08 7.34354e-07 0)
(-4.87399e-07 1.4664e-06 0)
(1.02773e-06 9.20373e-07 0)
(-9.71133e-07 2.11764e-06 0)
(8.71515e-06 2.33424e-05 0)
(-1.3406e-06 1.04292e-05 0)
(1.17518e-06 6.79571e-06 0)
(4.10199e-07 9.85355e-08 0)
(-4.10456e-07 9.86027e-08 0)
(-9.73346e-07 8.60841e-07 0)
(3.35756e-07 1.01756e-07 0)
(-3.35976e-07 1.01967e-07 0)
(1.19806e-06 4.31856e-06 0)
(6.26009e-07 3.14907e-06 0)
(-1.81332e-06 1.50363e-06 0)
(1.81236e-06 1.50368e-06 0)
(-9.15567e-07 2.74127e-07 0)
(-2.29967e-07 9.68756e-08 0)
(2.29791e-07 9.66211e-08 0)
(8.41717e-07 7.49496e-07 0)
(3.08552e-06 3.82105e-05 0)
(-8.99847e-07 1.94465e-07 0)
(1.14677e-06 3.8622e-07 0)
(-1.37455e-06 9.46651e-07 0)
(-9.10135e-07 6.92343e-07 0)
(6.63978e-06 1.13341e-05 0)
(-1.2279e-06 1.77384e-06 0)
(-2.84348e-06 1.5732e-05 0)
(-3.67774e-06 1.0239e-05 0)
(-7.64687e-07 2.29351e-07 0)
(7.64229e-07 2.29342e-07 0)
(-5.79852e-07 4.36191e-06 0)
(4.15836e-07 1.57556e-06 0)
(-1.4271e-07 4.64563e-08 0)
(1.42578e-07 4.62668e-08 0)
(-1.35612e-06 7.73567e-07 0)
(9.64584e-06 0.000363583 0)
(-8.46202e-06 7.18268e-05 0)
(-1.54525e-06 6.33542e-06 0)
(1.48111e-06 3.34112e-06 0)
(-1.48214e-06 3.34112e-06 0)
(3.92545e-06 8.57228e-06 0)
(4.13555e-07 2.46457e-06 0)
(-6.8351e-06 6.83999e-05 0)
(1.07103e-07 3.43794e-08 0)
(-1.07229e-07 3.45719e-08 0)
(7.6853e-06 6.16364e-05 0)
(5.61429e-06 8.17744e-05 0)
(4.23231e-08 -9.45699e-08 0)
(-2.71077e-07 7.69083e-06 0)
(5.47147e-07 1.04673e-06 0)
(-4.30892e-06 1.02612e-05 0)
(-9.51605e-07 7.54818e-07 0)
(5.45594e-06 2.55647e-05 0)
(1.51987e-06 3.32179e-06 0)
(-1.52094e-06 3.32179e-06 0)
(5.55544e-06 1.20878e-05 0)
(3.05429e-06 6.44016e-06 0)
(-6.30441e-08 1.10102e-06 0)
(-2.04379e-07 1.08151e-06 0)
(8.69688e-06 6.22326e-05 0)
(1.64835e-06 8.73043e-07 0)
(-1.64916e-06 8.72959e-07 0)
(-1.17762e-07 1.81911e-06 0)
(1.18938e-06 3.43832e-06 0)
(5.74782e-06 1.40267e-05 0)
(4.20505e-07 1.00954e-07 0)
(-4.20768e-07 1.01017e-07 0)
(3.07362e-06 1.44679e-05 0)
(-5.13873e-07 5.11073e-07 0)
(-3.42314e-06 1.57981e-05 0)
(2.86037e-06 2.88358e-06 0)
(-2.86138e-06 2.88359e-06 0)
(6.31617e-07 3.38505e-06 0)
(1.39793e-06 1.40519e-06 0)
(-1.39849e-06 1.40461e-06 0)
(-1.47523e-06 6.84179e-07 0)
(1.47448e-06 6.84236e-07 0)
(-7.37249e-06 7.19924e-05 0)
(1.70817e-06 4.4133e-06 0)
(-3.21804e-08 4.75843e-08 0)
(3.21769e-08 4.73676e-08 0)
(1.04448e-06 1.78708e-06 0)
(-6.62245e-08 7.44849e-08 0)
(-1.21171e-05 0.000279835 0)
(-3.50078e-06 3.62181e-06 0)
(3.49973e-06 3.62179e-06 0)
(7.49766e-06 0.000176314 0)
(-2.31067e-06 1.56057e-06 0)
(2.30977e-06 1.56063e-06 0)
(-2.45225e-06 0.000146173 0)
(-5.40411e-06 2.55628e-05 0)
(6.37041e-07 3.24334e-06 0)
(1.71948e-06 9.96001e-07 0)
(9.5919e-07 1.74532e-06 0)
(5.89733e-07 7.46599e-06 0)
(-1.72034e-06 9.95902e-07 0)
(-5.74301e-06 1.42642e-05 0)
(-2.97334e-07 2.92547e-06 0)
(1.2017e-06 3.54331e-06 0)
(1.61774e-06 3.31295e-06 0)
(-1.61881e-06 3.31296e-06 0)
(-1.08678e-06 4.8913e-07 0)
(1.12606e-06 5.45214e-07 0)
(-3.20446e-06 6.19056e-06 0)