/*--------------------------------*- C++ -*----------------------------------*\
| =========                 |                                                 |
| \\      /  F ield         | OpenFOAM: The Open Source CFD Toolbox           |
|  \\    /   O peration     | Version:  v3.0+                                 |
|   \\  /    A nd           | Web:      www.OpenFOAM.com                      |
|    \\/     M anipulation  |                                                 |
\*---------------------------------------------------------------------------*/
FoamFile
{
    version     2.0;
    format      ascii;
    class       volScalarField;
    location    "7000";
    object      sigmayy;
}
// * * * * * * * * * * * * * * * * * * * * * * * * * * * * * * * * * * * * * //

dimensions      [1 -1 -2 0 0 0 0];

internalField   nonuniform List<scalar> 
27023
(
-1.54728e+07
1.54765e+07
1.22997e+07
-1.22987e+07
-1.45378e+07
1.45411e+07
5.54612e+06
-5.54487e+06
8.6191e+06
-8.62433e+06
8.60347e+06
-8.60356e+06
2.27835e+06
-2.27875e+06
-812029
128934
471398
-1.41821e+06
1.41852e+06
2.20576e+06
-2.20072e+06
4.73882e+06
-4.73764e+06
7.09882e+06
-7.09434e+06
808230
-5.06615e+06
-36380.4
-5.54401e+06
-142127
1.02424e+06
2.19168e+06
-2.18862e+06
-100631
-881250
133208
3.74874e+06
-3.7492e+06
8.05097e+06
-8.05466e+06
-1.30327e+07
1.3034e+07
-204514
-1.42662e+07
1.42698e+07
1.32604e+06
-1.32562e+06
5.50916e+06
-5.50473e+06
-160332
5.18575e+06
-5.18146e+06
-74566.9
574784
-571813
199776
273842
-43284.5
35775.1
1.3525e+07
-1.35235e+07
72414.4
257397
-169622
-90692.8
1.11312e+06
1.43664e+06
874586
-4.2584e+06
-217820
3.93789e+06
-3.93827e+06
6.72305e+06
-6.72008e+06
134104
-134104
985913
-985227
-1.6053e+06
1.60546e+06
-3.75419e+06
8.15546e+06
-8.15526e+06
7.10712e+06
-7.10403e+06
16189.6
-16174.8
-1.39737e+06
191441
77808.6
178669
1.28068e+07
-1.28032e+07
2.30651e+06
-488099
-6.65593e+06
6.65927e+06
-3.89057e+06
-195641
-36082.9
-10761.3
-115222
420870
6.97524e+06
-6.9727e+06
-151150
5.28908e+06
-5.28763e+06
441876
393022
-173000
6.25872e+06
-6.25714e+06
6.55849e+06
-6.55556e+06
168996
-168913
-1.32093e+06
-2.52933e+06
-2.40071e+06
354832
32404.5
-1.29111e+07
1.29132e+07
2.3922e+06
-2.39174e+06
1.20161e+07
-1.20123e+07
7.54321e+06
-7.54033e+06
-174713
-1.23812e+06
1.13623e+06
-1.22832e+06
224779
-177749
177756
1.374e+06
2.08153e+06
-2.08097e+06
-7.1592e+06
7.1613e+06
-805220
5.89787e+06
-5.89631e+06
-899751
8765.96
6.04763e+06
1.44578e+06
1.68355e+07
-1.68321e+07
1.23283e+07
-1.23245e+07
-6496.69
-2.27213e+06
-360904
640577
918087
2.10019e+06
-2.09965e+06
211060
-30492.8
-44092.9
416157
-1.14606e+07
1.14625e+07
-7.07265e+06
7.07524e+06
-2.77908e+06
243420
171259
-1.86922e+06
1.86936e+06
158356
309514
-509964
158028
-1.23566e+06
144900
1.8264e+06
-1.45891e+06
-6.28151e+06
6.28357e+06
221300
-258672
-378374
-6.81174e+06
6.8173e+06
-29983.4
20077.8
-8.05456e+06
8.05691e+06
-3.65038e+06
17091
3.73569e+06
-3.73523e+06
-23339.2
-7.87462e+06
7.87658e+06
-2.65104e+06
860829
-4.50695e+06
-13269.9
13296.3
-1.27439e+07
1.27468e+07
-2.10787e+06
-145510
114911
-114913
111047
-110526
1.69015e+06
-2.31936e+06
-1.81614e+06
1.81407e+06
-4.13892e+06
518265
44473.4
-705224
705289
-76572.2
-1.14836e+07
1.14852e+07
-46355.6
2.3939e+06
-2.39346e+06
7.11188e+06
-7.10852e+06
4.67515e+06
-4.67858e+06
-437925
1.9849e+06
-1.98458e+06
-84287.6
652171
-652074
114562
303387
-4.42775e+06
4.42833e+06
5.27925e+06
84855.5
164283
-633388
1.45978e+06
521233
-4.50765e+06
-88255.1
-500943
-3.89751e+06
3.89824e+06
137373
-2.48603e+06
2228.86
-160796
11613.1
-160321
2.14312e+06
-2.14152e+06
-1.75455e+06
831034
440803
635149
-634995
5.22405e+06
-5.22273e+06
234625
-1.6176e+06
1.21001e+07
-1.20989e+07
677745
-1.00195e+06
64952.6
181999
-111044
-1.06962e+07
1.06977e+07
-1.47258e+06
1.46913e+06
-283115
-12663.1
-162936
31877.8
-836505
840283
-69113.1
-175372
451068
4.83586e+06
-322072
-195975
-4.09318e+06
4.094e+06
18714.1
-18728.1
86726.7
100744
85858.4
-85697.1
2.32672e+06
603767
-6.95489e+06
6.95743e+06
2.62723e+06
2.69872e+06
-2.70588e+06
4.75122e+06
308660
412854
572007
491741
-489950
6.59399e+06
-6.59879e+06
170916
-3.71302e+06
3.71358e+06
142198
139648
2.84462e+06
-2.85121e+06
-6.08552e+06
120435
2.52378e+06
-51003.5
-113126
18982.7
5.27567e+06
-6.04611e+06
-2.63656e+06
5.94921e+06
470768
715910
239990
-1.82429e+07
1.82471e+07
-1.42958e+06
889817
6.71369e+06
-6.71138e+06
505661
-527686
130951
-130344
-3.95176e+06
1.76416e+07
-1.76371e+07
399702
348730
-397254
350175
1.83018e+06
-1.82984e+06
130967
-129820
-164940
-3.06678e+06
3.06726e+06
-64007.1
-3.52626e+06
-200836
201010
-7.93393e+06
7.9358e+06
-230239
199892
-669279
-1.37779e+07
1.37822e+07
-1.87725e+06
1.87744e+06
-989553
-462777
1.41426e+06
178206
-414707
-5.30352e+06
-81267.4
4.30319e+06
69954.5
-4.30453e+06
5.12985e+06
-5.12874e+06
-4.65291e+06
2.04182e+06
137336
45342.5
-6.37667e+06
1.18058e+06
-3.80832e+06
48902
3.69341e+06
152430
114729
85173.8
417999
435485
-28907.4
-369289
7.5183e+06
-7.51477e+06
2.0022e+06
-4.24037e+06
-429110
-1.27113e+07
1.27155e+07
-153214
583571
-6.43896e+06
74721.9
6.44973e+06
874812
-870761
-503455
39730.2
3.85587e+06
391725
-221944
-467994
2.98563e+06
-23397.9
-3.04683e+06
653571
64015.8
226348
-207466
207575
-311278
-21863.3
-998479
-4.93395e+06
443677
-443525
-6.31498e+06
6.31814e+06
-79114.3
-2.00889e+06
1.16742e+07
-1.16756e+07
186898
-182353
3.10707e+06
-3.10605e+06
-301157
302514
-2.73578e+06
70915.3
-412914
322627
905037
-9.01712e+06
9.01874e+06
-7.79779e+06
7.79969e+06
771110
-766120
1.51132e+07
-1.51098e+07
-2.0255e+06
505212
-532874
-220349
3.60069e+06
266411
-167445
-3.21e+06
3.21083e+06
-122256
149899
172411
-128233
127500
-5.60076e+06
-1.26244e+06
4.66138e+06
-4.66023e+06
222600
16978.7
8.58928e+06
-8.59087e+06
2.02817e+06
-2.02782e+06
75429.4
2.2222e+06
-1.6445e+06
-2.3907e+06
-34409.8
-683709
-9.32522e+06
9.32501e+06
-321086
4.49663e+06
144956
-3.47856e+06
3.47914e+06
1.74759e+07
-1.74714e+07
3.77788e+06
-325007
-306688
-5.7725e+06
5.77787e+06
34961.7
-938877
4.62369e+06
-4.61993e+06
-4.98735e+06
6.94395e+06
-6.94238e+06
7.6392e+06
-7.63852e+06
-6.45912e+06
-1.41781e+07
1.418e+07
-281190
-236233
582338
-582117
-383194
183815
-183703
-650178
-5.85291e+06
5.85442e+06
-1.50816e+06
1.507e+06
-927361
1.85927e+07
-1.85896e+07
-354075
40773.4
-684606
-1.71816e+06
7.73939e+06
-7.7334e+06
-3.14999e+06
3.15034e+06
-107155
221513
5.31299e+06
-33822.7
-5.95227e+06
-5.58977e+06
-133143
-1.21051e+07
1.2104e+07
175792
-194106
194137
44503.2
-3279.14
-6.85506e+06
6.85761e+06
-4.27152e+06
-214816
200693
275291
-938922
226057
-5.00636e+06
-214239
5.15333e+06
-5.1481e+06
-74172.8
103700
2.29188e+06
-2.2913e+06
216743
-1.96742e+06
1.97224e+06
-321188
1.93784e+07
-1.93739e+07
-8.10631e+06
8.10818e+06
-2.07458e+07
2.075e+07
-290292
-5.1772e+06
5.14075e+06
199059
-1.67245e+07
1.67279e+07
124368
1.9898e+06
-2.4597e+06
-17728.4
-72980.7
196663
-949566
-85694.6
6.89121e+06
-6.88728e+06
-190341
6.79006e+06
-6.78583e+06
340501
-6.86676e+06
6.87016e+06
-510938
59181.7
-1.93734e+06
1.94e+06
533672
-533500
99226.2
3.58068e+06
5.61548e+06
4.92289e+06
-4.92115e+06
1.12556e+06
-1.12539e+06
-386535
-218681
202101
-106154
3.97038e+06
-3.97343e+06
-367633
3984.92
-86705.6
87137.8
-4002.55
-312131
2.01272e+06
-2.00817e+06
-1.39503e+07
1.39531e+07
-1.23099e+07
1.23136e+07
1.97901e+07
-1.97857e+07
1.32679e+06
7.05832e+06
-7.05426e+06
-189360
40643.9
-7.37427e+06
7.37889e+06
-176480
5.6403e+06
-5.63798e+06
153497
-1.58988e+06
18031.9
-2.08564e+07
2.08607e+07
30187.4
-73729
-140747
183720
-5.5915e+06
5.59308e+06
831415
5.7993e+06
-3.23294e+06
3.23333e+06
-280058
281252
742877
-739252
425880
176499
150526
-150525
-4.58356e+06
-5.76648e+06
-1.20689e+06
-774933
4.18465e+06
1.09582e+06
-95921.5
-2.10833e+06
-1.86809e+06
73347.5
2.97988e+06
205159
-318353
-727820
536901
635699
-634043
6.91785e+06
-6.91477e+06
3.25776e+06
-474221
1811.69
150917
97344.8
-62503.6
-6.12236e+06
-206043
519600
20354.6
-1.65999e+06
9.15479e+06
-9.15241e+06
5.62977e+06
92100.5
-16799.2
-59030
4.69554e+06
-4.69458e+06
-116082
116211
544105
-541527
178417
-846200
-811647
-695067
-5.95913e+06
5.97008e+06
317528
9.67747e+06
-9.68043e+06
-797955
798048
-318808
5.93281e+06
-5.9309e+06
1.34306e+06
-45063.4
-49208.1
209775
3339.91
97882.6
724554
-724372
-146401
-1.40722e+06
6.67558e+06
-6.67363e+06
-89203.1
99701
-3.96912e+06
-98116
-959335
1.02773e+06
169988
1.12384e+06
48076.4
37704.4
-111774
-2.98583e+06
-133541
-1.16659e+06
4.00944e+06
-4.00218e+06
-58796.3
58936.9
120253
500499
-5.18425e+06
5.18554e+06
-128804
-394909
-476900
1.01831e+06
-154144
1.87579e+07
-1.87532e+07
-383758
6.1274e+06
-6.12109e+06
-254914
255020
191440
-110041
-1.08537e+06
125638
9.18173e+06
-9.18274e+06
-216308
350023
267657
85974.5
192344
-4.70426e+06
-1.85145e+06
-2.11339e+06
389478
90227.2
-90213.8
9.12859e+06
-9.12803e+06
159884
-209710
-622328
-580854
474252
-474234
35102.8
116014
-18199.8
114795
365427
2.7958e+06
-2.80053e+06
-1.05289e+06
-325772
5.45837e+06
-5.4568e+06
-555376
57901.5
865092
1.47804e+06
-1.47795e+06
-4.18608e+06
4.19325e+06
-5.19879e+06
-9.47922e+06
9.4814e+06
180108
-86172.1
-138835
-232783
681968
-681813
291578
-3.31919e+06
3.31963e+06
18559.9
-18422.4
-4.60997e+06
4.75814e+06
1.57921e+07
-1.57885e+07
-6.45593e+06
6.45801e+06
879338
-240166
5.31727e+06
-5.31568e+06
-147438
-721994
1.25428e+07
-1.25394e+07
1.03155e+06
-1.03139e+06
-6.82375e+06
-5.42416e+06
5.42553e+06
-334554
334510
6.82457e+06
311843
264138
-453146
1.55831e+06
-1.55791e+06
49754.4
537251
1.1009e+06
-48247.6
3.90771e+06
6.10707e+06
-177567
5.86406e+06
-5.85973e+06
64144.6
2.19274e+06
-19782.2
465904
-466318
-59904
-281072
779569
-778956
-4.64004e+06
-5.52153e+06
-284572
5.88836e+06
-5.8869e+06
-6.90256e+06
-330161
-6.53802e+06
-223553
1.68408e+07
-1.68372e+07
190444
3.36011e+06
6.89367e+06
-141654
190461
6.54639e+06
222611
1.14971e+07
-1.14934e+07
-307034
307141
53878.5
-2.44086e+06
48642.1
7.72364e+06
-7.72224e+06
-3.28013e+06
3.28092e+06
-146987
358634
1.56163e+06
-1.56122e+06
-89581.8
4.41456e+06
-4.41745e+06
-444545
-1.68089e+06
135116
-55899.7
223175
-135176
979785
-1.26093e+06
64669.5
521083
-521015
-403325
572687
937443
-304043
121718
-558476
-839423
-234172
462557
524623
2.57605e+06
-4.40602e+06
3.47553e+06
-186595
-231063
-226693
-1.25544e+07
1.25537e+07
4.33096e+06
-2.44377e+06
2.44015e+06
-1.02986e+06
-1.58753e+06
7.38118e+06
-7.3755e+06
1.53809e+06
2.257e+06
-2.25702e+06
-3.71185e+06
-91061.5
1.68991e+06
-4.38394e+06
6.14775e+06
3.62993e+06
-173930
4.98633e+06
250193
159113
1.60829e+07
-1.60786e+07
517525
-1.71673e+06
3.00703e+06
-3.00965e+06
6.2051e+06
200550
399332
330411
-2.61134e+06
2.61825e+06
-25011.5
-1.18198e+06
-446901
-1.66796e+06
1.66812e+06
-242847
-27626.2
413239
3887.76
-2.33301e+06
-95286.1
4.19386e+06
160343
-2.42152e+06
2.42306e+06
7985.62
-228833
587662
570608
25604.7
-8.78448e+06
8.78377e+06
541429
-1.78333e+06
50435.9
-1.29515e+07
1.29511e+07
1089.97
1.20721e+06
-220200
-3.52694e+06
3.52774e+06
-1.15814e+06
-6.24004e+06
6.28705e+06
9.8957e+06
-9.89414e+06
-29048.3
-1.1737e+06
1.04277e+06
-1.04238e+06
-4.34729e+06
2.03534e+06
-297384
653070
-652950
-618307
6.68062e+06
-6.67949e+06
-402553
-342311
-1.39432e+06
-7.8269e+06
-4.2259e+06
-88956.9
7.82497e+06
443114
594281
-1.77002e+06
-2.77888e+06
2.78186e+06
3.88067e+06
-4.17239e+06
357309
4.51191e+06
261755
-89217
-31071.9
-250415
-3.29296e+06
-216341
41158.6
1.13512e+06
-1.22115e+06
-150316
-269359
787987
-203451
156907
-1.75732e+06
165330
234036
-1.80486e+07
1.80519e+07
741593
-627974
-2.35995e+06
2.36463e+06
2.78391e+06
-2.78327e+06
-110040
-297855
79968.8
-1.73788e+06
1.73982e+06
451407
-451355
173839
468411
-22252.4
-1.1785e+06
-500015
-329541
-1.09241e+06
334970
7653.94
7.1055e+06
-7.10098e+06
4.84153e+06
-4.7188e+06
2.23191e+06
544247
581119
-580976
1.20037e+06
1.80428e+06
4.47332e+06
78367
-154479
180181
31232.2
-282448
-153479
-297881
-137131
-178847
7.34245e+06
-7.3379e+06
-253661
1.47588e+06
3.60848e+06
-100536
-106822
904701
-902885
-3.9659e+06
22283.9
-6.94383e+06
6.94034e+06
7.76469e+06
-7.76811e+06
946435
-436578
221094
614363
-8.40223e+06
8.40396e+06
3.32064e+06
-3.32714e+06
1.66308e+06
558178
-558094
-531944
194989
-976030
252352
-251143
-4.08372e+06
-2.45998e+06
266274
-474135
-7.22579e+06
7.2285e+06
4.49963e+06
-122286
124204
14844.4
410894
-128890
5.11706e+06
-5.10105e+06
-573939
574007
-1.12179e+06
-5.72918e+06
5.74757e+06
-3.19742e+06
3.19807e+06
2.1298e+06
33115.7
458315
219529
5.21393e+06
-5.21087e+06
-856509
-1.9499e+06
-78794.9
30590.7
-1.51277e+07
1.51321e+07
199691
1.02156e+06
61410.2
2.97247e+06
-2.97189e+06
-200495
-1.33408e+06
-63964
-72226.7
5.7941e+06
-5.79253e+06
110817
5.78981e+06
-5.78725e+06
203711
-69059.3
230559
-239961
5.02063e+06
611188
69702.1
-478290
-103037
2.08527e+06
-1.95089e+06
459350
-456397
94329.8
6.14224e+06
-6.14529e+06
8.92663e+06
-8.92571e+06
-32902.4
8.14459e+06
-8.14262e+06
-1.29325e+07
1.29343e+07
-177929
177906
27855.9
444318
-444243
-537783
753442
-2.27424e+06
-1.38959e+06
-172976
76886.9
50045
-47820.4
-4.14105e+06
4.14023e+06
1.05979e+06
-145695
166395
198964
-371112
146853
-154879
-525461
60042
5.90553e+06
-5.90911e+06
96703.7
-5.25418e+06
-61947.8
-99268.2
-2.88052e+06
-2.49034e+06
5.47453e+06
-5.47687e+06
5.00238e+06
-205188
-883943
997298
-329747
262208
-91777.4
-6.57611e+06
6.58166e+06
123459
-1.51023e+06
4.09707e+06
-5.64191e+06
6.40077e+06
93099.7
5.63238e+06
-169772
384692
3.14981e+06
3.08213e+06
-2.00711e+06
1.181e+06
216858
23264
-36487.5
-27234.2
412902
-4.09826e+06
116352
320797
-320675
105070
1.27374e+06
-1.966e+06
-2.31308e+06
430246
-7.72648e+06
988718
-265587
136013
222999
7.72146e+06
407915
-892690
874313
-180732
31336.4
-18159.6
-158864
821151
-819813
190109
-8.12051e+06
8.12032e+06
268140
8.17912e+06
-8.17658e+06
820814
1.83049e+07
-1.83003e+07
228825
164185
-580211
257567
-257508
426843
-2666.58
-250144
-414443
8.81536e+06
-8.8144e+06
-5.04326e+06
1.72748e+06
1.44846e+06
-173294
2.94042e+06
-2.94296e+06
591145
-588391
846883
44894.4
1.70211e+07
-1.70175e+07
6.44814e+06
-6.446e+06
-8107.43
450173
1.92628e+06
7.4324e+06
-7.42898e+06
-170169
-954523
958164
105289
-99433.6
-5.961e+06
5.96248e+06
169027
801572
-801465
8.6798e+06
-8.67966e+06
-584004
-127707
-945839
44377.1
4.03285e+06
717668
-41387.4
2.19856e+06
5.43984e+06
-127345
897099
-129563
513878
-513742
-2.74183e+06
-1.29566e+07
1.29581e+07
5.56036e+06
-5.55917e+06
-1.41473e+06
-6.68485e+06
6.68865e+06
2.5519e+06
-2.54585e+06
-940885
2.78777e+06
-2.77476e+06
110400
-223603
223777
62999.8
-141834
-476332
250173
4.90463e+06
-4.97175e+06
263574
167818
-2.55166e+06
-207025
-294711
296580
-3.89457e+06
3.8952e+06
78932.3
372956
7.77455e+06
-7.77289e+06
-104966
4.28927e+06
111978
-1.22252e+06
1.03081e+06
5.30678e+06
-388974
-371531
31605.7
-6.86898e+06
6.87052e+06
-2.3839e+06
2.38659e+06
-1.90017e+06
1.90068e+06
1.64238e+06
-1.62928e+06
-22421
226283
29876.4
225017
-4.29534e+06
-852748
4.29935e+06
-4.30286e+06
-58500.6
105427
1.92239e+06
-5.76894e+06
5.77012e+06
3.3743e+06
495074
-2676.3
5.64893e+06
-5.64665e+06
-5.90018e+06
-202956
-1.32233e+06
1.32272e+06
-3.28855e+06
-7.04938e+06
7.05331e+06
-306375
-2.57164e+06
-5.70715e+06
-122919
-1.04008e+06
942602
55508.8
1.66534e+06
1.05112e+07
-1.0507e+07
-47351.1
1.29653e+07
-1.29626e+07
1.24718e+06
5.97188e+06
-5.96975e+06
-1.60881e+07
1.60925e+07
-99680.8
-1.62663e+06
1.62611e+06
-957585
957853
63296.2
-4.05297e+06
181938
1.4715e+07
-1.47119e+07
-124230
-392839
-5.00475e+06
4.98804e+06
162852
1.16435e+07
-1.16413e+07
2.06583e+06
-103779
-18428.6
18493.8
-1.07893e+06
1.08197e+06
-8.66955e+06
6.62769e+06
-6.62558e+06
190526
2.89185e+06
-2.89877e+06
3.88272e+06
-3.88592e+06
307467
4.03455e+06
1.02692e+07
-1.02673e+07
-3.91366e+06
3.91424e+06
1.94213e+06
185085
-1.15772e+07
1.15754e+07
714366
200151
-199138
172318
-172323
-3.53666e+06
1.32387e+07
-1.32383e+07
577374
-5.96202e+06
5.96377e+06
-3.06301e+06
-947851
-1.49108e+06
1.49131e+06
-8.84483e+06
8.84657e+06
-1.85691e+06
370659
-176471
3.08803e+06
-212636
-1.26752e+06
3.32495e+06
4.65161e+06
70738
-310899
-2.36141e+06
2.36186e+06
606280
-606148
205100
-61842.6
-9611.45
253353
201917
-22611.2
-24894.4
89881.7
75559.8
2.74706e+06
-2.74506e+06
-1.58807e+07
1.58847e+07
1.08866e+06
35780.3
-4.03799e+06
-197523
-208555
1.39425e+06
-2.18591e+06
-977853
3.22726e+06
-3.22809e+06
310026
-4.47247e+06
4.47382e+06
-2.12275e+06
-8.39393e+06
8.39559e+06
-7.08991e+06
7.09221e+06
-2.30912e+06
-7.075e+06
7.07844e+06
2.29719e+06
-2.29699e+06
7.4176e+06
-7.41435e+06
1.90593e+07
-1.90554e+07
-48066.4
2.07856e+06
1.1533e+06
-395041
-1.35599e+07
1.35641e+07
-7.14718e+06
7.15061e+06
-64451
-427411
-2.14633e+06
248909
-248882
1.33606e+06
205705
-366193
-1.83575e+06
-425517
-94789.7
-396342
4.32436e+06
-4.32766e+06
-428170
-532652
972477
3.08752e+06
-3.08969e+06
109927
655739
1.90944e+06
-1.09803e+06
-187986
130536
-53686.6
1.38072e+07
-1.38054e+07
2.70217e+06
-2.70157e+06
1.24497e+07
-1.24473e+07
-53957.6
109137
-210730
2.22184e+06
-3.16648e+06
122566
-73336.6
265057
1.10558e+06
-1.30997e+06
1.30929e+06
6.7748e+06
-6.77973e+06
719003
2.56963e+06
-1.06871e+06
1.073e+06
2.06149e+07
-2.06107e+07
61815
-61769.5
-2.35278e+06
-103105
153989
705175
-213837
206708
-638747
638922
229451
-1418.26
8.01065e+06
-8.01202e+06
-396192
275234
646538
-305057
-311825
177892
4.84992e+06
-4.91273e+06
1.28534e+07
-1.28499e+07
-278428
2.22341e+06
-2.22304e+06
8.71511e+06
-8.71504e+06
-155755
5.31574e+06
-5.34929e+06
-1.02409e+07
1.0243e+07
-1.93535e+06
-250650
-6.57208e+06
-3.52974e+06
3.52906e+06
-1.12135e+07
1.12118e+07
132973
6.69977e+06
-6.63975e+06
6.64335e+06
173644
-307355
-4.22482e+06
4.22569e+06
-41399.2
159211
-171401
606640
-7.14008e+06
-6.61154e+06
6.61438e+06
3.5913e+06
6.35742e+06
-6.35512e+06
1.24115e+06
2.358e+06
7.13586e+06
-6.24218e+06
6.24579e+06
-1.79165e+06
3.35043e+06
47119.6
1.57779e+06
-1.57759e+06
925272
1.57374e+06
4.67362e+06
-4.672e+06
92515.5
-2.14948e+06
2.1563e+06
8.65661e+06
2.22724e+06
-2.17503e+06
2.55862e+06
-2.55672e+06
1.49299e+06
-1.21648e+06
-224284
-256318
185592
-2.2013e+06
-593913
-158085
3.56617e+06
166118
-1.75647e+06
1.13718e+07
-1.13706e+07
-3.94305e+06
4.18466e+06
-4.18838e+06
7.483e+06
-7.4801e+06
839149
-8.13185e+06
8.13397e+06
1.11981e+06
654149
167843
-2.3095e+06
2.30766e+06
821971
-3.91032e+06
3.91144e+06
-4.35255e+06
13484.7
5.4772e+06
-326549
-144816
-361808
-1.0632e+06
1.06241e+06
1.52844e+07
-1.52812e+07
64585.9
164197
2.63372e+06
-7.37227e+06
7.37565e+06
-33119.6
3.37908e+06
-3.38119e+06
304200
-275583
275617
-394918
3.15251e+06
-752521
-1.32713e+06
1.24451e+06
3.17055e+06
-3.171e+06
-3.35229e+06
214355
352370
-14817.4
-217035
-775857
-32909.7
-846524
387529
-1.36728e+06
3.17408e+06
-3.17769e+06
284264
1.25176e+07
-1.25166e+07
345170
-339989
418934
-334540
348119
-3.08583e+06
5.4306e+06
88866.2
140240
26903.4
-20614.1
934796
-567.089
-377213
49744.1
-2.20609e+06
2.20801e+06
6.40876e+06
-6.41112e+06
1.63996e+06
-1.04853e+06
2.34537e+06
-3.55621e+06
3.55596e+06
-295416
-16784.1
77140.6
-6.57297e+06
6.57521e+06
2.36038e+06
252399
-317758
146488
-84096.4
-282603
284496
269129
-19416.9
-421468
-2.44849e+06
513769
5.37914e+06
-5.3769e+06
-7.53497e+06
7.53936e+06
3.25741e+06
81008.4
534899
-534808
-7.47957e+06
7.48466e+06
15522
2.88375e+06
157892
1.35332e+06
215779
126679
689117
352096
-441364
-2.07785e+07
2.07827e+07
-88187.7
1.54885e+07
-1.54843e+07
2.97294e+06
-2.98355e+06
5.16208e+06
-661643
525936
-2.19642e+06
1.69317e+06
-33387.1
-2.26765e+06
-3.85839e+06
7.64731e+06
-7.65365e+06
-3.95579e+06
3.85498e+06
-3.249e+06
3.24999e+06
1.66341e+06
-315114
-16828
444632
1.43e+07
-1.42966e+07
450457
-6.67022e+06
6.67242e+06
4.02553e+06
169400
-2.71144e+06
197796
6.70788e+06
-6.70348e+06
1.43687e+06
209104
39792.5
-216277
216300
-429407
426036
4.60556e+06
-4.90716e+06
-129508
-1.04955e+06
1.1406e+06
331482
11372.1
-148843
254989
-8979.15
-7.37612e+06
7.38013e+06
-217511
343369
-6.49316e+06
6.49584e+06
142522
-6.5861e+06
-39919.3
-2.06761e+06
6.59545e+06
-45135.7
45212.5
113529
5.30255e+06
-7.93422e+06
7.93885e+06
4.8665e+06
-289681
-1205.04
6855.18
-6042.53
1.88246e+06
8.08571e+06
-8.08358e+06
-154565
82156.4
34670.2
284092
-86459.7
-336178
-343322
1.4613e+06
-1.45988e+06
280304
-115668
939683
1.07028e+06
-1.07044e+06
5.63124e+06
-5.76636e+06
5.76935e+06
6.67409e+06
-6.67236e+06
-2.04245e+07
2.04287e+07
316836
2.05707e+06
-2.12524e+06
-175917
106525
3.06817e+06
-619923
-3.1189e+06
-4.4408e+06
286439
-265875
-4.20678e+06
4.20797e+06
-416888
-4.54699e+06
475826
2.08858e+06
-195394
-79958.3
-131875
222002
8.43292e+06
-8.43135e+06
-267509
34777.7
-1.66135e+06
1.65983e+06
-343938
-270230
-18994.2
7182.91
-101157
100153
490183
2.18828e+06
-2.18822e+06
-251928
-7.70243e+06
7.70538e+06
-377334
-5.2416e+06
115450
5.22427e+06
186096
-166032
635712
-2.19702e+06
-742536
-17772.8
-7.54251e+06
7.54538e+06
468421
-377946
-84386.1
480659
-4.9506e+06
4.95146e+06
1.9546e+07
-1.9541e+07
-3.89414e+06
-631882
-567691
-6.95286e+06
6.95765e+06
139146
-138997
-138849
-301242
4.10327e+06
151805
3.88858e+06
1.60982e+06
-6.26477e+06
6.26802e+06
-928846
108345
-4.53821e+06
-189591
-392403
-3.4718e+06
3.06719e+06
-3.06617e+06
-594304
-273241
273300
410097
-408400
206485
4.78143e+06
-79903.8
-4.93965e+06
-925897
929349
-800425
3.96129e+06
-214041
4.56663e+06
-227575
-1.30491e+06
1.30509e+06
366693
-1.89523e+07
1.89558e+07
-4.74382e+06
4.74495e+06
80513.2
294857
-293347
-10905.7
-180969
180971
-3.83781e+06
3.83883e+06
-1.1048e+07
1.1046e+07
32966.8
2.03619e+06
1.72605e+06
-1.72566e+06
-170845
-168181
6.1023e+06
-6.09921e+06
-1.32479e+06
-19086.5
6.81762e+06
-6.81514e+06
-2.60933e+06
6.48258e+06
-6.48571e+06
163496
98495.8
-1.36894e+06
7.2174e+06
-7.21592e+06
118867
2.50628e+06
-2.50353e+06
-6.56311e+06
6.56543e+06
4.32968e+06
-4.33267e+06
2.57187e+06
-4112.38
-3.47324e+06
3.47095e+06
-3.18854e+06
3.1895e+06
-2.07115e+06
-836554
1.14459e+06
801575
22148.8
1.25509e+06
1.14553e+07
-1.14544e+07
5.80745e+06
-5.80541e+06
-3.76494e+06
3.76542e+06
-135796
-1.86696e+06
1.6424e+06
4.46631e+06
-4.46496e+06
-4.59775e+06
-670297
673225
-137048
-200610
2.63621e+06
-2.62238e+06
-389751
-310210
227544
-39758
39864.9
-153758
-5.43018e+06
5.41996e+06
136162
1.44636e+06
-373407
181872
-9.29248e+06
9.29102e+06
206153
-5.02604e+06
500300
-1.3416e+07
1.34191e+07
653926
5.5159e+06
-5.51404e+06
-246918
-3.56272e+06
-872558
29575.1
-2.70097e+06
-37353
-1.10111e+06
1.10143e+06
470463
-472561
578720
-4.19893e+06
4.19971e+06
-2.14722e+06
-1.68714e+06
2.14734e+06
-3.65337e+06
3.65831e+06
2.79654e+06
-1.22236e+06
-36280.7
723366
-2.7039e+06
2.05895e+06
355201
-360216
726204
-4.53085e+06
-264648
-1.78244e+06
-102638
307020
-496655
1.14472e+06
170441
-110853
-3.31807e+06
3.31858e+06
-730237
730362
-293877
1.91213e+06
-1.89509e+06
-997173
-1.80401e+06
2.71561e+06
-275813
1.36517e+06
59538.2
-708760
822945
-1.13663e+06
1.13675e+06
-2.02447e+06
-126868
233456
2.03144e+07
-2.03096e+07
12785.4
191998
1.01134e+06
73120.3
133211
-1.12154e+06
512381
186530
-2.82999e+06
45079
32374
-32394.2
2.0381e+06
-2.08245e+06
257146
532364
6.22515e+06
-6.23102e+06
2.38598e+06
273291
2.00492e+06
-5.35878e+06
5.3614e+06
47734.6
243455
5.64286e+06
-2.7716e+06
415930
-162086
447016
-125462
75254.9
93645.9
142111
129869
2.22463e+06
-27824.5
246009
-245909
-2.10926e+06
2.11357e+06
490383
-492216
287513
-292598
3.46001e+06
-9.89374e+06
9.8981e+06
-99779.9
260811
-65342.9
3.23389e+06
-5.4e+06
-4.08937e+06
244421
-1.18953e+06
1.18638e+06
-3.40059e+06
3.39969e+06
-7.51384e+06
7.50897e+06
73058
-6.77677e+06
195882
-163771
-223847
4.04722e+06
-84007.2
-213204
409278
-7244.79
6.77872e+06
-302448
923917
6.68373e+06
-57167.1
63953
-268806
432817
-1.41751e+06
1.55514e+06
-1.55484e+06
5.68379e+06
-5.68152e+06
-3.7963e+06
668792
-403324
-2.63025e+06
2.62967e+06
2.65113e+06
311496
-149808
148946
107315
-127945
-120892
-859261
1.25555e+06
-1.24399e+06
242428
-5.17934e+06
-129400
-216820
-6.61418e+06
6.62541e+06
-747888
4.80053e+06
-4.79867e+06
328382
-327966
-362846
5.66723e+06
-5.66504e+06
-105511
-357370
-148060
-1.22189e+06
-1.03249e+06
1.03509e+06
-5.92321e+06
5.92585e+06
113905
572594
5.25714e+06
7.21495e+06
-7.21274e+06
7.15667e+06
-7.15324e+06
901295
-6.39731e+06
6.39935e+06
3.79241e+06
-191527
-1.92369e+06
1.92401e+06
-2.51359e+06
249878
249012
1.37292e+06
-4528.84
3209.36
-5.19911e+06
5.20152e+06
-3.39848e+06
3.39929e+06
6.21404e+06
-6.21752e+06
124628
3.35611e+06
-3.35834e+06
-289580
748.917
-12232
4.68508e+06
-4.68348e+06
642653
-776.727
1.00809e+06
-439966
58.6989
-1.5827e+07
1.58302e+07
-596675
413300
-254695
-7.21372e+06
7.21581e+06
77541.6
421116
-430284
5.39556e+06
-5.39069e+06
-40701.9
39983.5
3.248e+06
2.87795e+06
3.15155e+06
109804
4.872e+06
3.07559e+06
-3.24897e+06
-2.64266e+06
1.72345e+06
-1.7232e+06
482464
382572
-382379
369895
-1.92017e+06
1.92222e+06
47889.8
-73221.9
-6.61511e+06
6.61749e+06
-393370
2.35497e+06
6.45949e+06
2.28366e+06
-59221.9
-5.8091e+06
5.81193e+06
1.40771e+06
-1.39512e+06
-1.8597e+06
-36725
-139.865
197352
-347645
403376
-432065
-1.90684e+06
-470362
470455
-6.74979e+06
6.75238e+06
-243331
-835186
801813
151067
85958.7
357446
-331523
48530.8
-69177.2
65361.7
-70922.4
-20543.1
1.37636e+06
-3.8261e+06
-216934
4.90595e+06
-4.90381e+06
715602
-4.08215e+06
4.08315e+06
1.37305e+06
-1.37219e+06
-4.9876e+06
-190406
-1.07225e+06
43067.2
154318
1.40041e+06
-1.40016e+06
-284932
-76274.5
2.16921e+06
-259441
974991
-973081
-73548.1
389714
7.32835e+06
-7.32371e+06
-1.52131e+07
1.52169e+07
-2.75889e+06
2.7575e+06
-6.45813e+06
845238
-224102
6.43137e+06
272018
4.65201e+06
-4.62574e+06
433695
-6.86877e+06
6.8739e+06
-4.38167e+06
-296464
288334
45546.4
3.09476e+06
289294
4.8166e+06
368585
-1.37877e+06
-42825.9
-905266
905391
5.41736e+06
-7.66595e+06
7.66764e+06
-2.49778e+06
2.4982e+06
1.30878e+06
3.8057e+06
-7.44186e+06
7.44697e+06
-157729
20397
2.61283e+06
5.16672e+06
-3.06317e+06
353177
9.26506e+06
-9.26091e+06
134537
1.12817e+07
-1.12843e+07
-94943.9
94947
-5.37091e+06
-6.23314e+06
-55396
-4.65192e+06
6.2067e+06
-275667
1.2742e+06
-1.27221e+06
6.08234e+06
-6.07966e+06
-387994
-2.65645e+06
-526698
330267
-3.67903e+06
259862
-258654
6.86891e+06
78948.2
-33933.4
46193.6
-843.985
-3.56588e+06
3.56628e+06
79133.8
-280793
280807
1.59154e+06
2.39e+06
-2.39082e+06
-209372
3.34305e+06
470048
1.70407e+07
-1.70364e+07
104882
-130308
-49779.8
-181974
-910135
124954
444653
-1.18732e+06
-7.74055e+06
7.74283e+06
307147
284083
67721.4
78759.4
-3.3033e+06
164897
274368
-368344
-1.33128e+07
1.3314e+07
-7.15921e+06
-135203
7.13382e+06
1.66692e+06
1.87639e+07
-1.87601e+07
228508
-7.52738e+06
-355969
7.45556e+06
1.38273e+06
-1.38312e+06
-1.18715e+06
1.18759e+06
172177
-186801
329682
-130262
4.68185e+06
-4.67995e+06
-89029.5
-2.72314e+06
-594692
482220
935272
5.06084e+06
-5.06552e+06
-1.42167e+06
-330791
-816115
-7.26111e+06
7.26411e+06
5.35394e+06
-5.35869e+06
-24061.6
8785.49
-3413.59
-132584
-771052
-487579
865448
-865362
81792.5
35763.9
1.11256e+06
133529
186538
-1.78912e+06
1.78943e+06
79397.5
3.38041e+06
-84028.1
-6.13878e+06
6.14291e+06
2.60616e+06
-2.60376e+06
-3.99181e+06
-204232
4.92882e+06
-4.93872e+06
-846579
-3.42566e+06
267525
788760
-2.4705e+06
7.68122e+06
-7.67644e+06
-138345
-3.0827e+06
-1.49735e+06
1.48986e+06
1.32532e+06
-1.32384e+06
327374
7.54075e+06
-7.535e+06
1.29503e+07
-1.29464e+07
390822
-378113
-3.78859e+06
-1.76694e+06
970214
-238123
6.14505e+06
-6.14819e+06
24930.2
-7.56109e+06
7.5697e+06
336882
498325
-26452.6
2.8633e+06
-2.87147e+06
52957.4
-576852
-76977.7
181444
-5326.86
-2.47087e+06
2.47138e+06
-352406
1.0733e+06
2.58083e+06
9.12912e+06
-9.12856e+06
-1.91182e+07
1.91221e+07
-4.01537e+06
-2.58066e+06
-6.74482e+06
6.75061e+06
-2.03817e+07
2.03858e+07
-5.22016e+06
5.2164e+06
-3.72021e+06
3.72101e+06
912294
1.36845e+06
1.68323e+07
-1.68289e+07
105703
1.52668e+06
-1.52639e+06
2.09068e+06
209171
291292
2.04585e+06
-2.04482e+06
5.63312e+06
-3.64142e+06
351645
-174952
5.56679e+06
2.41705e+06
-126536
292836
-1.8284e+06
8.08385e+06
-8.08183e+06
1.01696e+07
-1.01713e+07
3.99957e+06
-3.99855e+06
-5.63285e+06
1.51664e+06
-1.51596e+06
-1.40226e+06
1.40187e+06
42511.9
47252.9
-237692
220061
7.07126e+06
-7.06683e+06
-3.2641e+06
3.26465e+06
2.07744e+07
-2.07701e+07
107672
-642407
-96447.9
417267
-392084
-1.72586e+06
1.7263e+06
-36319.2
-89425.2
-2.31072e+06
81545.6
-1.47333e+06
-5.56643e+06
-7.2087e+06
7.21178e+06
-2.38867e+06
163501
-72364.6
-5.65337e+06
5.65684e+06
342466
4.55057e+06
-4.54933e+06
-65998.7
-1.18841e+06
-865940
-451198
451229
-464235
1.41577e+07
-1.41548e+07
-3.48298e+06
848200
502057
3.09258e+06
-42441.8
-29118.8
202324
-201461
-1.80081e+06
81759.3
-874960
-1.65062e+06
5.57834e+06
5.83913e+06
274377
2.5918e+06
-2.09634e+06
1.99248e+06
113837
-116712
-7.03228e+06
1.91974e+06
1.30073e+06
59840.8
-266539
1.63151e+07
-1.63116e+07
2.29574e+06
7.00567e+06
709879
-708454
-1.09285e+06
1.02518e+06
-1.02491e+06
-5.52351e+06
5.52609e+06
626488
-1.95777e+07
1.95816e+07
250345
4.27669e+06
84629.8
43181.5
265033
2.87049e+06
-2.87575e+06
237793
6.25532e+06
-6.25773e+06
-181241
134273
47248.7
-47028.9
-2.39489e+06
-860203
-396839
1.58719e+07
-1.58674e+07
2.40042e+06
-211239
879620
407625
1.56152e+06
-1.56131e+06
8.51799e+06
-8.51612e+06
64916.1
-364762
-1.51082e+06
261001
1.19158e+06
2.30567e+06
467216
-469919
499889
-94643.6
190973
122432
-386146
127031
260284
-418437
745784
1.06929e+07
-1.0689e+07
-61813.9
-6.12414e+06
6.1278e+06
-2.06851e+06
2.07083e+06
107731
-5.76425e+06
5.767e+06
-2.85853e+06
-3.52326e+06
6.05823e+06
766759
354539
-372217
330339
-7.42171e+06
7.42746e+06
1.89561e+06
75507.9
-75219.8
1.82113e+07
-1.82066e+07
615.962
-7.02729e+06
7.08955e+06
51170.2
367825
328254
5.27145e+06
-5.27012e+06
-2.50875e+06
-96206.5
3.4854e+06
-3.48461e+06
-200319
19125.5
-98248.3
1.87305e+06
-7.82643e+06
7.82981e+06
1.8131e+06
234566
14224
-1.40025e+06
8.76924e+06
-8.76673e+06
-1606.03
6.52553e+06
-6.42301e+06
-4.17312e+06
8.45777e+06
-8.45618e+06
6.42791e+06
301864
1.35644e+06
-256093
1.75426e+06
-1.754e+06
1.0889e+06
-759386
6.3737e+06
-6.37167e+06
4.90467e+06