/*--------------------------------*- C++ -*----------------------------------*\
| =========                 |                                                 |
| \\      /  F ield         | OpenFOAM: The Open Source CFD Toolbox           |
|  \\    /   O peration     | Version:  v3.0+                                 |
|   \\  /    A nd           | Web:      www.OpenFOAM.com                      |
|    \\/     M anipulation  |                                                 |
\*---------------------------------------------------------------------------*/
FoamFile
{
    version     2.0;
    format      ascii;
    class       volScalarField;
    location    "7000";
    object      sigmaxx;
}
// * * * * * * * * * * * * * * * * * * * * * * * * * * * * * * * * * * * * * //

dimensions      [1 -1 -2 0 0 0 0];

internalField   nonuniform List<scalar> 
27023
(
-1.92594e+07
1.92639e+07
1.24037e+07
-1.24002e+07
-1.94584e+07
1.94631e+07
1.04944e+08
-1.04933e+08
4.65923e+06
-4.65338e+06
7.59363e+07
-7.59223e+07
838906
-857363
-3.03715e+07
2.4788e+06
1.67487e+06
-6.50894e+07
6.50983e+07
4.77196e+07
-4.77125e+07
1.04338e+08
-1.04327e+08
5.3377e+07
-5.33712e+07
8.39072e+06
-3.73272e+07
3.96212e+06
-3.68349e+07
3.62157e+07
1.74194e+07
4.77647e+07
-4.77586e+07
-4.85529e+07
-3.00669e+07
3.77347e+07
4.34885e+07
-4.34777e+07
4.46526e+06
-4.46276e+06
-1.23756e+07
1.23793e+07
-2.45392e+07
-1.85458e+07
1.85503e+07
6.42364e+07
-6.42275e+07
5.04942e+07
-5.04867e+07
3.34226e+07
4.87211e+07
-4.87142e+07
-4.73602e+07
486.595
-484.657
5.33548e+07
2.23126e+07
3.96588e+07
-1.80888e+07
1.18159e+07
-1.18128e+07
3.28867e+07
5.08205e+06
5.88393e+06
-2.38369e+07
1.54654e+07
4.24654e+07
1.03962e+07
-3.78429e+07
-2.2893e+07
4.16418e+07
-4.16308e+07
7.27194e+07
-7.27118e+07
9.6796e+07
-9.67881e+07
174964
-172860
-1.14096e+08
1.14105e+08
-2.83478e+07
7.33749e+07
-7.33607e+07
7.08413e+07
-7.08339e+07
-1.02767e+08
1.02774e+08
-4.23257e+07
4.07828e+06
-1.91363e+07
1.83382e+07
2.4138e+07
-2.41329e+07
2.12029e+07
-8.61489e+06
-5.35215e+07
5.35213e+07
-2.82794e+07
-1.9068e+07
911423
-3.1166e+07
-1.9511e+07
1.98381e+07
8.5197e+07
-8.51878e+07
3.43383e+06
9.52511e+07
-9.52413e+07
5.26643e+07
3.70911e+07
2.26734e+07
9.55623e+07
-9.55527e+07
5.28159e+07
-5.28108e+07
9.7629e+07
-9.76211e+07
2.34739e+07
-3.85384e+07
-2.8742e+07
2.33374e+07
2.4476e+06
-7.90419e+07
7.9057e+07
1.13037e+08
-1.13026e+08
2.37211e+07
-2.37159e+07
8.66039e+07
-8.65945e+07
-1.7512e+07
-2.06639e+06
2.10046e+06
-1.63474e+07
2.01484e+07
-1.03036e+08
1.03044e+08
9.92644e+06
6.6773e+07
-6.6764e+07
-9.81259e+07
9.81383e+07
-6.92696e+06
1.01499e+08
-1.01488e+08
-1.64352e+07
-1.80196e+07
4.85497e+07
4.32522e+07
4.08263e+07
-4.08181e+07
5.12031e+07
-5.11962e+07
-2.93711e+07
-3.09513e+07
-3.21368e+07
3.21018e+07
3.05307e+07
6.59775e+07
-6.59685e+07
-5.98566e+07
-2.48041e+07
-5.17355e+07
3.57052e+06
-6.1085e+07
6.10963e+07
-8.90918e+07
8.91041e+07
-2.02842e+07
2.10494e+06
5.78691e+06
-1.14785e+08
1.14794e+08
-2.10696e+07
2.10061e+07
-3.28109e+07
2.66096e+06
-6.46113e+06
-2.15318e+07
1.04435e+07
-4.34088e+07
-9.3672e+07
9.36838e+07
-3.2596e+07
-5.94361e+07
-6.32791e+07
-5.07034e+07
5.07045e+07
-5.43393e+07
-1.93901e+07
-8.90704e+07
8.90823e+07
-2.72325e+07
4.58534e+06
1.13767e+08
-1.13756e+08
-6.71411e+07
-8.60899e+07
8.61036e+07
-3.6195e+07
3.23063e+07
-3.84087e+07
9.49272e+07
-9.49193e+07
-1.83589e+07
1.83635e+07
-2.43325e+07
-6.61821e+07
9.47244e+07
-9.47164e+07
25207.7
-25037.2
2.06086e+07
-2.59486e+07
-1.0982e+07
1.09865e+07
-3.19081e+07
2.46239e+06
6.78308e+06
-1.01207e+08
1.01215e+08
-1.76299e+07
-7.95156e+07
7.95305e+07
-3.05179e+07
8.91768e+07
-8.91682e+07
7.33592e+07
-7.33516e+07
1.89369e+06
-1.8938e+06
4.78979e+06
9.1829e+07
-9.18204e+07
-6.10724e+07
8.9069e+07
-8.90608e+07
9.82383e+07
3.6808e+07
-1.10393e+08
1.10404e+08
3.91782e+07
6.31097e+07
6.24924e+07
-4.97165e+07
2.29871e+07
291047
-3.40612e+07
5.20859e+07
-4.86633e+07
-1.05483e+08
1.05493e+08
-2.26536e+07
-1.68337e+07
-6.65889e+07
-6.73555e+07
8.10194e+07
-6.17037e+07
5.35711e+07
-5.35618e+07
2.11243e+07
3.61247e+06
5.69721e+07
9.15525e+07
-9.15443e+07
1.00637e+08
-1.00626e+08
7.61029e+06
-1.44836e+07
7.82315e+07
-7.82164e+07
3.95653e+07
-2.2908e+07
-4.28685e+07
1.00789e+07
5.90262e+06
-6.18832e+07
6.18946e+07
-5.34948e+07
5.3506e+07
4.51762e+07
-5.55748e+07
1.11393e+07
-1.08924e+07
-22919.5
22382.6
-2.3031e+07
-2.86968e+07
1.32072e+07
4.5584e+07
2.52437e+06
-2.2125e+07
-8.72221e+07
8.72307e+07
-1.01276e+08
1.01284e+08
-4.91871e+07
6.54989e+07
-9.48299e+07
9.48378e+07
1.47149e+06
8.47529e+06
-8.74843e+07
8.74947e+07
-1.3286e+07
1.49887e+07
-1.49807e+07
3.21888e+07
3.29732e+07
-6.37689e+06
-201609
-903.889
917.597
925648
-926245
4.44151e+07
-4.96278e+07
4.96373e+07
1.40132e+06
3.22095e+07
1.92366e+06
-1.92553e+06
-4.02256e+07
-2.70523e+07
-2.15844e+07
3.34571e+07
-7.71316e+07
1.02816e+07
4.50664e+07
-5.40818e+07
-1.89993e+07
5.40784e+07
-8.78427e+07
8.87883e+06
3.75401e+07
-3.21816e+07
3.21882e+07
-1.74626e+07
1.12769e+07
8.29712e+07
-8.29627e+07
-6.45815e+07
6.48843e+07
65617.1
-65263.2
-3.50614e+07
1.88335e+07
-1.88289e+07
-2.75752e+07
1.29115e+07
-4.98691e+07
4.98928e+07
9.45244e+07
-9.45159e+07
-35622.7
35639.9
6.24817e+06
-1.10163e+08
1.10172e+08
-5.76418e+06
-4.32019e+07
-9.18618e+07
9.18697e+07
-9.6924e+07
9.69387e+07
1.86052e+07
-4.0019e+07
-6.53739e+06
-2.78695e+07
2.78753e+07
-1.08983e+08
1.08992e+08
-1.82574e+07
-6.14442e+07
-2.25875e+07
-6.24066e+07
-6.20657e+07
-3.70744e+07
-4.07211e+07
4.08281e+07
3.11506e+07
-4.08155e+07
1.07072e+08
-1.07061e+08
-3.28115e+07
1.28245e+07
1.77311e+07
-6.36739e+07
-5.12167e+07
-3.589e+06
-3.21896e+07
1.20431e+07
4.33192e+07
4.50692e+06
1.9508e+06
-9.47407e+06
3.96945e+07
2.15504e+07
-9.05507e+07
-4.26218e+07
7.27626e+07
-7.27552e+07
2.72192e+07
-2.64876e+07
1.27247e+07
-2.91542e+07
2.91602e+07
1.06962e+06
2.14581e+07
-4.88446e+07
2.91693e+06
4.87666e+07
97374.4
-97469.2
-1.84831e+07
5.27055e+07
3.95199e+07
6.47469e+07
3.48438e+07
-4.5842e+07
1.97225e+07
-5.72447e+07
1.63823e+07
7.14472e+06
4.82844e+06
-8.63398e+07
-9.22322e+07
9.224e+07
-8.02621e+07
7.57805e+06
6.18533e+07
-3.10955e+07
8.89361e+07
-8.89279e+07
-6.35499e+07
6.35572e+07
6.42689e+07
5.96788e+06
5.37905e+06
-5.37859e+06
-8.11867e+07
8.11603e+07
5.7074e+07
-5.70651e+07
14516.2
-14577.8
-1.98793e+07
-1.42541e+07
-5.12276e+07
-5.31562e+06
-1.36384e+07
-8.81269e+07
8.81417e+07
-8.63369e+07
8.63515e+07
5.65137e+07
-5.65082e+07
4.75155e+07
-4.75074e+07
-1.22334e+07
319882
-1.24595e+07
-4.9363e+07
2.25011e+07
6.02836e+07
-2.06197e+07
-1.10154e+08
1.10166e+08
-5.42685e+07
2.75492e+07
1.39012e+07
7.2733e+07
6.25235e+07
-4.24853e+07
-1.54008e+07
8.8291e+07
-8.82822e+07
-2.48517e+07
2.49072e+07
1.41775e+07
-1.41723e+07
9.07819e+07
-9.07733e+07
2.36025e+06
1.30129e+07
-1.5284e+07
1.99774e+07
8.78536e+07
9.49333e+06
-7.56358e+07
7.56503e+07
-3.52552e+07
4.36699e+07
2.79744e+06
-5.01011e+07
5.01107e+07
2.45754e+07
-2.45701e+07
3.22864e+07
-7.55843e+07
-4.38241e+07
-3.01717e+07
3.01761e+07
-4.86306e+07
-7.87015e+06
4.41818e+07
-4.41738e+07
-3.72976e+07
1.01614e+08
-1.01597e+08
7.70247e+07
-7.70107e+07
-5.02664e+07
-6.88596e+07
6.88719e+07
-2.53883e+07
-3.61389e+07
8.39729e+07
-8.39646e+07
-6.47205e+07
-9.30432e+07
9.30511e+07
5.4122e+07
-8.40336e+07
8.4042e+07
-5.35415e+07
5.35543e+07
-1.28242e+07
5.3626e+07
-5.36172e+07
-4.34604e+07
-8.77465e+06
-1.029e+07
-1.4157e+07
6.19207e+07
-6.19154e+07
-1.04922e+08
1.04931e+08
-3.94033e+07
-6.64222e+07
3.70682e+07
4.03968e+06
-4.48707e+07
-4.12281e+07
2.25881e+07
-5.09713e+06
5.09763e+06
-7.70416e+07
-1.019e+08
1.01907e+08
3.91772e+07
3.99254e+06
-8.44875e+07
8.44962e+07
-4.23147e+07
-5.21598e+07
5.21746e+07
498273
6.18858e+06
-1.53666e+07
-3.52789e+07
-3.35212e+07
4.33973e+07
-4.33903e+07
-4.67159e+07
-1.08906e+06
7.44048e+07
-7.4396e+07
1.70764e+07
-4.69096e+07
4.69159e+07
-1.3719e+07
2.81975e+07
-2.81915e+07
-8.34157e+07
8.34284e+07
-3.30419e+07
3.30487e+07
5.20408e+07
-3.46048e+07
3.45413e+07
5.12934e+07
-4.17855e+07
4.17936e+07
-3.63331e+07
1.72428e+07
-1.96955e+07
-5.4325e+07
3.99779e+06
-1.01086e+07
-1.88211e+07
-8.61381e+07
5.0132e+07
-5.01234e+07
3.99578e+07
5.10932e+07
-5.10869e+07
-3.77975e+07
-6.97151e+07
6.97224e+07
-1.35806e+07
-3.64431e+06
-4.78016e+07
4.78078e+07
8.73255e+07
-8.73172e+07
6.67276e+07
2.44799e+07
3.97291e+07
7.29324e+07
-7.29239e+07
9.89795e+07
-9.89711e+07
3.16693e+07
-2.4727e+07
1.26833e+07
-1.30144e+07
3.53545e+07
-3.53365e+07
-4.04112e+07
-235085
-430135
432289
236276
-2.48075e+07
796651
-803706
-4.16514e+07
4.16595e+07
-2.15936e+07
2.15985e+07
2.75128e+07
-2.7507e+07
6.33819e+06
6.30453e+07
-6.30391e+07
-5.14213e+07
-2.44986e+07
-5.95159e+07
5.95216e+07
-3.08049e+07
6.89459e+07
-6.89379e+07
-4.03315e+07
-3.02853e+07
6.2918e+07
-3.06278e+07
3.06342e+07
6.1814e+07
4.62749e+06
-47628.6
-2.94924e+07
-8.64797e+07
8.64885e+07
-8.6037e+06
4.91504e+07
-1.09876e+08
1.09886e+08
13950
-13995.6
5.556e+07
-5.55569e+07
4.82902e+07
-7.68633e+06
1.10193e+08
-1.10185e+08
-3.22915e+07
-4.94603e+07
9.11594e+06
2.17995e+07
4.20924e+07
3.60435e+07
2.00311e+07
-1.73717e+06
-1.42637e+07
-6.01666e+07
3.85023e+07
5.67979e+07
-5.42703e+07
-2.75456e+07
-2.28631e+07
49870.2
-50169.3
6.94562e+07
-6.94489e+07
4.12906e+07
-3.37109e+06
-2.43476e+07
-8.82611e+06
4.97771e+07
5.32078e+07
-4.95625e+07
-5.39569e+06
3.46249e+07
-3.80045e+07
-1.28748e+07
2.23184e+07
-2.23131e+07
4.43914e+07
6.9956e+07
-6.64606e+06
-3.4865e+07
8.81428e+07
-8.81342e+07
-9.57657e+07
9.57737e+07
-18300
17922
-4.73652e+06
-6.4066e+06
-2.76515e+07
-3.39244e+06
-4.5815e+07
4.58186e+07
3.02456e+07
3.78733e+06
-3.78744e+06
-1.01544e+08
1.01553e+08
-7.97817e+07
7.81629e+07
-7.81548e+07
-1.39955e+07
6.32615e+07
-3.96974e+07
-2.3047e+07
6.2748e+07
6.98189e+06
8.32909e+07
-8.32827e+07
3.36878e+07
-9.69455e+06
9.66442e+07
-9.66292e+07
-3.35677e+07
-9.0048e+07
-2.63548e+07
9.00574e+07
2.37193e+07
-2.36814e+07
4.53747e+07
3.30535e+07
-4.76071e+07
-1.91949e+06
-4.75671e+07
-2.21391e+07
8.35959e+07
-1.54269e+07
2.91562e+07
-2.91511e+07
-9.54395e+07
9.54474e+07
2.40003e+07
6.60412e+06
-8.43321e+07
8.43407e+07
-5.23518e+07
4.32227e+07
3.52528e+07
1.66397e+07
3.91216e+07
1.90519e+07
-1.90473e+07
-1.35607e+07
4.73753e+07
-4.73693e+07
-9.43877e+07
9.43957e+07
1.07707e+06
-3.60166e+07
-6.54106e+06
-8.35394e+07
6.97501e+07
-6.97354e+07
3.55691e+07
4.06987e+06
-2.53806e+07
-5.66315e+07
-2.32179e+07
-3.37329e+07
-1.30384e+07
-3.35479e+07
4.00037e+07
9.60867e+07
-9.60787e+07
7.73233e+07
-7.73089e+07
6.29247e+07
-6.19078e+07
-1.38709e+07
6.21902e+06
9.33985e+07
-9.33904e+07
-6.55883e+07
-5.94945e+07
1.74407e+06
-2.43349e+07
7.40513e+06
3.33753e+06
-3.33071e+06
-2.53389e+07
-1.00422e+07
1.01693e+08
-1.01681e+08
-2.65657e+06
2.7183e+07
-5.22406e+06
1.13223e+08
-1.13214e+08
-3.35257e+07
3.35342e+07
-3.99688e+07
-1.97499e+07
1.97552e+07
-1.40708e+07
-6.39668e+06
3.31896e+06
6.09361e+06
8.71635e+07
-8.71553e+07
-1.24589e+07
-4.91942e+07
4.92031e+07
9.77829e+07
-9.77747e+07
-3.27969e+07
3.2582e+07
4.75687e+07
-4.75606e+07
-9.73544e+07
9.73682e+07
1.12443e+07
-6.16023e+07
9.99271e+07
-9.99141e+07
-6.44992e+07
-4.74551e+06
4.74948e+07
-4.74876e+07
7.75405e+07
-7.75321e+07
-5.46588e+07
-8.69195e+07
8.69281e+07
-1.07086e+08
1.07094e+08
5.46572e+07
2.64123e+07
3.79888e+07
1.72331e+07
6.82493e+07
-6.82403e+07
-8.60153e+07
5.19819e+06
6.5499e+06
8.60217e+07
2.73607e+07
4.39514e+07
-3.8177e+07
4.7161e+07
-4.71557e+07
970488
1.25642e+07
-4.62834e+07
6.89522e+07
-6.89769e+07
2.68028e+07
-3.04364e+06
65391.2
-63902.7
-3.43505e+07
-3.94464e+07
-3.19071e+07
9.97455e+07
-9.97339e+07
-5.76033e+07
-4.76105e+07
-5.6376e+07
2.95787e+07
4.52104e+07
-4.52019e+07
-6.133e+07
2.31078e+07
5.7646e+07
-3.39324e+07
3.41469e+07
5.63785e+07
-5.67421e+07
4.87292e+07
-4.87218e+07
-8.53857e+07
8.53938e+07
5.55404e+07
-1.96726e+07
3.60186e+07
7.94273e+07
-7.94133e+07
-7.8069e+07
7.80778e+07
105231
-2.94275e+07
6.86685e+07
-6.86596e+07
-3.97898e+07
7.34478e+06
-7.34298e+06
-3.14122e+07
-3.19821e+07
8.63383e+07
-5.19194e+07
-5.43604e+07
-6.51638e+07
3.51441e+07
-3.7501e+07
-1.25853e+07
9.83693e+07
-9.8361e+07
-5.41602e+06
1.26503e+06
1.7278e+07
-3.82052e+07
-1.63391e+07
-9.0596e+06
-5.36858e+06
3.61925e+07
-2.87305e+07
2.54611e+06
1.45324e+07
-3.40565e+07
2.79686e+07
-7.89535e+07
1.95956e+07
-2.02231e+07
-5.22631e+06
5.22685e+06
3.34214e+07
-1.02705e+07
1.02701e+07
-2.70437e+07
-1.52493e+07
6.34731e+07
-6.34673e+07
3.42818e+07
7.40881e+06
-7.41005e+06
-2.86377e+07
-1.69579e+07
3.19667e+07
-4.18138e+07
4.79172e+07
3.05202e+07
-9.16756e+07
3.7274e+07
3.09346e+07
5.1727e+07
2.07812e+07
-2.07765e+07
1.24566e+07
-1.26819e+07
278979
-279362
5.09315e+07
-1.54369e+06
3.79217e+07
2.81346e+07
-3.73532e+07
3.7357e+07
-6.36294e+07
-1.15983e+07
3.23901e+07
-75430.9
75247.6
-3.60503e+07
-2.47276e+07
-752433
4.3001e+06
-1.79664e+07
6.23126e+07
3.20282e+07
-4.6705e+07
-3.87676e+07
3.87715e+07
-7.29742e+07
-5.69205e+07
1.1999e+06
6.97175e+06
-4.24364e+07
-6.60708e+07
6.60857e+07
2.73166e+06
-2.86861e+07
-7.01254e+07
-5.52129e+06
5.52191e+06
-3.72833e+07
1.69975e+07
3.78574e+07
-8.75942e+07
8.7603e+07
-1.63035e+07
-4.61953e+07
4.62132e+07
6.03495e+07
-6.03361e+07
2.85371e+07
-3.79392e+07
227772
-225544
-3.08693e+07
1.4852e+06
1.11917e+07
9.56032e+07
-9.5595e+07
-1.11558e+07
1.03363e+08
-1.03346e+08
5.89222e+06
4.58372e+07
-1.54007e+07
-6.75946e+07
-2.85197e+07
-9.68422e+06
6.76094e+07
6.88378e+07
8.03171e+06
-2.8719e+07
-4.07759e+07
4.0782e+07
3.94428e+07
-4.05799e+07
6.154e+07
3.04187e+07
4.16534e+07
-9.15499e+06
7.0098e+06
-1.43588e+07
-2.31423e+07
2.68722e+06
8.95369e+06
-1.4258e+07
-9.50262e+06
474057
4.01607e+07
2.3387e+07
-5.1949e+07
-3.81536e+07
-1.72679e+07
-6.37128e+07
5.96935e+07
-5.57308e+07
5.57396e+07
1.17139e+07
-4.75178e+06
-3.66305e+07
3.66299e+07
7.48939e+07
-7.4885e+07
-2.55104e+07
-9.96268e+06
5.1463e+07
-5.89206e+06
5.89115e+06
9.29255e+07
-9.29176e+07
6.35369e+06
1.381e+06
-3.3087e+07
-9.30134e+06
-7.62935e+06
-1.82315e+06
-8.21593e+06
-2.03555e+06
6.35193e+07
6.15418e+07
-6.15359e+07
3.5758e+07
-3.57043e+07
1.60155e+07
1.53106e+07
9.31674e+07
-9.31594e+07
8.13741e+06
1.63161e+07
3.61978e+07
-1.35771e+07
-5.82287e+07
-2.47405e+07
2.2724e+07
-1.8959e+07
6.94863e+07
-1.0658e+07
-2.16656e+07
8.25679e+07
6.39009e+07
-6.38946e+07
-7.35347e+07
1.25367e+07
4.04524e+07
-3.05243e+07
3.16847e+07
8.15444e+07
-8.14817e+07
-3.19746e+07
-8.45111e+07
-3.5009e+06
3.5025e+06
6.30678e+06
-6.30541e+06
2.34249e+07
3.37903e+07
-3.10472e+07
9.62199e+07
-8.75393e+07
8.75549e+07
1.34822e+07
-1.34753e+07
-1.55302e+07
9.84611e+07
-9.84528e+07
-3.95919e+07
3.90682e+07
-1.06905e+07
-22477
22413.4
-3.24322e+07
-1.54001e+07
7.83758e+07
-2.09218e+07
-9.0199e+07
9.02106e+07
3.4726e+07
7.48252e+07
-7.42908e+07
2.8067e+07
1.84353e+07
-2.54627e+06
3.69219e+07
-3.69151e+07
-9.24881e+07
9.24963e+07
-1.73054e+07
-4.31526e+07
4.31527e+07
-8.68741e+07
8.68828e+07
1.91627e+07
-4.69239e+07
3.94508e+07
-1.55232e+07
3.41265e+07
-3.41178e+07
-3.01948e+07
1.39551e+07
6.76408e+07
-687906
-2.76048e+07
2.76104e+07
-4.02805e+07
1.93403e+07
8.02648e+07
8.07839e+07
-8.07752e+07
6.00782e+07
-7.94035e+06
-3.0652e+07
3.01615e+07
9.95414e+07
-9.9526e+07
-4.27877e+07
6.77455e+07
-6.77377e+07
4.16046e+07
-6.68905e+07
-5.34938e+07
5.34929e+07
3.57791e+07
2.46023e+07
1.90715e+06
-2.96472e+06
-4.9718e+07
1.57141e+07
-1.27196e+07
36155.1
-36369.9
6.69499e+07
7.9736e+06
-7.97132e+06
7.98513e+07
-7.98375e+07
22736.2
9.75469e+07
-9.75328e+07
-6.53916e+07
6.54029e+07
-1.05313e+08
1.0532e+08
2.72493e+07
9.70658e+07
-9.70577e+07
7.9198e+06
-3.28345e+07
-1.36296e+06
-3.02203e+07
2.10715e+07
-2.87445e+07
7.54984e+07
-7.54915e+07
-1.98545e+07
1.98617e+07
1.98991e+07
-2.73369e+06
1.52405e+06
6.15725e+07
1.07408e+07
4.48579e+07
-6.66047e+07
1.01723e+07
-1.33219e+07
2.90284e+06
-2.90297e+06
6.20477e+07
-4.27397e+07
6.11987e+07
-3.97706e+07
-1.93247e+07
7.81625e+06
4.12118e+07
-4.11929e+07
4.04255e+07
2.24486e+07
-3.59966e+07
3.59986e+07
-1.52257e+07
-4.76041e+07
-9.42448e+07
-5.03522e+07
5.03572e+07
6.6365e+07
-3.19906e+07
3.90069e+07
-4.11381e+07
4.99254e+07
9.42558e+07
4.1144e+07
5.24498e+07
4.29839e+07
2.5194e+07
3.93876e+07
-1.27977e+07
3.44823e+07
2.58862e+07
1.9736e+07
-6.17831e+06
-2.11823e+07
3.62679e+07
-3.89922e+07
-2.39548e+07
7.65335e+07
-7.65251e+07
-5.50486e+07
1.53219e+07
-1.40432e+07
-1.64645e+07
6.53871e+07
-6.34381e+07
7.59539e+06
-7.85534e+07
-2.72486e+07
1.19154e+07
6.34554e+07
3.48174e+07
-5.1127e+07
2.17914e+07
-9.48784e+06
5.98585e+07
-5.89678e+07
4.04904e+07
58091.5
-59153
-6.66934e+07
-7.22719e+07
7.22866e+07
3.42871e+06
8.29978e+07
-8.2987e+07
9.91758e+06
1.74526e+07
-1.74482e+07
-4.33335e+07
328058
1.00712e+07
1.01538e+08
-1.0153e+08
-4.8757e+06
-7.8021e+07
8.47609e+07
-3.1091e+07
8.02118e+07
-8.01987e+07
-4.42744e+07
1.24228e+07
7.69931e+06
-7.23827e+07
3.81733e+07
-3.81737e+07
9543.53
-9633.95
5.06699e+06
2.3725e+07
4.53701e+07
-4.53618e+07
8.56887e+07
-8.56799e+07
-7.13874e+07
1.57081e+07
3.17391e+07
7.90519e+07
-7.90435e+07
3.86516e+06
-150324
149237
-7.47978e+07
7.47786e+07
-8.57158e+07
8.57244e+07
-7.94148e+07
9.27905e+07
-9.27822e+07
5.91661e+07
-5.91534e+07
4.41371e+07
-2.05078e+07
-8.6677e+07
8.46827e+07
3.59521e+07
2.3708e+06
-8.46771e+07
1.53857e+07
4.4363e+07
4.69848e+07
5.11433e+07
3.01996e+07
8.85367e+07
-8.85286e+07
-2.28924e+07
-6.75451e+07
6.75569e+07
9.56271e+07
-9.56178e+07
-3.33907e+07
-6.38447e+07
6.38518e+07
3.8139e+07
-3.81383e+07
-3.79223e+07
3.6525e+07
-3.65152e+07
3.78712e+07
-9.58521e+07
9.58601e+07
2.42061e+07
-1.6729e+07
-3.84603e+07
-7.23922e+06
3.29863e+07
-3.29137e+07
1.45729e+07
-3.66983e+07
1.75895e+07
-2.92125e+07
-4027.69
4020.23
-1.04768e+08
1.04778e+08
-1.48577e+07
2.67645e+07
1.01164e+08
-1.01149e+08
-4.04285e+07
3.51146e+07
1.92985e+07
-6.28282e+07
6.31729e+07
3.80944e+07
-2.40865e+06
-6.5342e+07
8.58994e+06
-1.00155e+08
1.00169e+08
-4.14346e+07
4.14418e+07
-6.06023e+07
6.06115e+07
1.53473e+06
-1.54932e+06
1.70599e+07
-5.97941e+07
-1.20416e+07
-3.35453e+07
-3.50932e+07
-7.23496e+06
1.06464e+06
-1.06513e+06
-1.72252e+07
-2.28676e+06
3.29669e+07
-3.77773e+07
3.77849e+07
2.96605e+07
-2.25068e+06
-4.59261e+07
6.64286e+07
-6.64207e+07
-4.05295e+07
6.41486e+06
-6.73513e+07
6.736e+07
-2.80754e+07
-6.69641e+07
6.6971e+07
-5.53143e+07
-3.04077e+07
-3.80261e+07
-2.00867e+07
2.26268e+07
-2.2715e+07
8.57635e+07
1.9176e+07
4.93505e+07
-4.93435e+07
2.2694e+06
3.95912e+07
-3.9583e+07
6.70896e+06
7.3511e+07
-7.35031e+07
-2.34926e+07
2.34977e+07
-4.11818e+06
-2.22173e+07
2.22261e+07
-7.37944e+07
7.38029e+07
4.56455e+07
-2.68136e+07
-4.54264e+07
3.88159e+07
-3.8808e+07
4.52171e+07
-1.50825e+07
-4.0284e+07
4.02976e+07
9.97709e+06
8.58579e+07
-8.58411e+07
1.20118e+07
5.81329e+07
9.35803e+07
-9.35724e+07
-195927
197633
-3.73785e+06
8.29213e+07
-8.29129e+07
1.031e+07
3.85662e+07
-3.8555e+07
3.88575e+06
-3.88524e+06
-1.17338e+06
3.77636e+07
8.53647e+07
-8.53481e+07
-1.08622e+08
1.08633e+08
3.49325e+07
4.07923e+06
-4.98678e+06
4.98725e+06
2.51599e+07
-24280.9
24200.5
-1.00053e+08
1.00061e+08
-2.68761e+07
7.99509e+06
-7.99352e+06
1.20299e+07
-8.56465e+07
8.56552e+07
-2.23679e+07
-1.16895e+07
-9.43518e+07
9.43603e+07
-8.57369e+07
8.57517e+07
-2.63051e+07
2.3555e+06
-6.26183e+07
2.93261e+07
-1.93425e+07
-9.99345e+06
3.23551e+07
3.57545e+07
-4.09086e+07
4.09727e+07
-7.66672e+07
7.6676e+07
9.40183e+07
-9.40101e+07
7.51776e+07
-3.95438e+07
-8.8281e+06
3.24457e+06
-8.85909e+07
-3.87234e+07
6.11166e+07
5.68637e+07
-6.17192e+07
5.15524e+07
-5.15443e+07
-3.07515e+07
3.07579e+07
7.64319e+06
-1.08151e+07
-3.77482e+07
1.82502e+06
-3.88335e+06
3.15044e+07
-3.45927e+07
-1.46337e+07
4.13031e+07
-4.12935e+07
914710
-4.62092e+07
4.62191e+07
-1.91169e+07
-9.66712e+07
9.66891e+07
-9.06008e+07
9.06119e+07
-1.37395e+07
-6.79874e+07
6.79946e+07
1.14803e+08
-1.14793e+08
7.58345e+07
-7.58267e+07
3.65917e+07
-3.65841e+07
8.34814e+07
2.02366e+07
2.63852e+07
-1.23443e+07
-3.21203e+07
3.21267e+07
-6.9092e+07
6.90991e+07
-2.38861e+07
2.34535e+07
-2.02715e+07
1.08208e+08
-1.08199e+08
4.0354e+07
-5.515e+07
5.5153e+07
-3.1613e+07
-3.94634e+07
5.79288e+07
-1.75645e+07
3.67116e+07
-3.66636e+07
5.33877e+06
-4.12172e+07
3.79823e+07
797575
-797826
7.07481e+07
1.45852e+07
1.44536e+07
-2.07328e+07
-5.01285e+07
-8.16618e+07
1.95966e+07
1.26402e+07
-1.26366e+07
8.15744e+07
-8.15656e+07
4.15909e+07
-4.15828e+07
-2.28513e+07
1.9653e+07
1.89623e+07
1.10302e+07
-2.01085e+07
-6.91569e+07
2.54188e+07
2.7757e+07
1.21345e+07
-7.89141e+07
7.88868e+07
1.33586e+06
-1.33663e+06
2.15443e+07
1.73025e+07
-5.37434e+07
5.3749e+07
3.71486e+07
-3.71409e+07
1.00285e+08
-1.00277e+08
-2.57116e+07
-1.3096e+07
1.29941e+07
6.4581e+06
-7.3031e+07
7.39295e+07
-8.96658e+07
8.96741e+07
4.0524e+07
-1.55409e+06
6.71896e+07
-6.7175e+07
-4.32644e+07
4.30035e+07
3.20381e+07
-1.27552e+07
-4.1508e+07
-2.04894e+07
3.42681e+07
-3.42088e+07
5.24126e+07
-5.24049e+07
-6.04108e+07
8.91333e+07
-8.91247e+07
7.64853e+07
-7.64708e+07
8.21739e+07
3.55616e+07
-3.55268e+07
-2.24721e+07
2.24776e+07
1.27746e+07
-2.37622e+07
-4.83374e+07
-3.76624e+07
3.76738e+07
-4.37503e+06
4.37514e+06
2.15734e+06
4.77448e+07
-6.15623e+07
6.15691e+07
4.86315e+07
2.13729e+07
-1.07416e+08
1.07426e+08
2.05769e+07
5.72664e+07
-7.25977e+07
2.27072e+07
-6.4127e+07
-7.43738e+07
7.43817e+07
2.5718e+07
7.92749e+07
-7.92667e+07
1.49541e+07
2.57217e+07
6.41342e+07
-5.74962e+07
5.75032e+07
-2.95351e+07
3.13901e+07
-368098
9.24155e+07
-9.24071e+07
8.18884e+06
-1.38847e+07
5.3229e+07
-5.32198e+07
3.3411e+07
-3.4602e+07
3.43626e+07
3.74445e+06
2.51848e+06
-2.35756e+06
5.09599e+07
-5.0952e+07
1.06734e+07
-1.56669e+07
-3.46677e+07
6.47694e+07
-4.89907e+06
-1.76812e+07
-5.91182e+06
2.45117e+06
3.33499e+07
7.8309e+07
-2.69766e+07
7.4662e+07
-7.46472e+07
-3.53458e+07
1.1599e+06
-1.16023e+06
8.02004e+07
-8.01894e+07
2.73968e+07
-8.52716e+07
8.52844e+07
3.44703e+07
7.72759e+07
-1.0954e+07
-85279.7
85168
5.45573e+06
-6.90938e+07
6.91025e+07
-4.44736e+07
4.80437e+06
4.58901e+07
-557223
-7.51203e+07
3.54062e+07
-2.36719e+07
2.36795e+07
4.16028e+07
-4.15946e+07
-3.94596e+07
1.79147e+07
3.41234e+07
-7.74024e+07
7.74107e+07
-8.89706e+06
5.11706e+06
-5.11606e+06
-928921
-9.42017e+07
9.42097e+07
-1.33344e+07
2.30619e+07
-3.13435e+07
2.72152e+07
-2.7296e+07
4.34715e+07
-4.34617e+07
-3.13843e+07
3.42876e+07
-4.54036e+07
4.5516e+07
5.55749e+07
-3.81566e+07
-5.72525e+07
4.32296e+06
-7.07939e+07
-1.49718e+07
3.64441e+07
-3.64275e+07
-1.08648e+06
1.41208e+07
-1.41168e+07
7.66807e+07
-7.66791e+07
6.334e+07
8.65504e+07
5.73371e+06
1.35401e+07
3.70041e+07
3.0083e+06
-7.18977e+07
-6.92512e+07
4.76516e+07
2.96361e+07
-3.95476e+07
-1.31681e+07
3.91903e+07
-4.97331e+07
4.97407e+07
5.04835e+07
-5.04769e+07
6.29618e+07
-6.36014e+07
2.81446e+07
-4.72827e+07
4.72922e+07
4.99282e+06
-5.24414e+07
5.26668e+07
-7.81419e+07
7.815e+07
1.97104e+07
5.36122e+07
-1.15167e+07
-3.93613e+07
-7.06133e+07
8908.32
-8970.79
3.43462e+07
-1.8583e+07
2.25538e+07
-1.96277e+07
1.05032e+07
3.67569e+07
-3.67479e+07
-6.4885e+07
6.48912e+07
3.52373e+07
-7.49266e+07
9.67229e+07
-9.67148e+07
-5.78101e+07
5.78153e+07
3.08475e+07
2.17814e+07
2.47578e+07
3.20124e+07
5.53399e+07
-5.54604e+07
2.22191e+07
-4.95095e+07
4.95066e+07
-3.39932e+07
3.40002e+07
5.24526e+07
2.18726e+07
-2.18678e+07
3.64875e+07
-3.64696e+07
4.74191e+07
-2.82547e+07
2.8147e+07
-1.73319e+07
1.52239e+07
1.75437e+06
-1.97463e+07
-3.51557e+07
3.61789e+06
-3.61426e+06
-2.94466e+07
3.5174e+07
-6.05853e+07
6.05943e+07
2.37598e+07
3.15056e+07
3.33444e+07
3.86787e+07
3.32277e+07
-3.32208e+07
4.11554e+07
-9.28795e+07
9.28927e+07
4.03513e+07
3.93976e+07
-1.96321e+07
-6.18189e+07
5.5117e+07
-5.51106e+07
1.93953e+07
4.61425e+07
3.77238e+07
-8.62052e+07
8.62132e+07
5.64569e+07
-5.64393e+07
2.91133e+07
-3.08652e+07
-2.55629e+07
-6.83022e+06
2.62502e+07
2.286e+07
3.06239e+07
-2.84662e+07
3.32674e+06
-3.95754e+06
-6.53871e+07
6.53937e+07
8.0557e+06
9.87108e+07
-7.08298e+07
7.08374e+07
6.34374e+07
-4.51807e+07
3.7806e+07
-3.13122e+07
4.52072e+07
-9.12864e+07
9.12942e+07
1.30816e+07
4.70476e+07
-6.81901e+07
6.81971e+07
3.90452e+07
-3.36595e+07
5.43476e+07
7689.09
-7568.07
3.35267e+07
8.1659e+07
-8.16471e+07
3.25833e+07
-2.26786e+06
2.78303e+07
6.5031e+07
-5.26668e+07
-2.37924e+06
-9.86965e+07
56230.7
-56388.2
-2.13366e+07
4.61459e+07
1.51805e+07
85759.9
-84075.6
4.27961e+07
-6.17647e+07
6.17723e+07
1.01675e+08
-1.01662e+08
-3.2479e+07
3.24857e+07
3.79226e+07
1.87649e+06
-1.86161e+06
-3.84365e+07
-1.89278e+07
2.69336e+07
2.89122e+06
-3.43199e+07
-3.22418e+07
7.26179e+07
-7.26253e+07
-6.92774e+07
6.92861e+07
-9.00375e+06
-3.5644e+07
-8.8323e+07
2.31785e+07
-4.41202e+07
-1.32886e+06
4.14949e+07
4.31297e+07
1.01649e+08
-1.01632e+08
-6.93519e+07
-2.51702e+07
-5.32754e+07
5.32877e+07
-1.1506e+07
-3.20426e+06
1.00965e+06
3.08571e+07
12634.6
-12558.1
-1.69804e+07
8.62968e+06
-8.6296e+06
-675026
-8.96824e+07
8.9693e+07
-1.52729e+07
-3.90191e+07
5.15877e+07
3.90389e+07
-7.21186e+07
7.20813e+07
1.68064e+07
-2.01674e+07
-3.62924e+07
4.8767e+06
-8.88641e+07
8.88748e+07
4.68297e+07
-4.69114e+07
-9.00132e+07
1.44677e+07
-1.07515e+08
1.07527e+08
1.96496e+07
-1.96448e+07
-3.44764e+07
7.16548e+07
-9.79094e+06
-5.76262e+07
5.76307e+07
9.78393e+07
-9.78314e+07
-977963
-5.57245e+06
4.17308e+07
8.4772e+07
3.44881e+07
2.15517e+07
-6.61181e+07
6.61256e+07
-1.61572e+07
2.7121e+07
-4.1099e+07
-6.30507e+07
-1.60465e+07
-3.95835e+07
6.00207e+07
-6.00118e+07
7.96134e+07
-9.64985e+07
9.65065e+07
116787
-116444
4.6463e+07
3.75802e+07
9.89649e+07
-4.58677e+07
-5.28192e+07
5.28248e+07
-5.35552e+07
3.53774e+07
-7.37791e+07
3.37065e+07
-1.7136e+07
-1.03104e+08
1.03113e+08
-6.75537e+07
-5.01684e+07
5.01773e+07
-1.08719e+08
1.08731e+08
-9.89478e+07
-12557.4
12521.9
3.20206e+07
-1.06298e+08
1.06306e+08
-5.62762e+07
5.62853e+07
-3.75429e+06
3.75408e+06
5.20312e+07
1.68846e+07
7.74659e+07
-7.74572e+07
-1.45411e+07
-2.15836e+07
6.49347e+07
-6.4927e+07
-4.01051e+07
-2.93775e+07
8.1951e+07
-8.19426e+07
-3.40322e+07
9.64444e+06
-9.64099e+06
5.55615e+07
110681
-2.93686e+07
1.04515e+08
-1.04498e+08
7.50345e+07
5.16616e+07
-5.16534e+07
-3.87945e+07
3.88041e+07
3.56575e+06
-3.56562e+06
1.73925e+07
6.60772e+07
-6.30544e+06
6.306e+06
-6.00571e+07
6.00661e+07
-2.02772e+07
6.98953e+06
2.68232e+07
5.35599e+07
1.55226e+07
1.17119e+07
7.39368e+07
-7.39227e+07
7.49526e+07
-7.49443e+07
-1.14015e+08
1.14026e+08
-3.11464e+07
-3.52437e+07
3.49201e+07
7.2559e+07
-7.25503e+07
-2.86666e+07
-271429
272295
-1.50607e+07
-5.6676e+07
3.75287e+07
-3.75285e+07
-8.71345e+07
2.2273e+07
-4.5623e+07
-9.61233e+07
9.61311e+07
-3.00507e+07
-3.71426e+07
3.71685e+07
2.01494e+06
2.7304e+07
-2.41644e+06
-5.44259e+07
-6.74589e+07
6.74736e+07
-8.22446e+06
-3.08774e+07
9.51487e+07
-4.40177e+07
4.40258e+07
1.80488e+07
7.50707e+07
-7.50625e+07
1.06415e+06
-2.26866e+07
-2.29729e+07
6.2321e+06
-1.61777e+07
6.98578e+06
-7.48391e+07
7.48477e+07
7.222e+07
-7.22085e+07
-1.26863e+07
-9.24024e+07
9.24111e+07
-6.49894e+06
1.37175e+07
6.48989e+06
-2.90426e+07
2.9044e+07
3.32515e+07
-2.88489e+07
1.67798e+07
5.747e+06
-3.20096e+07
2.48349e+07
7.19615e+07
-7.19511e+07
-1.8406e+07
-3.3193e+07
5.97734e+07
-2.44002e+07
-8.27574e+07
-6.67729e+07
-2.35506e+07
1.5411e+07
7.14254e+06
1.32162e+07
-1.00801e+08
1.00811e+08
-9.82226e+07
9.82308e+07
2.72168e+06
2.51713e+06
-2.53253e+06
-4.11051e+07
-1.8412e+07
3.20347e+07
-4.08133e+06
8.116e+06
-7.41245e+07
-7.06256e+06
3.20371e+06
-1.00378e+08
1.00387e+08
-2.14613e+07
6.75395e+06
7.92832e+07
2.08189e+07
-2.08139e+07
-6.78693e+07
8.24304e+07
1.91283e+07
5.79479e+07
2.42121e+07
-5.19295e+07
5.80372e+06
-6.23081e+06
-1.93772e+07
509647
-1.0405e+08
1.04058e+08
2.93187e+06
-2.91674e+06
2.72645e+07
4.77683e+06
5.27761e+07
-5.27453e+07
2.37483e+07
-1.87229e+07
2.36837e+07
-6.00642e+07
6.00724e+07
7.94135e+07
-6.00389e+06
4.84274e+07
-3.32507e+07
1.15406e+06
-6.36065e+07
2.07179e+06
-3.80132e+07
-630853
3.27111e+06
2.6011e+07
2.62479e+06
2.4264e+07
-4.68568e+07
9.96383e+07
-9.96303e+07
-4.48258e+07
4.48295e+07
2.75957e+07
-2.76203e+07
1.05173e+07
-5.50415e+07
4.10003e+07
-3.15496e+07
3.15559e+07
-7.81494e+07
3.08758e+07
-2.52349e+06
4.13384e+07
-3.85756e+07
-2.50893e+07
-1.39464e+07
-2.32427e+06
2.34492e+06
-3.95983e+07
3.96098e+07
-3.71429e+06
3.71427e+06
5.89665e+07
-5.38395e+07
2.54e+07
-1.53796e+07
-3.11597e+07
2.48908e+07
760615
-3.03445e+06
-5.38282e+06
-2.7688e+07
5.35637e+07
-2.26451e+06
1.19936e+07
4.89648e+07
7.17319e+07
-7.17424e+07
4.50584e+07
-3.50543e+06
-1.12561e+07
7.65444e+07
-7.65357e+07
6.96696e+07
-6.96615e+07
-3.53631e+07
-1.48421e+07
-2.63054e+07
-3.2611e+07
3.28374e+07
3.07446e+07
-2.94946e+07
-8.75286e+06
-2.90705e+07
-1.83874e+07
1.79725e+07
-9.61623e+06
-8.35208e+06
1.28892e+06
-1.29333e+06
1.23651e+07
-4.7246e+07
6.05348e+07
-1.40819e+07
-4.74748e+07
4.74737e+07
-8.80559e+07
5.27208e+07
-5.2712e+07
406448
-405487
3.35872e+07
7.437e+07
-7.43618e+07
147276
-3.80889e+07
872749
2.22544e+06
-2.08746e+07
2.08477e+07
-6.42103e+07
6.4218e+07
-2.01916e+07
5.50649e+06
4.72601e+07
8.72681e+07
-8.72545e+07
7.55601e+07
-7.55523e+07
3.52093e+06
-4.79894e+07
4.79944e+07
3.53793e+07
2.87129e+07
-8.48038e+07
8.48124e+07
1.30843e+07
-3.02517e+07
-3.46616e+07
1.17249e+07
-36347.2
36220.6
-5.78221e+07
5.78302e+07
-4.87171e+07
4.87265e+07
3.03016e+06
-3.03035e+06
-2.4732e+07
1.05804e+06
-1.05839e+06
-5.23395e+07
-7.26701e+07
3.35242e+07
5.38518e+07
-5.38428e+07
6.31527e+06
-6.10275e+07
5.77328e+06
-5.66122e+06
-6.67421e+07
-4.20403e+07
4.20485e+07
-2.98342e+07
-1.78068e+07
-6.61928e+07
-9.4706e+07
9.4721e+07
6.03364e+07
7.033e+07
-7.0318e+07
4.74471e+07
-4.74404e+07
-27187.4
27096.3
3.13784e+07
3.66124e+07
2.0724e+07
9.44869e+07
3.50946e+07
3.76572e+07
-3.13586e+07
-3.0853e+07
9.35564e+07
-9.35479e+07
4.23247e+06
8.38949e+07
-8.38867e+07
-3.76467e+07
-4.6558e+07
4.65632e+07
-8.15584e+07
3.63221e+07
-8.14163e+07
8.14247e+07
-7.37257e+07
3.65156e+07
5.30262e+07
2.63583e+07
2.95122e+07
-6.49015e+07
6.49093e+07
2.91482e+07
-2.91381e+07
-1.55677e+07
-2.68998e+06
7.98336e+07
2.99263e+07
-7.68956e+06
-4.30344e+07
4.31643e+07
-1.40397e+07
-1.07288e+08
1.07296e+08
-7.85248e+07
7.85329e+07
7.34428e+06
-1.66076e+07