/*--------------------------------*- C++ -*----------------------------------*\
| =========                 |                                                 |
| \\      /  F ield         | OpenFOAM: The Open Source CFD Toolbox           |
|  \\    /   O peration     | Version:  v3.0+                                 |
|   \\  /    A nd           | Web:      www.OpenFOAM.com                      |
|    \\/     M anipulation  |                                                 |
\*---------------------------------------------------------------------------*/
FoamFile
{
    version     2.0;
    format      ascii;
    class       volScalarField;
    location    "7000";
    object      sigmaEq;
}
// * * * * * * * * * * * * * * * * * * * * * * * * * * * * * * * * * * * * * //

dimensions      [1 -1 -2 0 0 0 0];

internalField   nonuniform List<scalar> 
27023
(
2.90806e+07
2.90883e+07
2.12786e+07
2.12735e+07
2.79271e+07
2.79348e+07
9.40445e+07
9.40341e+07
1.1312e+07
1.13134e+07
6.69817e+07
6.69666e+07
2.80801e+06
2.81311e+06
2.71334e+07
2.00411e+07
1.90832e+07
5.77968e+07
5.78047e+07
4.15206e+07
4.15177e+07
9.34288e+07
9.34183e+07
4.29386e+07
4.29363e+07
6.9844e+06
3.0668e+07
4.3391e+06
2.97843e+07
3.32077e+07
1.49871e+07
4.16453e+07
4.1642e+07
4.38699e+07
2.66003e+07
3.40816e+07
3.6462e+07
3.64517e+07
1.11414e+07
1.11429e+07
2.13634e+07
2.13686e+07
2.22416e+07
2.80794e+07
2.8087e+07
5.70887e+07
5.70808e+07
4.15275e+07
4.15239e+07
3.06194e+07
4.00954e+07
4.00922e+07
4.28509e+07
539438
536751
4.81158e+07
2.01499e+07
3.5906e+07
1.7133e+07
2.20362e+07
2.20313e+07
2.97434e+07
5.62124e+06
5.63712e+06
2.2136e+07
1.31226e+07
3.7342e+07
8.72248e+06
3.17598e+07
2.10782e+07
3.47028e+07
3.46923e+07
6.10188e+07
6.10135e+07
8.72391e+07
8.7232e+07
978476
976686
1.02224e+08
1.02233e+08
2.29337e+07
6.46593e+07
6.46443e+07
5.91668e+07
5.91616e+07
9.27084e+07
9.27153e+07
3.72459e+07
6.32526e+06
1.80287e+07
1.7094e+07
3.01406e+07
3.01325e+07
2.28521e+07
8.3054e+06
4.33308e+07
4.33283e+07
2.29137e+07
1.79375e+07
6.11335e+06
2.82899e+07
1.75122e+07
1.75736e+07
7.33819e+07
7.3374e+07
4.83588e+06
8.35443e+07
8.35357e+07
4.73283e+07
3.3313e+07
2.15165e+07
8.3266e+07
8.32576e+07
4.27662e+07
4.27637e+07
8.79376e+07
8.79305e+07
2.27698e+07
3.28675e+07
2.42199e+07
2.10848e+07
3.34998e+06
8.07564e+07
8.07715e+07
1.03131e+08
1.03121e+08
2.93145e+07
2.93063e+07
7.44991e+07
7.44912e+07
1.59504e+07
2.90652e+06
2.92379e+06
1.39666e+07
1.85359e+07
9.27944e+07
9.28013e+07
1.02549e+07
5.88616e+07
5.88538e+07
8.78627e+07
8.78744e+07
8.45256e+06
9.06436e+07
9.06331e+07
1.41799e+07
1.66713e+07
3.92946e+07
3.81698e+07
4.81196e+07
4.81098e+07
5.09741e+07
5.09663e+07
2.70322e+07
2.62513e+07
2.87322e+07
2.84883e+07
2.70685e+07
5.81465e+07
5.81386e+07
5.42378e+07
2.29127e+07
4.6692e+07
6.38211e+06
5.93787e+07
5.93877e+07
7.92891e+07
7.93009e+07
1.68372e+07
5.11818e+06
8.56766e+06
1.02938e+08
1.02947e+08
1.98432e+07
1.9325e+07
2.95464e+07
4.23319e+06
7.65833e+06
2.03228e+07
1.14386e+07
3.8301e+07
8.40618e+07
8.4073e+07
2.97968e+07
5.35359e+07
5.68608e+07
4.06843e+07
4.06813e+07
4.90625e+07
1.83247e+07
7.9387e+07
7.93989e+07
2.25989e+07
6.27907e+06
1.02876e+08
1.02866e+08
6.05464e+07
7.74621e+07
7.74759e+07
3.06918e+07
2.88461e+07
3.19375e+07
8.56434e+07
8.56362e+07
2.66461e+07
2.66536e+07
2.0367e+07
5.96686e+07
8.53481e+07
8.53409e+07
336494
334815
2.40107e+07
2.1703e+07
1.30271e+07
1.30257e+07
2.61935e+07
6.3778e+06
8.81695e+06
9.09101e+07
9.09175e+07
1.6057e+07
8.09376e+07
8.09527e+07
2.76081e+07
7.89815e+07
7.89739e+07
6.14392e+07
6.1434e+07
5.72634e+06
5.72974e+06
6.75913e+06
8.15358e+07
8.15281e+07
5.50914e+07
7.99526e+07
7.99452e+07
8.85158e+07
3.31608e+07
1.0063e+08
1.00641e+08
3.18927e+07
5.69635e+07
5.63558e+07
4.45885e+07
2.44545e+07
6.75641e+06
2.88644e+07
4.70661e+07
4.36595e+07
9.30996e+07
9.31082e+07
2.11677e+07
1.91114e+07
6.00619e+07
6.06577e+07
7.3111e+07
5.55386e+07
4.69468e+07
4.69397e+07
2.15139e+07
1.11871e+07
5.10567e+07
8.21482e+07
8.21408e+07
9.0276e+07
9.02656e+07
7.32649e+06
1.89443e+07
7.66782e+07
7.66637e+07
3.52262e+07
2.01511e+07
3.88142e+07
9.51597e+06
7.02629e+06
5.96096e+07
5.96189e+07
4.72624e+07
4.72753e+07
4.1217e+07
5.02528e+07
1.15834e+07
1.11896e+07
748091
751665
2.11147e+07
2.59828e+07
2.27971e+07
3.82886e+07
3.64916e+06
2.04723e+07
7.61211e+07
7.61285e+07
9.13767e+07
9.13836e+07
4.45863e+07
5.91098e+07
8.56105e+07
8.56174e+07
3.14567e+06
1.99694e+07
7.68845e+07
7.68942e+07
1.40546e+07
1.70041e+07
1.6991e+07
2.58796e+07
2.98584e+07
9.00106e+06
3.42208e+06
445895
444151
6.79805e+06
6.80283e+06
4.01765e+07
4.21745e+07
4.21831e+07
1.22452e+06
2.93781e+07
4.41302e+06
4.4305e+06
3.2049e+07
2.64855e+07
2.15711e+07
3.0666e+07
6.94836e+07
1.01814e+07
3.68365e+07
4.46765e+07
1.82252e+07
4.47242e+07
7.95995e+07
8.33582e+06
3.38104e+07
4.25489e+07
4.25578e+07
1.47494e+07
2.00202e+07
7.10176e+07
7.10106e+07
5.86441e+07
5.89332e+07
315455
313881
2.99494e+07
3.25112e+07
3.2503e+07
2.52552e+07
1.16915e+07
4.48986e+07
4.49586e+07
8.41177e+07
8.41101e+07
146678
145659
2.22806e+07
9.76971e+07
9.77054e+07
6.38545e+06
3.63207e+07
8.27044e+07
8.27114e+07
9.00374e+07
9.00518e+07
1.79209e+07
3.65671e+07
1.91134e+07
3.52243e+07
3.52322e+07
9.7422e+07
9.743e+07
2.25414e+07
5.52094e+07
2.16608e+07
5.65092e+07
5.57588e+07
2.96204e+07
3.66796e+07
3.36427e+07
2.82426e+07
3.36304e+07
9.55772e+07
9.5567e+07
2.75124e+07
1.10705e+07
1.62732e+07
5.76138e+07
4.14738e+07
8.22776e+06
2.83406e+07
1.17034e+07
3.63034e+07
7.63955e+06
1.98989e+07
1.0366e+07
3.56242e+07
1.93341e+07
8.16552e+07
3.82711e+07
6.07489e+07
6.07438e+07
2.67709e+07
2.15292e+07
1.21057e+07
3.55171e+07
3.55248e+07
2.77434e+06
1.93958e+07
3.928e+07
2.6027e+06
3.92084e+07
1.00471e+06
999904
1.73534e+07
4.75954e+07
3.37574e+07
5.82304e+07
3.17353e+07
4.11018e+07
1.7189e+07
5.16536e+07
1.89239e+07
8.38741e+06
5.05865e+06
7.80592e+07
8.30595e+07
8.30664e+07
7.21536e+07
9.10717e+06
5.66266e+07
2.49343e+07
7.99082e+07
7.9901e+07
5.29324e+07
5.29371e+07
5.80842e+07
1.00003e+07
1.49595e+07
1.49599e+07
7.33656e+07
7.33384e+07
4.93639e+07
4.93563e+07
466927
469189
1.72482e+07
1.37045e+07
4.60817e+07
1.86254e+07
1.99867e+07
8.05683e+07
8.05834e+07
8.03162e+07
8.03308e+07
5.04891e+07
5.04875e+07
5.27197e+07
5.27096e+07
1.28634e+07
7.07743e+06
1.09959e+07
4.45943e+07
1.98548e+07
5.41689e+07
1.89881e+07
1.00435e+08
1.00446e+08
4.89166e+07
2.48938e+07
1.34944e+07
6.57749e+07
5.64062e+07
3.44568e+07
1.2961e+07
7.66741e+07
7.66667e+07
2.25934e+07
2.24847e+07
1.88474e+07
1.88406e+07
8.06662e+07
8.06586e+07
2.91903e+06
1.45523e+07
1.25591e+07
2.13494e+07
7.92628e+07
1.06105e+07
6.77273e+07
6.77425e+07
3.18186e+07
3.6898e+07
2.72308e+06
4.26749e+07
4.26835e+07
3.57168e+07
3.57084e+07
2.84545e+07
6.79272e+07
3.95741e+07
2.89258e+07
2.89304e+07
4.4075e+07
1.97588e+07
3.64114e+07
3.64071e+07
3.01315e+07
9.65868e+07
9.657e+07
6.87983e+07
6.87836e+07
4.05398e+07
7.12833e+07
7.12951e+07
2.29321e+07
3.25197e+07
7.53458e+07
7.53384e+07
5.82204e+07
8.41017e+07
8.41087e+07
4.93391e+07
7.21806e+07
7.21876e+07
4.73776e+07
4.73904e+07
1.09868e+07
6.48433e+07
6.48326e+07
3.90531e+07
8.8112e+06
9.03088e+06
1.22858e+07
5.04842e+07
5.04827e+07
9.30454e+07
9.30535e+07
3.57446e+07
6.0192e+07
2.96126e+07
4.45665e+06
3.61142e+07
3.33489e+07
2.12642e+07
1.49141e+07
1.49137e+07
6.96423e+07
9.17595e+07
9.17665e+07
3.56631e+07
3.76253e+06
7.2077e+07
7.2084e+07
3.50216e+07
4.69566e+07
4.69824e+07
2.32935e+06
1.06148e+07
1.45365e+07
2.89374e+07
3.04602e+07
3.53215e+07
3.5319e+07
4.22198e+07
2.08238e+07
6.56084e+07
6.56007e+07
1.59504e+07
4.10694e+07
4.10712e+07
1.2553e+07
4.13959e+07
4.13869e+07
7.47087e+07
7.47218e+07
4.82999e+07
4.83098e+07
4.7218e+07
2.7653e+07
2.7612e+07
4.63247e+07
4.99423e+07
4.99525e+07
3.30165e+07
2.04148e+07
1.6239e+07
4.91767e+07
2.04529e+07
9.78927e+06
2.42087e+07
7.76243e+07
4.01165e+07
4.01115e+07
3.66033e+07
4.10478e+07
4.10451e+07
3.47795e+07
5.81597e+07
5.81645e+07
1.22813e+07
6.47476e+06
4.17691e+07
4.17727e+07
7.8403e+07
7.83956e+07
6.01312e+07
2.07561e+07
3.20821e+07
6.2556e+07
6.25493e+07
8.85439e+07
8.85365e+07
2.94502e+07
2.27452e+07
1.13777e+07
1.17609e+07
2.89307e+07
2.89123e+07
3.6168e+07
216043
392538
394506
217138
2.24504e+07
2.52272e+06
2.52687e+06
4.63251e+07
4.63348e+07
2.8846e+07
2.88539e+07
4.21623e+07
4.21532e+07
1.3948e+07
5.18737e+07
5.18705e+07
4.63539e+07
2.32175e+07
4.84323e+07
4.84348e+07
2.7927e+07
5.83057e+07
5.82998e+07
3.66242e+07
2.63362e+07
5.67636e+07
4.6233e+07
4.62426e+07
5.58786e+07
6.94718e+06
5.77576e+06
2.75512e+07
7.446e+07
7.44672e+07
2.17418e+07
4.00315e+07
9.71566e+07
9.71647e+07
493965
496311
4.97753e+07
4.97746e+07
4.33674e+07
7.6029e+06
9.92826e+07
9.92755e+07
2.58979e+07
4.03295e+07
1.48008e+07
2.02555e+07
3.48949e+07
3.2012e+07
1.85169e+07
3.16063e+06
1.27923e+07
5.44568e+07
3.26643e+07
5.11543e+07
4.876e+07
2.61406e+07
2.17198e+07
567351
566214
5.79055e+07
5.79005e+07
3.48672e+07
3.15151e+06
2.2386e+07
8.40673e+06
4.48229e+07
4.8106e+07
4.0151e+07
5.65687e+06
3.0836e+07
3.42941e+07
1.2662e+07
2.61923e+07
2.61838e+07
3.612e+07
6.30815e+07
7.91e+06
3.18664e+07
7.66139e+07
7.66064e+07
8.62865e+07
8.62936e+07
505197
502586
5.30975e+06
1.78278e+07
2.44797e+07
9.59248e+06
3.69012e+07
3.68965e+07
2.72296e+07
1.1947e+07
1.19492e+07
9.10578e+07
9.10653e+07
7.17441e+07
6.6676e+07
6.66695e+07
2.12005e+07
5.71661e+07
3.59665e+07
2.17502e+07
5.67518e+07
7.33038e+06
7.46847e+07
7.46773e+07
3.06844e+07
8.04787e+06
8.96702e+07
8.96557e+07
3.03281e+07
8.13009e+07
2.28414e+07
8.1308e+07
2.2425e+07
2.24318e+07
4.09603e+07
2.93371e+07
4.31965e+07
1.92578e+07
4.30343e+07
1.83651e+07
7.54997e+07
1.30412e+07
2.76825e+07
2.76788e+07
8.60425e+07
8.60495e+07
2.2205e+07
6.60638e+06
7.27778e+07
7.2785e+07
4.72363e+07
3.93777e+07
3.26217e+07
1.44312e+07
3.57469e+07
3.25429e+07
3.25347e+07
1.26714e+07
3.81924e+07
3.81915e+07
8.49567e+07
8.49639e+07
2.27381e+06
3.27718e+07
7.00344e+06
7.54428e+07
6.17685e+07
6.17536e+07
3.25241e+07
1.08172e+07
2.37683e+07
5.12345e+07
2.13229e+07
2.81191e+07
1.32655e+07
3.00725e+07
3.60981e+07
8.66426e+07
8.66354e+07
6.97611e+07
6.97462e+07
5.68218e+07
5.58589e+07
1.21167e+07
1.599e+07
8.39622e+07
8.39549e+07
5.92767e+07
5.38842e+07
3.13814e+06
2.21924e+07
6.96532e+06
6.04282e+06
6.04182e+06
2.22824e+07
9.2737e+06
9.16268e+07
9.16154e+07
5.45317e+06
2.52349e+07
1.08388e+07
1.01282e+08
1.01275e+08
3.01106e+07
3.01139e+07
3.25477e+07
2.4925e+07
2.49334e+07
1.3191e+07
6.8564e+06
6.90333e+06
8.74682e+06
7.81894e+07
7.81822e+07
1.30416e+07
4.20607e+07
4.2069e+07
8.81779e+07
8.81707e+07
2.679e+07
2.64422e+07
5.41117e+07
5.41016e+07
8.87479e+07
8.8761e+07
9.52512e+06
5.54231e+07
9.12783e+07
9.12659e+07
5.81128e+07
6.41259e+06
4.88758e+07
4.88667e+07
6.92311e+07
6.92236e+07
4.535e+07
7.507e+07
7.50772e+07
9.63279e+07
9.63349e+07
4.53495e+07
2.40958e+07
3.42058e+07
1.63085e+07
6.05256e+07
6.05176e+07
7.7622e+07
7.94918e+06
7.05192e+06
7.76265e+07
2.19095e+07
3.52265e+07
3.46681e+07
3.81774e+07
3.81758e+07
6.91375e+06
1.17046e+07
4.18333e+07
6.18346e+07
6.18565e+07
2.49047e+07
2.62589e+06
693911
694582
2.87023e+07
3.21024e+07
2.9119e+07
8.96697e+07
8.96588e+07
4.76113e+07
4.27509e+07
4.69488e+07
2.69345e+07
5.41334e+07
5.41227e+07
5.5537e+07
2.0552e+07
4.76437e+07
3.08859e+07
3.10234e+07
4.6946e+07
5.14719e+07
4.93843e+07
4.93757e+07
7.68093e+07
7.68165e+07
5.01257e+07
1.64123e+07
3.26002e+07
7.13189e+07
7.13047e+07
6.8246e+07
6.82535e+07
1.69495e+07
2.69391e+07
6.09586e+07
6.09507e+07
3.61237e+07
1.12008e+07
1.11999e+07
2.83433e+07
2.84179e+07
7.77757e+07
4.70037e+07
4.93928e+07
5.87658e+07
3.10923e+07
3.30134e+07
1.18779e+07
8.84546e+07
8.84472e+07
7.6197e+06
1.43587e+07
1.49069e+07
3.44042e+07
1.60894e+07
2.18692e+07
5.79222e+06
3.32857e+07
2.69439e+07
1.81198e+07
1.41022e+07
2.89576e+07
2.28591e+07
7.1068e+07
1.87592e+07
1.85156e+07
1.55945e+07
1.55944e+07
2.83764e+07
1.25303e+07
1.25272e+07
2.39956e+07
1.25851e+07
5.20405e+07
5.20383e+07
3.01118e+07
9.51511e+06
9.51323e+06
2.55222e+07
1.58827e+07
2.84045e+07
3.59147e+07
3.86519e+07
2.68448e+07
8.25534e+07
3.01157e+07
2.82841e+07
4.66619e+07
3.14478e+07
3.14397e+07
1.14563e+07
1.31436e+07
3.03743e+06
3.04052e+06
4.14165e+07
4.65317e+06
3.39498e+07
2.54457e+07
3.18939e+07
3.18914e+07
5.74321e+07
9.89747e+06
2.99708e+07
1.52618e+06
1.52616e+06
3.23401e+07
2.25531e+07
1.71516e+07
5.20978e+06
1.93134e+07
5.64127e+07
2.7443e+07
4.25446e+07
3.3224e+07
3.32262e+07
6.59198e+07
5.12235e+07
1.37765e+07
1.49139e+07
3.86258e+07
5.9633e+07
5.96473e+07
7.75146e+06
2.46567e+07
6.33703e+07
1.6173e+07
1.61732e+07
3.40885e+07
2.30141e+07
3.4794e+07
7.67776e+07
7.67851e+07
1.38806e+07
3.7107e+07
3.7088e+07
5.44716e+07
5.44624e+07
2.62014e+07
3.36033e+07
989787
990348
2.51102e+07
2.80331e+06
1.16199e+07
8.578e+07
8.57726e+07
1.10738e+07
9.85964e+07
9.85807e+07
8.80357e+06
4.19556e+07
1.2917e+07
5.85388e+07
2.29777e+07
1.02981e+07
5.8555e+07
6.17574e+07
6.82602e+06
2.46823e+07
3.48171e+07
3.48209e+07
3.27702e+07
3.35661e+07
5.5282e+07
2.48696e+07
3.7632e+07
8.92408e+06
8.71019e+06
1.34648e+07
1.89436e+07
5.59931e+06
9.5955e+06
2.20046e+07
8.03856e+06
1.27158e+07
3.64272e+07
2.06408e+07
4.6742e+07
3.46206e+07
2.04859e+07
5.7674e+07
5.37637e+07
6.57925e+07
6.58031e+07
2.07279e+07
7.85615e+06
3.13366e+07
3.1332e+07
6.57441e+07
6.57363e+07
2.29548e+07
9.82052e+06
4.63974e+07
7.91264e+06
7.91481e+06
8.35414e+07
8.35342e+07
7.66959e+06
1.63989e+07
3.03023e+07
1.81334e+07
7.29865e+06
2.1442e+07
9.70079e+06
9.25041e+06
5.73231e+07
5.03664e+07
5.03638e+07
2.90871e+07
2.91502e+07
1.62304e+07
1.37129e+07
8.36104e+07
8.36032e+07
1.8717e+07
1.36805e+07
3.05053e+07
1.29245e+07
5.24539e+07
2.30775e+07
2.05297e+07
1.71603e+07
6.28634e+07
1.02089e+07
2.03061e+07
7.46584e+07
5.25243e+07
5.25211e+07
6.62242e+07
1.28073e+07
3.42965e+07
2.75941e+07
2.87244e+07
7.28584e+07
7.28033e+07
2.74779e+07
7.62386e+07
9.38678e+06
9.38602e+06
1.1749e+07
1.17496e+07
2.57045e+07
3.14475e+07
2.87617e+07
8.63146e+07
8.17113e+07
8.17268e+07
1.60001e+07
1.59909e+07
2.18946e+07
8.84556e+07
8.84482e+07
3.53555e+07
3.51161e+07
8.93918e+06
364106
362270
2.81335e+07
1.75488e+07
7.04986e+07
1.88206e+07
7.94236e+07
7.94342e+07
2.92058e+07
6.76762e+07
6.72264e+07
2.57928e+07
1.70941e+07
2.59073e+06
2.99464e+07
2.99542e+07
8.30791e+07
8.30866e+07
1.47701e+07
3.47198e+07
3.47062e+07
7.63656e+07
7.63732e+07
1.56968e+07
4.25386e+07
3.53288e+07
1.47811e+07
3.1501e+07
3.14953e+07
2.74202e+07
2.01717e+07
6.10738e+07
5.11483e+06
3.52122e+07
3.52202e+07
3.66131e+07
1.67577e+07
7.23487e+07
7.09984e+07
7.09908e+07
5.44764e+07
6.88977e+06
2.79763e+07
2.81393e+07
9.34676e+07
9.34528e+07
3.89827e+07
5.70903e+07
5.70847e+07
3.76512e+07
6.02949e+07
4.84382e+07
4.84364e+07
2.94489e+07
2.20894e+07
5.49703e+06
3.95745e+06
4.4852e+07
1.60443e+07
1.18616e+07
445061
442229
6.03292e+07
1.22663e+07
1.22651e+07
7.14908e+07
7.14762e+07
4.73645e+06
8.91989e+07
8.9185e+07
6.71463e+07
6.71569e+07
9.48471e+07
9.4854e+07
2.48113e+07
8.72269e+07
8.72198e+07
8.20094e+06
3.03717e+07
3.1621e+06
2.63249e+07
1.98387e+07
2.6698e+07
6.81012e+07
6.80961e+07
2.10908e+07
2.11026e+07
1.73203e+07
3.24755e+06
1.01294e+07
5.54101e+07
1.05602e+07
4.04576e+07
6.00654e+07
2.16302e+07
1.25372e+07
7.50628e+06
7.50863e+06
5.59215e+07
3.49708e+07
5.52819e+07
3.58903e+07
1.68445e+07
1.46045e+07
3.31087e+07
3.309e+07
3.33097e+07
2.05912e+07
3.18603e+07
3.17692e+07
1.40118e+07
4.32886e+07
8.49312e+07
4.05545e+07
4.05553e+07
5.99071e+07
2.90723e+07
3.21232e+07
3.64916e+07
4.02781e+07
8.49401e+07
3.65069e+07
4.75962e+07
3.86057e+07
2.05859e+07
3.33862e+07
1.23199e+07
3.04932e+07
2.35781e+07
1.84102e+07
7.96206e+06
1.96296e+07
3.24897e+07
3.21091e+07
2.19816e+07
6.88817e+07
6.88741e+07
4.97973e+07
2.21696e+07
1.25765e+07
1.64079e+07
5.86956e+07
5.30906e+07
6.12484e+06
7.06593e+07
2.49173e+07
1.12806e+07
5.31134e+07
3.16675e+07
4.56747e+07
1.93907e+07
1.02443e+07
5.39635e+07
5.31718e+07
3.68435e+07
837851
834391
6.03398e+07
6.48338e+07
6.48488e+07
7.70694e+06
7.24839e+07
7.2473e+07
2.07109e+07
3.10315e+07
3.10234e+07
3.93611e+07
1.01901e+06
9.8513e+06
9.13837e+07
9.13764e+07
8.04041e+06
7.0429e+07
7.66478e+07
2.79224e+07
7.11722e+07
7.1158e+07
3.75359e+07
1.16203e+07
1.01866e+07
6.52225e+07
3.23651e+07
3.23619e+07
529477
526922
8.50978e+06
2.16698e+07
5.329e+07
5.32796e+07
7.33327e+07
7.33256e+07
6.44039e+07
1.41435e+07
2.72371e+07
6.67733e+07
6.67671e+07
6.62438e+06
852679
855858
6.76391e+07
6.76172e+07
7.36913e+07
7.36985e+07
7.17697e+07
8.31336e+07
8.31262e+07
5.39424e+07
5.39325e+07
4.05314e+07
1.90479e+07
7.74563e+07
7.63553e+07
3.06085e+07
6.81033e+06
7.63527e+07
1.29487e+07
3.60442e+07
4.27009e+07
4.56866e+07
2.76391e+07
7.95403e+07
7.95331e+07
1.87738e+07
6.91818e+07
6.91931e+07
8.34819e+07
8.34737e+07
2.98607e+07
5.29005e+07
5.29047e+07
3.25353e+07
3.25384e+07
3.36354e+07
3.08938e+07
3.08929e+07
3.45225e+07
8.62828e+07
8.62898e+07
2.21975e+07
1.51785e+07
3.44759e+07
1.98584e+07
2.65021e+07
2.64155e+07
1.34224e+07
3.33671e+07
1.9922e+07
2.66797e+07
263886
265565
9.28627e+07
9.28712e+07
1.39374e+07
2.40381e+07
9.4231e+07
9.42161e+07
3.65641e+07
2.84867e+07
1.81898e+07
5.57528e+07
5.61997e+07
3.10686e+07
6.61158e+06
5.87014e+07
9.72195e+06
9.18554e+07
9.18685e+07
3.57004e+07
3.57052e+07
5.34423e+07
5.34504e+07
2.46248e+06
2.45288e+06
1.60981e+07
5.41717e+07
1.14354e+07
3.07992e+07
2.8463e+07
1.79509e+07
4.83616e+06
4.83986e+06
1.60802e+07
3.96886e+06
2.85218e+07
3.47191e+07
3.47278e+07
2.66782e+07
5.56751e+06
4.14574e+07
5.60355e+07
5.60296e+07
3.23374e+07
2.13193e+07
5.99074e+07
5.99151e+07
2.60247e+07
5.54724e+07
5.54764e+07
4.97422e+07
2.55336e+07
3.04367e+07
1.81497e+07
2.13484e+07
2.13475e+07
7.73151e+07
1.60558e+07
4.88242e+07
4.88169e+07
4.95615e+06
4.28205e+07
4.28115e+07
8.48774e+06
6.23595e+07
6.23534e+07
3.32717e+07
3.32799e+07
5.26117e+06
2.17803e+07
2.17938e+07
6.59681e+07
6.59757e+07
4.11527e+07
2.2006e+07
4.11855e+07
4.58105e+07
4.5801e+07
4.09649e+07
1.36839e+07
3.26697e+07
3.26946e+07
1.05178e+07
8.52936e+07
8.52769e+07
1.18553e+07
5.26962e+07
8.44567e+07
8.44496e+07
952275
952101
1.05287e+07
7.08014e+07
7.07946e+07
9.39666e+06
3.2641e+07
3.26254e+07
7.27352e+06
7.27464e+06
1.43391e+07
3.10502e+07
8.47486e+07
8.47322e+07
9.70493e+07
9.70586e+07
3.04873e+07
1.34773e+07
1.404e+07
1.4039e+07
2.23276e+07
273156
271711
9.03913e+07
9.03983e+07
2.39794e+07
1.88034e+07
1.88011e+07
1.07405e+07
7.34583e+07
7.34654e+07
1.80898e+07
2.05308e+07
8.41246e+07
8.41322e+07
7.95517e+07
7.95666e+07
2.24046e+07
1.7551e+07
5.63755e+07
2.7251e+07
1.76359e+07
8.88893e+06
2.85643e+07
2.97315e+07
3.73363e+07
3.75864e+07
6.75734e+07
6.75811e+07
8.43749e+07
8.43676e+07
6.77194e+07
3.59008e+07
1.0054e+07
2.08243e+07
8.0061e+07
3.51827e+07
5.5209e+07
5.12619e+07
5.58715e+07
4.46522e+07
4.46459e+07
4.03272e+07
4.03358e+07
9.17757e+06
1.11965e+07
3.10338e+07
1.4199e+07
1.69428e+07
2.75095e+07
2.97675e+07
1.26386e+07
3.49507e+07
3.49407e+07
1.09173e+07
3.83709e+07
3.83789e+07
1.56606e+07
9.43262e+07
9.43437e+07
8.04244e+07
8.0435e+07
1.83951e+07
5.65389e+07
5.65436e+07
1.03094e+08
1.03085e+08
6.38879e+07
6.3882e+07
4.88325e+07
4.88225e+07
7.53634e+07
1.67569e+07
2.30827e+07
1.153e+07
3.65787e+07
3.65862e+07
5.75355e+07
5.75402e+07
2.16096e+07
2.15869e+07
1.68827e+07
9.74195e+07
9.74122e+07
3.56754e+07
5.00599e+07
5.01609e+07
2.79854e+07
3.55246e+07
5.25244e+07
1.57956e+07
2.99239e+07
2.98778e+07
7.17366e+06
3.71404e+07
3.39095e+07
3.72531e+06
3.72989e+06
6.37341e+07
1.30866e+07
1.41174e+07
1.82078e+07
4.51709e+07
7.37923e+07
1.8102e+07
2.23668e+07
2.23615e+07
7.18204e+07
7.18128e+07
4.37896e+07
4.37802e+07
2.08596e+07
1.85779e+07
1.73376e+07
1.41257e+07
1.67238e+07
6.25073e+07
2.31296e+07
2.55083e+07
1.01317e+07
7.01793e+07
7.01551e+07
7.04004e+06
7.04478e+06
1.90792e+07
1.70507e+07
4.78928e+07
4.78952e+07
5.19383e+07
5.19277e+07
9.04116e+07
9.04043e+07
2.14331e+07
1.18712e+07
1.17322e+07
5.81383e+06
6.57505e+07
6.65527e+07
8.04461e+07
8.04535e+07
3.66545e+07
3.78565e+06
5.9307e+07
5.92921e+07
3.87455e+07
3.86081e+07
2.86145e+07
1.27407e+07
3.75025e+07
1.88722e+07
2.79544e+07
2.78708e+07
5.51044e+07
5.50958e+07
5.44013e+07
7.89426e+07
7.89349e+07
6.83747e+07
6.83596e+07
7.42332e+07
2.83793e+07
2.83354e+07
2.63275e+07
2.63364e+07
1.37963e+07
2.14316e+07
3.87465e+07
3.13522e+07
3.13631e+07
1.39522e+07
1.39512e+07
2.12489e+07
3.81114e+07
5.07627e+07
5.07666e+07
4.37947e+07
1.99066e+07
9.54125e+07
9.54219e+07
1.92049e+07
5.157e+07
6.53875e+07
2.07428e+07
5.37915e+07
6.27176e+07
6.27232e+07
2.23456e+07
6.73827e+07
6.73763e+07
2.22913e+07
2.1438e+07
5.38023e+07
4.73633e+07
4.73673e+07
2.54204e+07
2.5812e+07
4.9907e+06
8.2394e+07
8.23865e+07
1.01956e+07
1.45687e+07
4.46711e+07
4.46637e+07
3.00785e+07
2.97708e+07
2.95444e+07
1.05247e+07
4.21004e+06
4.14347e+06
4.4197e+07
4.41909e+07
1.92576e+07
1.32758e+07
3.1259e+07
5.86693e+07
5.96943e+06
1.47185e+07
4.9577e+06
6.25923e+06
2.89555e+07
7.05529e+07
2.3075e+07
7.30041e+07
7.29901e+07
3.10289e+07
4.53065e+06
4.53462e+06
6.98152e+07
6.98046e+07
2.40907e+07
7.55761e+07
7.55891e+07
3.0366e+07
6.91989e+07
1.15124e+07
2.16903e+06
2.16709e+06
1.01638e+07
5.96778e+07
5.96851e+07
3.6879e+07
5.83204e+06
3.73828e+07
1.96128e+07
6.77134e+07
3.26436e+07
2.28978e+07
2.2911e+07
4.74282e+07
4.74184e+07
3.58789e+07
1.71854e+07
2.95486e+07
6.55879e+07
6.55945e+07
9.98961e+06
8.44634e+06
8.44525e+06
2.60484e+06
8.48195e+07
8.48267e+07
1.27177e+07
1.88115e+07
2.80926e+07
2.5914e+07
2.59264e+07
3.68987e+07
3.68891e+07
2.58053e+07
3.12157e+07
4.13992e+07
4.12232e+07
5.04625e+07
3.41181e+07
5.17779e+07
6.58595e+06
6.42011e+07
2.11989e+07
3.05851e+07
3.05665e+07
8.42472e+06
2.20096e+07
2.20038e+07
6.89356e+07
6.89372e+07
5.68604e+07
7.83156e+07
5.55543e+06
1.46972e+07
3.00146e+07
7.18285e+06
6.49586e+07
6.25803e+07
4.31519e+07
2.67952e+07
3.59275e+07
1.31343e+07
3.55925e+07
4.34371e+07
4.34425e+07
4.07711e+07
4.07635e+07
5.55435e+07
5.6567e+07
2.68961e+07
4.01271e+07
4.01364e+07
7.15898e+06
4.74505e+07
4.749e+07
6.62572e+07
6.62635e+07
1.61191e+07
4.8363e+07
1.06697e+07
3.59706e+07
6.36447e+07
261935
263685
3.08608e+07
1.81939e+07
2.09214e+07
1.60973e+07
9.87386e+06
3.32315e+07
3.32242e+07
5.34069e+07
5.34103e+07
3.07796e+07
6.76776e+07
8.68661e+07
8.68589e+07
4.67724e+07
4.6774e+07
2.80189e+07
2.24882e+07
2.27827e+07
2.80771e+07
5.00894e+07
5.03821e+07
1.97261e+07
4.49935e+07
4.50708e+07
4.83081e+07
4.83179e+07
4.75502e+07
3.1952e+07
3.19439e+07
3.07027e+07
3.06781e+07
3.89205e+07
2.50218e+07
2.50313e+07
1.46043e+07
2.0701e+07
5.36638e+06
2.19602e+07
2.88348e+07
9.95431e+06
9.95644e+06
2.42404e+07
2.88536e+07
5.24285e+07
5.24362e+07
2.02118e+07
2.92972e+07
3.02084e+07
3.48043e+07
4.01645e+07
4.01562e+07
3.6854e+07
8.43057e+07
8.43185e+07
3.33998e+07
3.57062e+07
1.60108e+07
5.59844e+07
4.48525e+07
4.48496e+07
1.64905e+07
4.15109e+07
3.43139e+07
7.7625e+07
7.76322e+07
5.15042e+07
5.14852e+07
2.35481e+07
2.48985e+07
2.32947e+07
1.67996e+07
2.31538e+07
2.09365e+07
2.79769e+07
2.59327e+07
4.36138e+06
6.66331e+06
5.3904e+07
5.39078e+07
9.20446e+06
8.87671e+07
5.94586e+07
5.94639e+07
5.72273e+07
3.59218e+07
3.42652e+07
2.7963e+07
3.59416e+07
8.23305e+07
8.23374e+07
1.21871e+07
3.84889e+07
5.64342e+07
5.64389e+07
3.23865e+07
3.02949e+07
4.9195e+07
83013.6
81927.1
2.90634e+07
7.21398e+07
7.21275e+07
3.00783e+07
1.11301e+07
2.5288e+07
5.84739e+07
4.74859e+07
2.81918e+06
8.87542e+07
1.39469e+06
1.39404e+06
2.04491e+07
4.19697e+07
1.32774e+07
1.02149e+06
1.02203e+06
3.4556e+07
5.16028e+07
5.16078e+07
9.17358e+07
9.17239e+07
4.69521e+07
4.69617e+07
3.43162e+07
3.27726e+06
3.27949e+06
3.49003e+07
1.83205e+07
2.57376e+07
4.88283e+06
2.93055e+07
2.74795e+07
6.53041e+07
6.53251e+07
5.96901e+07
5.96974e+07
9.3893e+06
2.98677e+07
8.00234e+07
1.93652e+07
3.97851e+07
1.35339e+06
3.75831e+07
3.89882e+07
9.69384e+07
9.69218e+07
6.2397e+07
2.33596e+07
4.70364e+07
4.70487e+07
1.09521e+07
2.80157e+06
2.65598e+06
2.82746e+07
107163
106085
1.65463e+07
1.07954e+07
1.07958e+07
8.9138e+06
7.80182e+07
7.80277e+07
1.35913e+07
3.13124e+07
4.66544e+07
3.13427e+07
6.51891e+07
6.51404e+07
1.48559e+07
2.17677e+07
3.22477e+07
6.71525e+06
7.77115e+07
7.77213e+07
4.19079e+07
4.20373e+07
8.1129e+07
1.28452e+07
9.78122e+07
9.78235e+07
3.4108e+07
3.40995e+07
2.82022e+07
6.51588e+07
1.00336e+07
4.68657e+07
4.68666e+07
8.81457e+07
8.81386e+07
3.56591e+06
8.17664e+06
3.51212e+07
7.6342e+07
2.82169e+07
1.82949e+07
5.52848e+07
5.52897e+07
1.38981e+07
2.45887e+07
3.39638e+07
5.67504e+07
1.42738e+07
3.34592e+07
5.20858e+07
5.20782e+07
7.23146e+07
8.69037e+07
8.69109e+07
809273
805616
4.18481e+07
3.11601e+07
8.93309e+07
3.80176e+07
4.70554e+07
4.70583e+07
4.78281e+07
3.10616e+07
6.63967e+07
2.82315e+07
1.60638e+07
9.21379e+07
9.21455e+07
6.1253e+07
6.2118e+07
6.2129e+07
9.82051e+07
9.82164e+07
8.93159e+07
318038
316363
2.90006e+07
9.57912e+07
9.57985e+07
4.80302e+07
4.80379e+07
1.33867e+07
1.33851e+07
4.71211e+07
1.5635e+07
6.87417e+07
6.8734e+07
1.38046e+07
2.02741e+07
5.43475e+07
5.43423e+07
3.5373e+07
2.65559e+07
7.00355e+07
7.00285e+07
2.94651e+07
1.40851e+07
1.40823e+07
5.00328e+07
1.17841e+07
2.5721e+07
9.88043e+07
9.8788e+07
6.75859e+07
4.49078e+07
4.49022e+07
3.50955e+07
3.51039e+07
7.6204e+06
7.62145e+06
1.65896e+07
5.97102e+07
9.18294e+06
9.18401e+06
5.2041e+07
5.20487e+07
1.67992e+07
1.04206e+07
2.57296e+07
4.78322e+07
1.40225e+07
9.94143e+06
7.31272e+07
7.31138e+07
6.38084e+07
6.3802e+07
1.03505e+08
1.03516e+08
2.84739e+07
3.04845e+07
3.03395e+07
6.25285e+07
6.25214e+07
2.31043e+07
1.10676e+06
1.11188e+06
1.45428e+07
5.10583e+07
3.20221e+07
3.20314e+07
7.83069e+07
2.05817e+07
4.14889e+07
8.66899e+07
8.66969e+07
2.72749e+07
2.97407e+07
2.97758e+07
4.94034e+06
2.37373e+07
4.36964e+06
4.93228e+07
6.01185e+07
6.01331e+07
8.24053e+06
2.49744e+07
8.54352e+07
4.88657e+07
4.88756e+07
1.61946e+07
6.40209e+07
6.40145e+07
6.92132e+06
2.04227e+07
2.04297e+07
6.277e+06
1.65564e+07
8.1091e+06
6.67891e+07
6.67967e+07
6.48931e+07
6.48811e+07
1.2001e+07
8.08114e+07
8.0819e+07
7.98426e+06
1.45109e+07
7.98782e+06
2.66267e+07
2.66304e+07
2.79457e+07
2.74156e+07
1.60079e+07
4.77147e+06
2.82764e+07
2.55141e+07
6.46739e+07
6.46607e+07
2.26971e+07
2.66881e+07
5.42469e+07
2.07405e+07
7.45887e+07
6.05203e+07
2.09722e+07
2.19207e+07
7.22246e+06
1.30463e+07
8.89946e+07
8.90026e+07
8.81494e+07
8.81567e+07
4.3622e+06
3.50291e+06
3.51121e+06
3.65017e+07
2.20665e+07
2.82943e+07
3.94644e+06
1.07234e+07
6.69609e+07
7.22339e+06
3.26603e+06
8.98831e+07
8.98906e+07
2.37099e+07
2.06592e+07
7.13296e+07
3.69862e+07
3.69774e+07
6.12857e+07
7.41988e+07
1.6698e+07
5.23923e+07
2.21631e+07
4.59907e+07
9.13184e+06
6.71987e+06
1.93686e+07
2.04428e+07
9.39064e+07
9.39136e+07
3.86765e+06
3.87865e+06
2.46585e+07
4.32902e+06
4.47157e+07
4.4684e+07
1.96416e+07
2.42074e+07
2.4754e+07
5.04558e+07
5.04615e+07
7.16463e+07
6.89498e+06
3.94765e+07
2.79671e+07
8.19251e+06
5.72967e+07
1.14749e+07
3.43824e+07
3.24565e+06
3.93885e+06
2.35919e+07
4.42093e+06
2.02216e+07
4.24296e+07
8.96781e+07
8.9671e+07
3.89572e+07
3.89572e+07
2.45365e+07
2.45448e+07
1.19635e+07
4.95151e+07
3.47802e+07
3.40676e+07
3.40741e+07
7.04283e+07
2.78807e+07
3.87899e+06
3.48684e+07
3.12615e+07
2.03611e+07
1.41162e+07
3.44083e+06
3.43145e+06
3.31878e+07
3.31989e+07
9.54609e+06
9.54499e+06
5.31817e+07
4.39692e+07
2.60542e+07
2.26121e+07
2.80695e+07
2.15101e+07
780910
2.57954e+06
5.48876e+06
2.53376e+07
4.36898e+07
1.19053e+07
1.01412e+07
3.92108e+07
6.48278e+07
6.4843e+07
4.1137e+07
1.46217e+07
9.55488e+06
6.80291e+07
6.80214e+07
5.90578e+07
5.90517e+07
2.90665e+07
1.45225e+07
2.3825e+07
2.75184e+07
2.77252e+07
2.57602e+07
2.72965e+07
8.88732e+06
2.68103e+07
1.73201e+07
1.68977e+07
9.10343e+06
2.03099e+07
2.20888e+06
2.18998e+06
1.15803e+07
3.87528e+07
5.4743e+07
1.32056e+07
3.79368e+07
3.7929e+07
7.88503e+07
4.40542e+07
4.40475e+07
1.41527e+06
1.40809e+06
3.11855e+07
6.32758e+07
6.32696e+07
5.99917e+06
3.43127e+07
2.09019e+07
1.03257e+07
1.805e+07
1.80228e+07
5.37532e+07
5.37585e+07
1.91441e+07
8.47812e+06
3.87071e+07
7.92262e+07
7.92128e+07
6.35014e+07
6.34959e+07
8.93399e+06
3.85369e+07
3.85398e+07
2.9084e+07
2.61521e+07
7.52776e+07
7.52852e+07
1.37883e+07
2.77745e+07
3.18788e+07
1.04559e+07
29687.5
30521.3
4.84201e+07
4.84258e+07
4.15153e+07
4.15236e+07
8.23125e+06
8.23311e+06
2.26431e+07
3.91837e+06
3.92337e+06
4.70273e+07
6.55445e+07
3.07849e+07
4.52222e+07
4.52151e+07
5.41108e+06
5.52095e+07
6.47391e+06
1.88786e+07
6.03157e+07
4.89764e+07
4.89865e+07
2.66553e+07
1.75304e+07
5.95771e+07
8.73387e+07
8.73532e+07
5.44851e+07
6.31572e+07
6.31394e+07
3.87871e+07
3.87844e+07
20722.7
20250.2
2.58873e+07
3.16625e+07
1.74981e+07
8.51494e+07
2.88045e+07
3.19307e+07
2.58694e+07
2.58709e+07
8.33543e+07
8.33467e+07
2.06601e+07
7.54228e+07
7.54155e+07
3.43351e+07
4.06677e+07
4.06705e+07
7.35994e+07
3.28943e+07
6.92479e+07
6.92544e+07
6.62e+07
3.15148e+07
4.30289e+07
2.55976e+07
2.67776e+07
5.45053e+07
5.45107e+07
2.60881e+07
2.60882e+07
2.13043e+07
4.67923e+06
7.20448e+07
2.74444e+07
7.35945e+06
3.94627e+07
3.9613e+07
1.51698e+07
9.64334e+07
9.64406e+07
6.64048e+07
6.6411e+07
8.26532e+06
1.43502e+07
1.44178e+07
8.4381e+07
5.92562e+07
4.05304e+07
7.6977e+06
7.66269e+07
2.95869e+07
8.0767e+07
6.05432e+06
8.30732e+06
1.81498e+07
2.40926e+07
4.38715e+07
4.46182e+07
4.46115e+07
5.94722e+06
9.99308e+07
9.99428e+07
5.06243e+07
5.06156e+07
3.0806e+07
2.31322e+07
1.19456e+07
1.19796e+07
4.94985e+07
7.89445e+07
7.89368e+07
5.28194e+07
1.83553e+07
1.6162e+07
1.19244e+07
972345
969093
8.23863e+07
4.46335e+06
5.29848e+07
5.29819e+07
2.82734e+07
2.82809e+07
1.9919e+07
1.99329e+07
4.32446e+07
4.38731e+07
5.04463e+06
4.32906e+07
8.95612e+06
3.10385e+07
3.10978e+07
4.43184e+07
2.97456e+07
2.9751e+07
3.39005e+07
6.22315e+07
6.22419e+07
1.2205e+07
2.07702e+07
2.00481e+07
2.47161e+07
1.85565e+07
1.03165e+07
2.75616e+07
8.35374e+07
8.35448e+07
3.71546e+07
3.68296e+07
3.68389e+07
1.01101e+08
1.0111e+08
3.45982e+07
2.14473e+07
5.3466e+07
5.34702e+07
1.96896e+07
3.44255e+07
1.45119e+07
3.13879e+07
1.79543e+07
5.82301e+07
3.44112e+07
3.44049e+07
1.16218e+07
1.26182e+07
1.26209e+07
9.61668e+07