/*--------------------------------*- C++ -*----------------------------------*\
| =========                 |                                                 |
| \\      /  F ield         | OpenFOAM: The Open Source CFD Toolbox           |
|  \\    /   O peration     | Version:  v3.0+                                 |
|   \\  /    A nd           | Web:      www.OpenFOAM.com                      |
|    \\/     M anipulation  |                                                 |
\*---------------------------------------------------------------------------*/
FoamFile
{
    version     2.0;
    format      ascii;
    class       volScalarField;
    location    "7000";
    object      sigmaxy;
}
// * * * * * * * * * * * * * * * * * * * * * * * * * * * * * * * * * * * * * //

dimensions      [1 -1 -2 0 0 0 0];

internalField   nonuniform List<scalar> 
27023
(
-1.58996e+07
-1.59039e+07
-1.17481e+07
-1.17452e+07
-1.51486e+07
-1.51528e+07
-1.48315e+07
-1.48282e+07
-5.91651e+06
-5.91558e+06
-1.45239e+07
-1.45188e+07
-1.38015e+06
-1.38737e+06
-2.5302e+06
1.15047e+07
1.09968e+07
-2.53774e+06
-2.53937e+06
-2.01623e+06
-2.01468e+06
-1.33422e+07
-1.33392e+07
-1.34683e+06
-1.34357e+06
-312318
3.91237e+06
-1.3975e+06
3.59737e+06
-3.09704e+06
-690765
-2.47162e+06
-2.47085e+06
-2.13451e+06
-1.62904e+06
-1.84181e+06
-1.07592e+06
-1.07341e+06
-5.90338e+06
-5.90334e+06
-1.17631e+07
-1.1766e+07
-1.97565e+06
-1.5345e+07
-1.53492e+07
-2.45868e+06
-2.45711e+06
-1.61421e+06
-1.61275e+06
-2.67644e+06
-770932
-769385
-2.34491e+06
-86861.7
-86623.8
-2.16619e+06
-1.76753e+06
-1.57904e+06
-2.9714e+06
-1.21472e+07
-1.21444e+07
-1.6497e+06
-2.02745e+06
-860482
-3.20263e+06
-303060
-1.79156e+06
94495.2
4.09445e+06
-2.8743e+06
-1.44817e+06
-1.44553e+06
-4.3304e+06
-4.32711e+06
-1.52085e+06
-1.52071e+06
-355288
-353022
-6.05243e+06
-6.05327e+06
1.52092e+06
-1.37711e+07
-1.37659e+07
-4.78516e+06
-4.78194e+06
-775270
-775221
-1.79132e+06
-3.02884e+06
-2.89262e+06
-2.77629e+06
-1.55517e+07
-1.55472e+07
8.55084e+06
-2.17478e+06
-419718
-419309
2.10297e+06
-3.21905e+06
-3.49529e+06
-1.88555e+06
-174600
-78547.5
-9.25443e+06
-9.25008e+06
-2.08671e+06
-9.45989e+06
-9.45679e+06
-2.28452e+06
-1.87546e+06
-3.62269e+06
-9.90161e+06
-9.89845e+06
-399172
-396571
-889587
-889391
2.95744e+06
509004
-1.24814e+06
-2.06637e+06
-1.46711e+06
-3.00288e+07
-3.00341e+07
-1.42477e+07
-1.42458e+07
-1.50062e+07
-1.50016e+07
-9.99732e+06
-9.99271e+06
-1.74468e+06
-1.55355e+06
-1.54775e+06
-1.1588e+06
-2.55154e+06
65602.1
65612.1
3.7507e+06
-2.89689e+06
-2.89541e+06
-1.64355e+07
-1.64402e+07
3.6307e+06
-1.44896e+07
-1.44858e+07
-575845
-2.12809e+06
206502
-2.53938e+06
-2.36142e+07
-2.36093e+07
-2.00736e+07
-2.00692e+07
-3.12386e+06
-862326
-647318
-635123
-2.0228e+06
-2.98598e+06
-2.98452e+06
-1.82004e+06
-2.91921e+06
-1.41872e+06
-3.27925e+06
-2.11738e+07
-2.11758e+07
-1.47728e+07
-1.47783e+07
2.57703e+06
2.7837e+06
-3.97915e+06
-7.53695e+06
-7.53787e+06
-3.05717e+06
-2.79105e+06
-2.58459e+06
-2.0589e+06
3.38686e+06
-3.24499e+06
4.67612e+06
-2.54323e+06
-1.53266e+07
-1.53313e+07
-2.13088e+06
-2.12489e+06
-1.70182e+06
-402468
-401121
-1.57722e+06
-3.13171e+06
-1.61364e+07
-1.6142e+07
3.32234e+06
-2.73442e+06
-1.44615e+07
-1.44594e+07
-597668
-1.68522e+07
-1.68579e+07
885219
-2.6262e+06
3.70396e+06
-995694
-995163
-1.44337e+07
-1.44378e+07
58891.3
-1.88085e+06
-384610
-384110
-188435
-187487
9.60097e+06
-722606
-5.66579e+06
-5.66195e+06
2.90513e+06
3.52505e+06
-3.68441e+06
-3.17764e+06
-3.17816e+06
-1.51066e+06
-2.91792e+07
-2.91842e+07
-1.47786e+06
-4.38318e+06
-4.38207e+06
-4.9131e+06
-4.90913e+06
-2.84318e+06
-2.84448e+06
-2.8277e+06
-3.45161e+06
-3.45061e+06
-1.64448e+06
-2.48642e+06
-2.48589e+06
-212628
-2.06761e+06
-1.70154e+07
-1.7018e+07
3.15662e+06
-2.03049e+06
-2.10676e+06
-2.60954e+06
8.41702e+06
-3.89733e+06
5.28265e+06
-831414
-2.08866e+06
-7.50013e+06
-7.5019e+06
-2.96296e+06
7.89879e+06
-347910
-1.12638e+06
-1.52154e+06
-588696
-2.79568e+06
-2.7952e+06
3.93544e+06
6.27417e+06
523586
-1.79518e+06
-1.79465e+06
-1.42712e+07
-1.42677e+07
-1.72941e+06
8.53011e+06
-2.63429e+07
-2.63387e+07
-1.14884e+06
-1.81551e+06
-1.61691e+06
-1.86295e+06
-2.58957e+06
-2.04453e+07
-2.04471e+07
-2.02619e+06
-2.02789e+06
-2.64982e+06
-2.15521e+06
-3.20031e+06
-3.06696e+06
-73798.3
-73179
-2.34784e+06
-2.00936e+06
1.13407e+07
-4.45059e+06
-1.52009e+06
-2.99151e+06
-5.24697e+06
-5.2485e+06
-1.11432e+06
-1.11439e+06
-2.16463e+06
-2.10201e+06
-983124
-983299
-1.67645e+06
1.0756e+07
-1.26709e+07
-1.26759e+07
-365528
-7.2113e+06
-7.20747e+06
2.4879e+06
-2.64699e+06
-3.83784e+06
-1.93675e+06
22459.9
21477
-2.48519e+06
-2.48681e+06
-2.57338e+06
-2.38449e+06
-2.38711e+06
230410
-2.90532e+06
-2.40805e+06
-2.41792e+06
2.37419e+06
5.82224e+06
1.45575e+06
-3.02826e+06
-419862
-2.44518e+06
1.69957e+06
-3.46661e+06
5.82103e+06
-3.38298e+06
-876009
-2.13468e+06
-1.74338e+06
-2.23859e+07
-2.23906e+07
-838045
1.01735e+07
-7.56729e+06
-7.56359e+06
-680415
-659920
-176879
-175990
4.98486e+06
-1.79954e+07
-1.79908e+07
-1.1582e+06
-1.54594e+06
-2.5808e+06
-2.59884e+06
-3.76816e+06
-3.76724e+06
-6422.47
-6353.1
1.24262e+07
-6.55993e+06
-6.56115e+06
-2.17945e+06
-117283
-579335
-579749
-2.21339e+07
-2.2139e+07
-3.34945e+06
-2.7923e+06
1.05862e+07
-1.80903e+07
-1.80947e+07
-5.98791e+06
-5.98878e+06
9.32703e+06
-2.30081e+06
1.7014e+06
-1.82305e+06
-1.8917e+06
1.45893e+06
-598532
-827566
-1.94081e+06
-827700
-1.34429e+07
-1.344e+07
4.93974e+06
2.66676e+06
-2.03346e+06
-2.4073e+06
-746015
4.09334e+06
6.24113e+06
-2.5689e+06
-146465
-3.77554e+06
1.1448e+07
-3.33305e+06
-1.82733e+06
-1.70869e+06
-678574
-1.6795e+06
-5.44426e+06
-5.44031e+06
7.86521e+06
3.28619e+06
-1.54821e+06
-1.77716e+07
-1.77758e+07
1.47447e+06
-2.4875e+06
334637
-221844
525634
-406683
-404907
-3.45548e+06
-1.68899e+06
-4.69942e+06
-2.26525e+06
-1.71992e+06
-1.75091e+06
4.1895e+06
-1.19962e+06
4.60845e+06
3.41024e+06
-1.53259e+06
-911945
-1.33293e+06
-1.33333e+06
-238532
-3.46406e+06
-1.71878e+06
2.94639e+06
-1.33068e+06
-1.33028e+06
-3.42945e+06
-3.43209e+06
-1.51274e+06
4.1348e+06
-7.65102e+06
-7.65086e+06
-83444.5
-85662.1
-2.75016e+06
-2.748e+06
-214531
-215614
3.85685e+06
-2.65495e+06
-2.43108e+06
1.03519e+07
8.76638e+06
-1.99898e+07
-1.99953e+07
-2.05118e+07
-2.05171e+07
-1.87324e+06
-1.87014e+06
-2.41046e+07
-2.40994e+07
4.98057e+06
4.08334e+06
-1.08292e+06
-2.67207e+06
5.26212e+06
-198465
-2.54391e+06
-1.52117e+07
-1.52142e+07
-1.44746e+06
-1.63143e+06
-3.06442e+06
-1.85646e+06
-2.05693e+06
2.59602e+06
-388847
-5.33272e+06
-5.33083e+06
-382031
-709327
-9.98196e+06
-9.97884e+06
-4.18859e+06
-4.18761e+06
-1.18731e+06
6.04742e+06
-86112.4
4.5065e+06
154934
-3.16126e+06
-1.66455e+07
-1.66498e+07
-2.36855e+06
-4.59593e+06
-727818
-1.70974e+06
-1.71256e+06
-1.9371e+07
-1.93663e+07
6.26081e+06
-426948
-2.72238e+06
-1.01364e+07
-1.01407e+07
-2.34702e+06
1.07928e+07
-589061
-590885
1.95822e+06
-2.48965e+07
-2.48917e+07
-1.49185e+07
-1.49131e+07
-74990
-2.82919e+07
-2.82959e+07
-1.94096e+06
-1.50871e+06
-1.62345e+06
-1.62277e+06
-2.32676e+06
-1.58852e+06
-1.58871e+06
-992381
-6.145e+06
-6.14739e+06
-2.69376e+06
-2.69616e+06
-923989
-3.13755e+07
-3.13703e+07
-1.80196e+06
-2.19955e+06
-1.25404e+06
2.51053e+06
-3.60951e+06
-3.60414e+06
-7.02977e+06
-7.03104e+06
-2.61408e+06
-2.15991e+06
1.48979e+06
-1.46043e+06
1.20761e+06
2.61509e+06
-3.31582e+06
-7.45708e+06
-7.45722e+06
-1.05077e+06
-418572
-418708
-2.92893e+06
-625043
-6.96801e+06
-6.97169e+06
-1.05843e+06
-1.54682e+06
-1.56462e+06
1.33549e+06
4.92697e+06
-2.19218e+06
3.96187e+06
-2.80513e+06
-607428
-608549
-2.00228e+06
1.2007e+07
-3.21771e+06
-3.21629e+06
-2.7237e+06
-2.60011e+06
-2.59924e+06
-1.86607e+06
-2.24476e+07
-2.24427e+07
-1.62925e+07
-1.62984e+07
-2.60508e+07
-2.60562e+07
-1.38129e+06
2.22104e+06
2.17748e+06
-2.56791e+06
-2.45357e+07
-2.45408e+07
-1.83055e+06
8.54018e+06
1.80361e+06
-2.51874e+06
1.16177e+07
-1.82097e+06
1.03556e+07
-185639
-487933
-484770
-3.19212e+06
-303153
-298869
-3.14775e+06
-4.00169e+06
-4.00505e+06
-1.83666e+06
-3.20521e+06
-1.8308e+06
-1.83077e+06
-1.59991e+06
-1.59937e+06
-989094
4.21409e+06
2.94429e+06
-4.46199e+06
-4.46e+06
-2.75193e+06
-2.75127e+06
-3.39349e+06
-3.02048e+06
-833247
-900061
223142
224531
66135.5
-11842
-127385
-128024
-11910.2
-2.15803e+06
-1.25887e+06
-1.2643e+06
-2.14038e+07
-2.14085e+07
-1.52154e+07
-1.52198e+07
-2.30288e+07
-2.30238e+07
7.57154e+06
-3.06522e+06
-3.06132e+06
-1.92896e+06
-4.06083e+06
-2.75481e+06
-2.7587e+06
-2.26894e+06
-3.69294e+06
-3.69067e+06
-1.79318e+06
-1.96323e+06
-1.08145e+06
-2.5151e+07
-2.51562e+07
-2.36863e+06
-3.18181e+06
3.3342e+06
-3.83264e+06
-5.75301e+06
-5.75544e+06
1.15774e+07
699145
-5.71812e+06
-5.7192e+06
-241301
-242497
-2.755e+06
-2.75167e+06
-1.99298e+06
-1.61843e+06
-934137
-934009
1.69639e+06
-606561
6.71256e+06
-115213
-1.16063e+06
-2.66169e+06
-2.14784e+06
-1.72705e+06
3.26053e+06
-2.22079e+06
-1.95009e+06
-1.68902e+06
-1.3386e+06
5.57428e+06
-3.13341e+06
-107505
-108344
-4.07013e+06
-4.06687e+06
1.28305e+06
948685
-2.5073e+06
-1.34886e+06
-271537
-1.49522e+06
176045
-1.80832e+06
-200024
209685
4.18708e+06
-1.28223e+07
-1.28176e+07
2.5209e+06
-1.55499e+06
-2.98838e+06
-3.13565e+06
-5.78172e+06
-5.77996e+06
-396374
-396627
-12369.2
-12412.4
-1.70859e+06
9.85404e+06
-1.58874e+06
5.3385e+06
300616
298571
-1.86376e+06
-5.92193e+06
-5.92256e+06
-2.20891e+06
-2.20944e+06
-1.21065e+06
-5.2953e+06
-5.29267e+06
9.36039e+06
-1.69641e+06
-2.18934e+06
-3.38267e+06
-2.46821e+06
-2.23698e+06
-2.38601e+06
-2.38531e+06
-1.96555e+06
1.34648e+06
-2.07583e+07
-2.07534e+07
-1.5618e+06
-726144
5.40213e+06
-720392
-2.10087e+06
-2.0591e+06
-2.12468e+06
2.70357e+06
-2.52851e+06
1.1072e+07
-2.49762e+06
2.71363e+06
-307722
-170979
-8.60741e+06
-8.60289e+06
-731056
-731188
-3.08001e+06
-2.04134e+06
-5.47539e+06
-5.47755e+06
-1.92393e+06
-1.56638e+06
-3.16193e+06
-1.3485e+06
-2.8617e+06
-1.79655e+07
-1.7961e+07
-2.44983e+06
-579253
-578442
-1.10011e+06
-1.1004e+06
-1.222e+06
-2.84173e+06
-2.77096e+06
-320545
-1.49297e+07
-1.49266e+07
-2.45482e+06
5.92721e+06
-3.24272e+06
-1.77633e+06
-1.82606e+06
4.65321e+06
4.76258e+06
5.24652e+06
-2.74459e+06
-1.69399e+06
-1.69376e+06
-1.73643e+07
-1.73594e+07
-2.6873e+06
-2.60935e+06
-784148
8.54373e+06
-2.1904e+06
-2.19002e+06
-1.93889e+06
-2.21804e+06
-1.56309e+06
-1.52135e+06
-1.58291e+06
-3.362e+06
-3.36194e+06
-1.82177e+06
-1.67089e+06
-1.5505e+07
-1.55012e+07
2.93095e+06
-3.5539e+06
5.43032e+06
-4.40458e+06
-4.40406e+06
-7.54569e+06
-7.54713e+06
2.78136e+06
-1.27533e+07
-1.27577e+07
-1.77418e+06
-2.19674e+06
-3.56123e+06
-3.84318e+06
-2.2151e+06
-2.21453e+06
-3.59443e+06
-2.29224e+06
-2.29564e+06
-193279
-193097
3.31947e+06
3.16793e+06
-2.52723e+07
-2.52671e+07
-1.8217e+07
-1.82218e+07
-525562
-1.30363e+06
-1.74712e+07
-1.74671e+07
-1.4261e+06
3.00462e+06
-2.03628e+07
-2.03578e+07
-1.92047e+06
-1.91948e+06
-5.79248e+06
-6.14765e+06
-6.14977e+06
-66058
-66064.4
-5.79613e+06
-2.85027e+06
-1.81115e+06
-2.12124e+06
-2.47738e+06
-2.47601e+06
-554692
3.86476e+06
-2.81349e+06
-549609
1.34965e+06
1.61057e+06
-2.92001e+06
138031
138776
3.96299e+06
3.76416e+06
-1.70879e+06
-26206.2
-31120
-3.35006e+06
395891
-133764
-134036
4.66681e+06
3.61038e+06
-3.27532e+06
-1.55547e+07
-1.55509e+07
-4.99725e+06
-1.32293e+06
-5.48348e+06
-1.2469e+06
-2.63472e+07
-2.63418e+07
-1.69628e+06
5.33736e+06
-4.96003e+06
-2.82358e+06
-2.76093e+06
-5.48596e+06
-2.07775e+06
-1.97401e+07
-1.97354e+07
-1.29073e+06
-1.29148e+06
-1.57424e+06
2.28337e+06
-1.81356e+06
-1.57952e+07
-1.57897e+07
-3.7696e+06
-3.77114e+06
9.78499e+06
-1.49423e+06
-2.91713e+06
-2.91573e+06
-2.7043e+06
-6.06206e+06
-6.06203e+06
-2.5632e+06
-3.96067e+06
-687341
-2.61954e+06
-2.52896e+06
-1.94535e+06
-1.68719e+06
-1.78517e+06
-1.92554e+06
-2.77438e+06
-2.77388e+06
-3.51502e+06
8.27848e+06
-549472
-2.01592e+06
-3.60392e+06
1.18067e+07
2.28909e+06
-3.20051e+06
-3.46904e+06
1.0403e+07
4.93584e+06
5.33311e+06
1.81432e+06
207887
-3.3314e+06
-2.33819e+06
-7.80715e+06
-7.8074e+06
5.16755e+06
-5.79682e+06
-5.79368e+06
-2.46606e+06
-372772
-3.16087e+06
-3.15529e+06
2.65868e+06
-4.64414e+06
-4.64246e+06
6.29857e+06
-2.61101e+06
-3.9765e+06
-5.8799e+06
27753.9
5.89737e+06
378747
1.9816e+06
-3.27311e+06
-2.00809e+06
-1.71871e+07
-1.71826e+07
-2.134e+06
4.81054e+06
-993182
-994583
-1.62009e+06
-2.5335e+06
-1.07655e+06
-2.32918e+06
-1.88363e+06
-1.87906e+06
-1.55376e+06
1.44026e+06
-2.87593e+06
-279454
-278937
-477651
-2.01635e+06
9.88517e+06
-2.01026e+06
7.38383e+06
-2.29049e+06
5.44109e+06
-2.90575e+06
-1.34457e+06
-1.34331e+06
-2.06906e+06
-1.43468e+06
7.94373e+06
7.91799e+06
-2.91931e+06
-1.56982e+07
-1.57007e+07
4.31307e+06
-1.44119e+06
-1.89377e+06
-8.13451e+06
-8.13485e+06
-3.22754e+06
1.03541e+07
-3.33294e+06
-4.74498e+06
-4.7465e+06
-656228
1.31366e+06
1.30136e+06
-1.57576e+07
-1.5758e+07
-2.76486e+06
-2.47314e+06
-355477
-355141
2.84454e+06
-1.51054e+06
-3.08185e+06
-1.70612e+06
-1.70561e+06
-3.19133e+06
-2.54452e+07
-2.54411e+07
-3.91036e+06
-3.13845e+06
-778227
-1.13545e+07
2.40156e+06
-3.21144e+06
-1.13585e+07
-598914
359297
-1.36062e+06
-1.73695e+06
-1.7401e+06
1.45025e+06
1.35323e+06
-1.35998e+06
3.54565e+06
-2.56639e+06
-2.04748e+06
-3.44467e+06
-2.48161e+06
2.51825e+06
-2.866e+06
-3.02025e+06
9.9258e+06
1.40064e+06
7.33469e+06
-109167
-1.40584e+06
-1.16266e+06
-1.43957e+06
8.49072e+06
-1.80541e+06
-1.92556e+06
-3.11895e+07
-3.11946e+07
1.04803e+07
-3.96353e+06
-1.2487e+06
-1.2437e+06
-3.63257e+06
-3.63109e+06
-682366
-2.56299e+06
-1.15527e+06
-3.91465e+06
-3.91683e+06
-2.03167e+06
-2.03137e+06
-3.02635e+06
9.45307e+06
-3.09437e+06
9.52832e+06
-1.91111e+06
1.2353e+07
4.10487e+06
5.20167e+06
-1.23876e+06
-2.25968e+06
-2.25568e+06
2.86438e+06
2.9432e+06
5.76802e+06
-1.68939e+06
-1.14592e+06
-1.14561e+06
1.0144e+07
1.67137e+06
4.8579e+06
-2.28245e+06
-1.37736e+06
-3.08339e+06
-893309
-1.76775e+06
-1.78474e+06
-2.31716e+06
-3.39478e+06
-1.62869e+06
-3.5422e+06
-3.53813e+06
-2.05239e+06
4.46515e+06
-3.4147e+06
-1.60495e+06
-1.12586e+06
-47939
-48462.2
5.31402e+06
93864.2
-4.90918e+06
-4.90967e+06
-6.42607e+06
-6.42607e+06
9.01992e+06
-3.64039e+06
-3.35002e+06
-26431
-2.15697e+07
-2.15748e+07
-7.31775e+06
-7.31569e+06
9.04551e+06
-2.12939e+06
-2.12888e+06
-1.09728e+06
-814764
-406465
-155534
-154699
5.8927e+06
7.35157e+06
786160
-1.96569e+06
-1.34475e+07
-1.34527e+07
4.83505e+06
-2.09597e+06
-2.39457e+06
-2.88927e+06
-2.94493e+06
-790580
2.94413e+06
2.95265e+06
-2.34764e+06
-2.34814e+06
-245320
1.07788e+06
1.07306e+06
-4.67828e+06
-4.67969e+06
108723
-2.3321e+06
-1.50211e+06
-2.43239e+06
-9.43692e+06
-9.43597e+06
3.87916e+06
8.32717e+06
-561781
-2.92956e+06
-1.83238e+07
-1.83283e+07
-1.78982e+06
-972211
-426641
-4.27172e+06
-4.27039e+06
-2.24148e+06
1.75877e+06
-2.65181e+06
-4.03396e+06
-2.19153e+07
-2.19107e+07
-2.8219e+06
-3.52853e+06
-3.52611e+06
-2.65812e+06
-856023
-716596
-499054
4.16583e+06
-2.30434e+06
-3.0242e+06
-1.85046e+06
-1.63233e+06
5.71583e+06
3.65469e+06
-126730
-126285
-854108
-6.71578e+06
-6.71536e+06
-1.67149e+07
-1.67094e+07
-2.73445e+06
-2.04382e+07
-2.0433e+07
-2.61754e+07
-2.61789e+07
-27289.3
-27285.4
-2.05289e+06
-1.08443e+06
-1.08414e+06
-1.8394e+06
-1.91771e+06
-1.68688e+06
-1.43767e+06
-3.02061e+06
-3.54195e+06
-1.45222e+06
-1.44257e+06
-8.62381e+06
-8.62937e+06
-1.40624e+06
-1.29065e+06
5.8035e+06
-1.02749e+06
-2.00745e+06
-1.73288e+06
-2.11431e+06
1.11972e+07
-1.97607e+06
-3.85831e+06
-3.85899e+06
-1.11886e+06
2.76585e+06
-1.19767e+06
-1.51693e+06
4.06811e+06
6.62879e+06
117023
117489
3.53601e+06
-1.60297e+06
1.17118e+06
1.10014e+06
-2.20315e+06
-2.10759e+06
178894
-775079
-778876
-2.41044e+06
5.07304e+06
30264.3
-9.08868e+06
285482
182251
-9.09451e+06
-2.26433e+06
-1.83099e+06
1.66852e+06
-1.96981e+06
4.10479e+06
-2.40928e+06
-2.48409e+06
-2.75211e+06
-3.29912e+06
-2.65387e+06
-1.41757e+06
30070.6
-2.04736e+06
-2.13439e+06
-2.13348e+06
-1.50638e+06
1.04244e+07
3.2921e+06
5.67607e+06
-1.38986e+06
-7.51612e+06
184881
787529
-1.98312e+06
-2.26356e+06
-7.52603e+06
-3.4689e+06
-2.70049e+06
-2.25556e+06
-3.36892e+06
-116631
-260526
-2.23371e+06
-268486
-266609
-1.32375e+06
-1.53496e+07
-1.53537e+07
4.12464e+06
-1.3268e+07
-1.32618e+07
1.09478e+07
-1.71395e+07
-1.71351e+07
-1.64924e+06
-578175
-1.44265e+06
258387
258717
-3.75521e+06
-1.7209e+06
-733943
-1.90603e+06
-1.57009e+07
-1.5695e+07
-5.78264e+06
3.48972e+06
4.80116e+06
-1.76421e+06
-1.75531e+06
-1.7442e+06
-35394.7
-35294.3
4.35279e+06
-2.09583e+06
-2.5756e+07
-2.57507e+07
-6.57772e+06
-6.57452e+06
-1.0356e+06
-1.71976e+06
-1.05651e+06
-6.76115e+06
-6.75665e+06
-3.20433e+06
-234212
-233751
-2.10114e+06
-2.09933e+06
-6.49534e+06
-6.49782e+06
-873085
-1.732e+06
-1.73148e+06
-1.53416e+07
-1.53416e+07
-2.73704e+06
-2.84567e+06
-12930.4
-807048
4.87584e+06
3.81776e+06
-811815
2.42408e+06
1.36195e+06
-2.54317e+06
-2.70421e+06
-2.35665e+06
-2.04478e+06
-2.04434e+06
1.44141e+06
-2.67087e+07
-2.67123e+07
-8.86244e+06
-8.8598e+06
3.99829e+06
-3.28816e+06
-3.2911e+06
-1.10561e+06
-1.09855e+06
-1.80732e+06
-952882
-933905
-3.20782e+06
-407415
-407498
-2.46279e+06
-1.41141e+06
-1.85417e+06
1.07887e+07
2.57161e+06
2.65534e+06
-2.05165e+06
-1.76735e+06
5.1085e+06
-2.93859e+06
14153
14124.5
-8.99474e+06
-8.99657e+06
-2.08706e+06
-1.70486e+06
-2.29883e+07
-2.29834e+07
-2.09849e+06
333665
-3.20797e+06
741404
467560
3.6277e+06
3.65865e+06
-1.41559e+06
-3.40914e+06
-1.98658e+07
-1.98704e+07
-1.73097e+06
-1.73315e+06
-2.81525e+06
-2.81665e+06
-1.34347e+06
-1.33801e+06
-2.70062e+06
-1.59375e+06
-2.02687e+06
-2.75868e+06
333370
9.79004e+06
-2.13818e+06
-2.13962e+06
-2.48985e+06
-1.92856e+06
-2.11708e+06
-1.02747e+07
-1.02786e+07
6.43608e+06
-2.89524e+06
-1.02758e+06
-3.63981e+06
-3.63761e+06
1.78426e+06
1.18212e+07
-2.57003e+06
-2.57152e+06
7.16668e+06
-3.52671e+06
-3.53045e+06
-1.69398e+06
-780229
2.68736e+06
-1.23626e+06
-1.42602e+06
-1.40015e+06
-571886
-296134
-1.84851e+07
-1.84808e+07
-2.59645e+06
-1.93791e+07
-1.93749e+07
3.90096e+06
-4.71721e+06
-4.71469e+06
-1.7949e+07
-1.79535e+07
-2.19393e+06
-6.33324e+06
-6.34053e+06
-2.47508e+06
-2.47614e+06
-947164
3.42945e+06
-1.44748e+06
-2.22198e+07
-2.22152e+07
-1.55346e+06
-1.84529e+06
1.11331e+06
1.11925e+06
-3.25896e+06
-2.91035e+07
-2.90979e+07
4.2341e+06
-2.55778e+06
-1.53027e+06
-1.53008e+06
-270154
-268380
-5.25502e+06
-6.79584e+06
-6.79267e+06
-1.22468e+06
-795390
-790438
-4.04456e+06
-4.04512e+06
8.24454e+06
-110942
-2.81222e+07
-2.81168e+07
-1.14332e+07
-1.14352e+07
2.99639e+06
7.50802e+06
-7.00332e+06
-7.00325e+06
-1.61843e+06
-107818
-107200
-1.11916e+06
-1.11919e+06
5.99391e+06
-1.00721e+07
-1.00706e+07
-1.51715e+06
-5.81617e+06
-5.8188e+06
1.49445e+06
1.04059e+07
-2.99066e+06
-2.99149e+06
-2.10288e+07
-2.10341e+07
-1.05887e+06
1.00766e+07
-1.12396e+06
7.29455e+06
-2.02498e+06
2.14953e+06
5.86202e+06
4.2755e+06
-3.0936e+06
-3.14058e+06
-3.1045e+06
-3.1058e+06
-1.49433e+06
-1.49393e+06
-1.80161e+06
-2.59699e+06
-3.54981e+06
1.19187e+07
-574306
-2.53446e+06
-1.58517e+06
-1.23088e+06
-2.35232e+06
-2.60039e+06
-2.59783e+06
-2.09957e+07
-2.10003e+07
3.96523e+06
-3.14554e+06
-110254
8.13172e+06
9.58936e+06
-1.64715e+06
2.05263e+06
-1.21225e+06
-1.67523e+06
-1.66991e+06
6.29334e+06
-983115
-983670
107574
-2.80026e+07
-2.80079e+07
-1.45149e+07
-1.452e+07
8.64193e+06
-4.33727e+06
-4.34056e+06
-9.40285e+06
-9.40167e+06
-6.6155e+06
-6.61106e+06
-2.55447e+07
-2.55395e+07
-1.30833e+06
798604
-1.55027e+06
-2.27716e+06
-1.77693e+07
-1.77733e+07
-4.60813e+06
-4.6116e+06
-1.28867e+06
-1.24295e+06
1.49978e+06
-997060
-996841
-2.62461e+06
-2.32941e+06
-2.15222e+06
3.96587e+06
-2.45509e+06
-2.68052e+06
-1.63038e+06
796880
790112
-2.88608e+06
-3.02214e+06
-2.9601e+06
-1.73084e+06
-1.73338e+06
-625131
-1.91481e+06
4.62956e+06
-2.01197e+06
-1.75518e+06
-1.42493e+06
-2.14889e+06
-1.23136e+07
-1.23106e+07
-3.73924e+06
-3.73788e+06
-1.91079e+07
-1.91036e+07
-2.00377e+06
-3.36101e+06
-927532
6.58795e+06
3.16448e+06
-1.30039e+06
-1.50947e+06
-3.36634e+06
316728
-65004.4
-65677.1
-2.78101e+06
-2.78263e+06
-1.55966e+06
5.85603e+06
-2.717e+06
-2.72067e+06
-2.75734e+07
-2.75678e+07
-806473
-806246
247344
-1.04251e+06
-1.00441e+06
1.38118e+06
1.41568e+06
1.19524e+06
-1.81052e+06
-1.81108e+06
-2.61045e+06
-2.03056e+06
-1.33158e+07
-1.3313e+07
-818535
-908568
-1.99518e+06
-3.42783e+06
-2.74686e+06
-1.79218e+06
3.43012e+06
3.46361e+06
-2.30401e+07
-2.30359e+07
-2.1528e+06
-3.53201e+06
-3.53092e+06
-1.60204e+07
-1.60158e+07
-225305
2.10278e+06
2.1508e+06
-1.30772e+07
-1.3082e+07
2.62014e+06
-1.64649e+06
762171
-714755
-717584
-6.93234e+06
-6.93219e+06
1.22217e+07
549114
-2.54169e+06
-2.5446e+06
-1.38193e+06
-2.28003e+06
-1.04334e+07
-1.04357e+07
-2.78313e+06
-1.20112e+06
-1.34173e+06
-3.13335e+06
-6.7246e+06
-4.95307e+06
-4.95609e+06
5.08693e+06
-5.40001e+06
-5.3972e+06
1.06337e+07
236924
-6.72876e+06
-2.25871e+06
-2.26115e+06
-1.48987e+06
-85655.3
2.87352e+06
-3.63557e+06
-3.63475e+06
4.4389e+06
-2.79337e+06
-2.20441e+06
-2.20284e+06
-551116
-1.89183e+06
-1.85546e+06
-5.25723e+06
-2.32608e+06
-2.29782e+06
-2.20897e+06
-2.20674e+06
9.97087e+06
-719149
-1.83712e+06
-1.50351e+06
-2.22368e+06
1.98609e+06
-477311
-3.35352e+06
5.37457e+06
-1.55605e+06
-1.00631e+06
-2.48714e+07
-2.48676e+07
-6.46166e+06
-1.98769e+06
-1.98918e+06
-1.18395e+07
-1.18331e+07
-516290
-1.52244e+07
-1.52304e+07
-1.58554e+06
86749.1
-3.28548e+06
-458431
-457675
5.31344e+06
-3.49522e+06
-3.49697e+06
716704
-2.26021e+06
1.31291e+06
1.13222e+07
-1.80054e+06
-3.06469e+06
-5.83459e+06
-5.84313e+06
-2.25435e+07
-2.25387e+07
-2.39534e+06
-3.57277e+06
-3.81685e+06
-7.47559e+06
-7.48054e+06
-3.45474e+06
-4.63665e+06
-4.63624e+06
-1.36869e+06
-1.95593e+06
-1.9562e+06
-2.84063e+06
2.08071e+06
-2.7068e+06
-2.45079e+06
-2.46287e+06
-1.33812e+06
-1.33375e+06
-72536.8
-3.06372e+06
-2.23061e+06
-2.09845e+06
-2.41387e+06
-2.57489e+06
-2.39361e+06
-2.74259e+06
-1.54847e+06
9.89349e+06
-1.37827e+06
-1.3702e+06
4.81407e+06
-1.20758e+07
-1.20726e+07
-1.33769e+06
-1.32408e+06
-1.40281e+06
36371.4
-1.50142e+06
765110
3.60401e+06
3.8554e+06
-528070
-2.05625e+06
-2.13484e+06
3.69075e+06
-2.4884e+06
-3.56671e+06
-2.59179e+06
-2.6783e+06
-2.67808e+06
6780.61
9122.05
-103560
-70065.6
7.42119e+06
-2.01723e+06
-2.02036e+06
-3.10252e+06
-2.28802e+06
-1.23261e+06
-5.57152e+06
-5.57455e+06
1.02517e+06
-2.54663e+06
-1.90567e+06
-2.9252e+06
-960550
6411.14
6353.63
-1.34602e+06
-4.10717e+06
-1.89135e+06
1.51213e+06
-2.23243e+06
-9.18822e+06
-9.18628e+06
-4.19453e+06
-4.19909e+06
5.36447e+06
-1.32268e+06
-1.47216e+06
-1.47179e+06
-2.40433e+06
-2.40836e+06
-1.97264e+06
8.1503e+06
-2.9326e+06
-2.05824e+06
-3.37297e+06
-2.98083e+06
-1.6502e+06
-1.46912e+06
-1.58652e+06
-2.58996e+07
-2.59049e+07
-2.35653e+06
-1.73378e+07
-1.73333e+07
-694102
-685283
227777
-818105
-859305
2.39986e+06
9.54048e+06
-2.95596e+06
8.60968e+06
278911
-5.12705e+06
-5.12634e+06
3.1347e+06
276060
-2.86592e+06
-2.868e+06
-664566
-3.52066e+06
-1.56533e+06
-2.43887e+06
-2.00098e+07
-2.00056e+07
-1.38162e+06
-1.73656e+07
-1.73707e+07
558461
-2.67527e+06
1.82032e+06
-1.7118e+06
-1.97201e+06
-1.9694e+06
-916931
-1.21624e+06
-2.70212e+06
-1.43973e+06
-1.44052e+06
-2.97157e+06
-2.96763e+06
3.26135e+06
3.33588e+06
-2.28186e+06
9.1874e+06
-2.28249e+06
-2.80262e+06
-2.6027e+06
-2.52683e+06
-1.92622e+06
-3.25106e+06
-3.90664e+06
-3.91029e+06
-3.13528e+06
14428.8
-4.14708e+06
-4.15009e+06
-2.14685e+06
1.03347e+06
-1.76837e+06
4.82376e+06
1.06386e+06
-1.33794e+06
-1.33856e+06
-1.94526e+06
-423219
-5.60018e+06
-5.60631e+06
4.0994e+06
-1.77958e+06
-2.40959e+06
-47879.4
-47253.1
2.16918e+06
-1.45303e+07
-1.45242e+07
-3.37438e+06
6.30965e+06
-1.89488e+06
-1.21521e+06
-1.26943e+06
1.20407e+06
14153.2
-325781
-326681
-3.63172e+06
-2.70406e+06
-1.60232e+06
-277903
-277065
1.77068e+06
-2.68679e+06
-2.68903e+06
-1.73378e+07
-1.73335e+07
-2.52847e+07
-2.52899e+07
-2.83905e+06
-1.80133e+06
-1.79764e+06
-2.9176e+06
-3.71656e+06
7.70604e+06
-2.18088e+06
3.64038e+06
5.47962e+06
-1.08578e+06
-1.05988e+06
-3.85927e+06
-3.86105e+06
-3.01263e+06
4.63074e+06
273478
-553819
-1.93409e+06
422659
-1.20484e+06
-2.58484e+06
-2.65284e+07
-2.65233e+07
-1.46005e+06
-3.11544e+06
-2.76522e+06
-2.76602e+06
-2.42181e+06
-456990
1.4374e+06
-2.89981e+06
20618.5
20324.5
-3.0338e+06
-5.09893e+06
-5.09926e+06
5.14027e+06
-1.2174e+07
-1.21792e+07
-961691
404601
-2.58118e+06
404988
349162
364254
-1.32637e+06
8.16292e+06
-1.29786e+06
-2.92289e+06
-1.27738e+07
-1.27792e+07
-878060
-643166
709676
-1.16812e+06
-1.70793e+07
-1.70824e+07
-1.88492e+07
-1.88445e+07
-407807
-1.48599e+06
-3.16564e+06
-1.41017e+06
-1.41384e+06
-734933
-734842
-2.00902e+06
-3.82227e+06
-3.57535e+06
-181029
-412270
-896078
-3.52118e+06
-3.5239e+06
-485258
-1.85339e+06
2.50881e+06
-1.03756e+06
-967370
2.82053e+06
-3.03561e+06
-3.03355e+06
-1.66324e+06
-2.13292e+06
-2.13329e+06
-436955
-434976
-1.66682e+06
4.09402e+06
-862587
-2.90034e+06
-1.9381e+06
-1.94172e+06
-2.06462e+06
-6.49143e+06
-878642
4.73406e+06
-2.85763e+06
-2.9148e+06
-2.91547e+06
-1.37256e+06
-3.06849e+07
-3.06904e+07
-1.54852e+07
-1.54882e+07
-863336
-91678
-91133.3
-1.47389e+06
-1.91891e+06
-1.91915e+06
-2.25791e+06
-2.25985e+06
-6.46543e+06
-6.46492e+06
-2.61773e+06
4.33533e+06
-2.89568e+06
-2.8945e+06
-2.70526e+06
-3.51444e+06
-3.53803e+06
-3.53561e+06
-2.19228e+06
-1.14792e+06
-7.55573e+06
-7.5518e+06
-3.76225e+06
-7.62433e+06
-7.62332e+06
-1.2339e+06
6.80349e+06
-2.13245e+06
-2.4968e+07
-2.49633e+07
-293610
-2.47528e+06
-2.47319e+06
-1.03606e+07
-1.03633e+07
-4.22997e+06
-4.23035e+06
5.32885e+06
-2.10387e+06
-4.90727e+06
-4.90759e+06
-3.10709e+06
-3.10908e+06
802409
-4.4815e+06
6.26749e+06
-2.06992e+06
-605483
1.4325e+06
-2.5541e+07
-2.55373e+07
-4.8967e+06
-4.8944e+06
-1.54588e+07
-1.5461e+07
-3.02433e+06
-1.46355e+06
-1.30566e+06
-4.31872e+06
-4.31692e+06
3.11592e+06
-591417
-594137
-3.15188e+06
-1.79017e+06
-1.82138e+06
-1.81696e+06
908024
-1.87121e+06
-2.15138e+06
-1.21439e+06
-1.21448e+06
-2.28552e+06
2.25584e+06
2.27661e+06
-2.67495e+06
-1.78454e+06
-2.27079e+06
-1.78434e+06
-1.53081e+07
-1.53103e+07
-1.87268e+06
3.68405e+06
-13021.2
-2.21828e+07
-2.21877e+07
-2.09259e+06
-4.40712e+06
-4.40478e+06
-3.9401e+06
5.74694e+06
-2.23435e+06
-1.63908e+06
6.19907e+06
-2.92695e+06
-2.37632e+06
-2.37744e+06
-2.22771e+06
-2.22716e+06
-957967
-5.87519e+06
-5.87675e+06
-3.86448e+06
-2.7933e+06
-3.86992e+06
-7.25029e+06
-7.25721e+06
-981796
6.37244e+06
-2.96544e+06
-628006
-5.13111e+06
8.4857e+06
-1.33246e+06
-1.33138e+06
8.57899e+06
1.3942e+06
-2.20849e+06
-1.00077e+06
-1.15932e+06
-1.59559e+06
-1.22957e+06
1.01732e+07
-2.02594e+06
-2.94966e+06
-5.91607e+06
-5.91747e+06
-2.61587e+06
-2.61642e+06
-1.98617e+06
-1.89308e+06
-1.89562e+06
-2.1159e+06
9.20383e+06
-5.13966e+06
1.08142e+06
5.00358e+06
-1.66155e+06
2.45409e+06
-1.34005e+06
-3.58288e+06
-3.58355e+06
9.01522e+06
1.13799e+07
203757
-2.04975e+07
-2.04926e+07
-1.61505e+06
-53489
-1.5192e+06
-2.53361e+06
-2.50045e+06
-409658
4.46695e+06
-1.99601e+06
6.79449e+06
1.18001e+07
-1.54317e+06
-1.54339e+06
-2.06499e+06
-2.07656e+06
-2.07704e+06
-1.0709e+06
-7.15069e+06
-7.14861e+06
-256620
9.89549e+06
8.53261e+06
-3.14772e+06
-3.1495e+06
-1.67387e+06
-2.32118e+06
-91998.3
-1.01706e+06
4.71e+06
-1.41681e+06
6.56482e+06
-2.10175e+06
-1.83854e+06
-1.55178e+06
-1.93933e+06
-2.19049e+06
180812
-2.31651e+06
157473
157425
-1.76799e+06
-1.76739e+06
-568071
-343860
-4.36775e+06
-1.77042e+06
-3.01661e+06
-1.52742e+07
-1.52777e+07
-980080
-2.07106e+06
-1.8339e+06
515554
3.11572e+06
3.15224e+06
-3.47951e+06
-1.83396e+06
-1.82365e+06
-688314
-691185
-4.90924e+06
-4.9097e+06
-1.39257e+06
-3.606e+06
7.3217e+06
1.03656e+07
-1.59607e+06
5.28254e+06
-123471
71414
-1.06393e+06
-2.49421e+06
-3.47196e+06
6.79289e+06
-343752
290813
-1.95576e+06
-1.96056e+06
-2.83205e+06
8.19681e+06
1.68399e+06
-2.79501e+06
-2.79391e+06
-4.35688e+06
-4.35469e+06
-274099
-2.43016e+06
-2.52891e+06
-1.20261e+06
-1.22477e+06
-546894
-2.87299e+06
-2.4797e+06
-2.90945e+06
-2.7231e+06
-2.55675e+06
-1.75462e+06
1.10303e+07
-1.22032e+06
-1.20909e+06
-2.14474e+06
261111
-1.3153e+06
-2.39704e+06
681920
705221
-105995
-1.69244e+06
-1.69108e+06
-809149
-805001
-3.56123e+06
-4.37276e+06
-4.37027e+06
-3.46131e+06
-2.29694e+06
1.20565e+07
5.70507e+06
-154337
-108407
-3.12521e+06
-3.12755e+06
-3.24998e+06
4.13427e+06
158925
-1.73595e+07
-1.7354e+07
-5.44918e+06
-5.44502e+06
4.94734e+06
39001.9
27141.4
-276185
-1.38172e+06
-3.54419e+06
-3.54524e+06
-431133
-2.34951e+06
-3.00341e+06
2.4541e+06
-2312.06
-2280.86
-2.28351e+06
-2.28525e+06
-1.90353e+06
-1.90665e+06
-4.27118e+06
-4.2716e+06
-1.90651e+06
-1.83999e+06
-1.84282e+06
-1.14634e+06
-293505
-3.31349e+06
-2.20849e+06
-2.20694e+06
-831543
-2.48995e+06
2.70577e+06
1.05451e+07
-2.1981e+06
-2.36e+07
-2.3605e+07
-1.88209e+06
-3.61205e+06
-1.67674e+06
-2.02307e+07
-2.02359e+07
-2.13878e+06
-1.39209e+06
-1.39281e+06
-585951
-583882
116.834
107.661
445990
4.08511e+06
3.57892e+06
897409
3.79931e+06
-2.40786e+06
457059
-646456
-3.95863e+06
-3.95774e+06
1.17598e+07
-1.55444e+06
-1.55373e+06
-1.50537e+06
-1.85797e+06
-1.85579e+06
-472097
-1.31796e+06
-5.97745e+06
-5.98049e+06
-476193
-2.71492e+06
-461162
7.4945e+06
-1.43175e+06
-3.40008e+06
-3.40234e+06
-3.83868e+06
-3.83813e+06
9.89399e+06
-2.31975e+06
-1.41848e+06
-3.30479e+06
-1.79215e+06
-2.99282e+06
-3.04749e+06
5.87606e+06
-1.32503e+06
-1.32534e+06
-5.30786e+06
-5.31105e+06
-2.70417e+06
-126946
-119022
62952
-1.96097e+06
-1.80354e+06
-2.14003e+06
-1.25602e+06
-1.02022e+06
-94850.9
-3.39137e+06
-2.0507e+06
1.01579e+07
3.74693e+06
-1.27684e+06
-2.43705e+06
-2.43567e+06
732858
-1.71699e+07
-1.71728e+07
-1.92766e+06
-1.92413e+06
3.84659e+06
-2.43938e+06
-137564
-4.69907e+06
-1.85362e+06
-2.65215e+06
-2.65127e+06
-2.11429e+06
-1.768e+06
7.46736e+06
-1.79283e+06
-318247
-316300
-992680
-2.37336e+06
-3.01806e+06
-3.01351e+06
-1.55773e+07
-1.55815e+07
-7.46298e+06
-7.46951e+06
-5.85932e+06
-2.65997e+06
-2.60636e+06
-5.87151e+06
-2.51956e+06
897194
881659
-2.63481e+06
-1.15475e+07
-1.15515e+07
1.87674e+06
-2.17846e+06
-2.18867e+06
-2.57922e+06
7.34517e+06
-288374
3.42484e+06
1.03823e+07
2.55121e+06