/*--------------------------------*- C++ -*----------------------------------*\
| =========                 |                                                 |
| \\      /  F ield         | OpenFOAM: The Open Source CFD Toolbox           |
|  \\    /   O peration     | Version:  v3.0+                                 |
|   \\  /    A nd           | Web:      www.OpenFOAM.com                      |
|    \\/     M anipulation  |                                                 |
\*---------------------------------------------------------------------------*/
FoamFile
{
    version     2.0;
    format      ascii;
    class       volScalarField;
    location    "7000";
    object      sigmazz;
}
// * * * * * * * * * * * * * * * * * * * * * * * * * * * * * * * * * * * * * //

dimensions      [1 -1 -2 0 0 0 0];

internalField   nonuniform List<scalar> 
27023
(
-8.61774e+06
8.6198e+06
6.1294e+06
-6.12831e+06
-8.43515e+06
8.43712e+06
2.74148e+07
-2.74117e+07
3.29462e+06
-3.29447e+06
2.0976e+07
-2.09726e+07
773455
-778134
-7.73726e+06
647031
532534
-1.65019e+07
1.65042e+07
1.23875e+07
-1.23845e+07
2.70643e+07
-2.70611e+07
1.50053e+07
-1.50027e+07
2.28245e+06
-1.05187e+07
974057
-1.05151e+07
8.95059e+06
4.57623e+06
1.23952e+07
-1.23929e+07
-1.20719e+07
-7.67885e+06
9.3958e+06
1.17205e+07
-1.1718e+07
3.10553e+06
-3.10583e+06
-6.30434e+06
6.30556e+06
-6.13942e+06
-8.14131e+06
8.14334e+06
1.62674e+07
-1.6265e+07
1.38956e+07
-1.38926e+07
8.25306e+06
1.33754e+07
-1.33726e+07
-1.17695e+07
142736
-141999
1.3288e+07
5.60416e+06
9.82943e+06
-4.47932e+06
6.28759e+06
-6.28647e+06
8.17783e+06
1.32483e+06
1.41784e+06
-5.93692e+06
4.11346e+06
1.0893e+07
2.79651e+06
-1.04462e+07
-5.73426e+06
1.13093e+07
-1.13066e+07
1.97113e+07
-1.97087e+07
2.40503e+07
-2.40484e+07
288037
-287345
-2.87078e+07
2.87101e+07
-7.96515e+06
2.02293e+07
-2.02258e+07
1.93406e+07
-1.9338e+07
-2.54945e+07
2.54964e+07
-1.08486e+07
1.0594e+06
-4.7288e+06
4.59442e+06
9.16675e+06
-9.16459e+06
5.83316e+06
-2.25864e+06
-1.49312e+07
1.4932e+07
-7.98202e+06
-4.77971e+06
217190
-7.73559e+06
-4.86967e+06
5.02667e+06
2.28698e+07
-2.28669e+07
814499
2.49461e+07
-2.49433e+07
1.31767e+07
9.30057e+06
5.5828e+06
2.52639e+07
-2.52611e+07
1.4732e+07
-1.473e+07
2.42657e+07
-2.42637e+07
5.49661e+06
-1.01897e+07
-7.72714e+06
5.87852e+06
615340
-2.28154e+07
2.28197e+07
2.86404e+07
-2.86374e+07
8.86713e+06
-8.86491e+06
2.33598e+07
-2.33568e+07
-4.38844e+06
-819917
803089
-4.36088e+06
5.05501e+06
-2.56095e+07
2.56114e+07
2.80387e+06
1.70842e+07
-1.70818e+07
-2.61234e+07
2.6127e+07
-1.91851e+06
2.66473e+07
-2.66441e+07
-4.30114e+06
-4.46885e+06
1.35467e+07
1.10905e+07
1.43071e+07
-1.43042e+07
1.57634e+07
-1.57608e+07
-7.28918e+06
-8.24342e+06
-8.06334e+06
8.12404e+06
7.80308e+06
1.68914e+07
-1.68891e+07
-1.47993e+07
-6.16196e+06
-1.28476e+07
989176
-1.8e+07
1.80033e+07
-2.38603e+07
2.38641e+07
-5.72247e+06
582675
1.47834e+06
-2.89443e+07
2.89466e+07
-5.18852e+06
5.28884e+06
-8.26758e+06
699448
-1.90973e+06
-5.30652e+06
3.04442e+06
-1.11326e+07
-2.48005e+07
2.48039e+07
-8.03283e+06
-1.48115e+07
-1.57947e+07
-1.42707e+07
1.42723e+07
-1.34901e+07
-4.8061e+06
-2.40987e+07
2.41022e+07
-7.66268e+06
1.14196e+06
2.91548e+07
-2.91519e+07
-1.66649e+07
-2.33145e+07
2.33184e+07
-9.63849e+06
8.22944e+06
-1.06482e+07
2.35501e+07
-2.35481e+07
-7.71722e+06
7.71911e+06
-6.56039e+06
-1.64572e+07
2.35316e+07
-2.35296e+07
33807.6
-33636
5.53278e+06
-7.01386e+06
-3.17547e+06
3.17608e+06
-8.94399e+06
739561
1.69405e+06
-2.52864e+07
2.52885e+07
-4.39334e+06
-2.25788e+07
2.25829e+07
-7.58362e+06
2.27205e+07
-2.27183e+07
1.99665e+07
-1.99638e+07
1.62986e+06
-1.63074e+06
1.07979e+06
2.32771e+07
-2.32749e+07
-1.51742e+07
2.22617e+07
-2.22596e+07
2.44033e+07
9.20808e+06
-2.84893e+07
2.84923e+07
1.10308e+07
1.56799e+07
1.55464e+07
-1.24928e+07
6.06576e+06
201543
-9.56973e+06
1.29017e+07
-1.21987e+07
-2.71396e+07
2.71422e+07
-5.58673e+06
-4.79361e+06
-1.65215e+07
-1.67522e+07
2.01054e+07
-1.53497e+07
1.38238e+07
-1.38211e+07
4.80603e+06
1.10252e+06
1.42453e+07
2.28736e+07
-2.28715e+07
2.62664e+07
-2.62632e+07
1.94648e+06
-3.99503e+06
2.24131e+07
-2.24091e+07
9.98512e+06
-5.93255e+06
-1.06204e+07
2.54595e+06
1.43701e+06
-1.80084e+07
1.80116e+07
-1.36385e+07
1.36404e+07
1.11389e+07
-1.37924e+07
2.72346e+06
-2.69473e+06
-213241
214045
-5.73161e+06
-7.16378e+06
3.38889e+06
1.25102e+07
546434
-5.53828e+06
-2.26572e+07
2.26595e+07
-2.5124e+07
2.51259e+07
-1.21828e+07
1.62766e+07
-2.35079e+07
2.35099e+07
942412
2.2527e+06
-2.34323e+07
2.34355e+07
-2.64467e+06
4.38861e+06
-4.38841e+06
9.16556e+06
8.2579e+06
-1.4798e+06
91903.3
121787
-121339
1.86577e+06
-1.86711e+06
1.10627e+07
-1.32349e+07
1.32374e+07
382978
8.02648e+06
1.18311e+06
-1.18521e+06
-1.14907e+07
-6.68235e+06
-4.72934e+06
8.28872e+06
-1.9166e+07
2.5558e+06
1.24909e+07
-1.4919e+07
-5.3683e+06
1.48941e+07
-2.16788e+07
2.38065e+06
9.374e+06
-1.25113e+07
1.2514e+07
-4.68753e+06
3.01882e+06
2.22526e+07
-2.225e+07
-1.58985e+07
1.59682e+07
48772.5
-48534.1
-9.67997e+06
9.05023e+06
-9.04796e+06
-6.74279e+06
3.29012e+06
-1.24721e+07
1.24663e+07
2.39075e+07
-2.39053e+07
23656.8
-23368.1
1.50937e+06
-2.80946e+07
2.80971e+07
-1.44609e+06
-1.15942e+07
-2.28426e+07
2.28446e+07
-2.60174e+07
2.60215e+07
4.55921e+06
-9.87992e+06
-1.78812e+06
-1.03336e+07
1.03361e+07
-2.75067e+07
2.7509e+07
-4.77556e+06
-1.53604e+07
-5.25351e+06
-1.54401e+07
-1.55027e+07
-1.05148e+07
-1.01239e+07
1.1198e+07
7.74645e+06
-1.11952e+07
2.78396e+07
-2.78365e+07
-9.29568e+06
3.68862e+06
4.43352e+06
-1.57875e+07
-1.42901e+07
-597578
-8.93181e+06
3.00027e+06
1.16648e+07
1.15608e+06
512500
-2.32958e+06
9.95272e+06
5.45515e+06
-2.24747e+07
-1.0667e+07
1.99193e+07
-1.99166e+07
7.25042e+06
-7.62424e+06
3.05078e+06
-1.03877e+07
1.03902e+07
227378
5.469e+06
-1.3717e+07
742289
1.37003e+07
241219
-240237
-4.71094e+06
1.30872e+07
1.07624e+07
1.61622e+07
8.59039e+06
-1.14905e+07
5.63434e+06
-1.42094e+07
3.30881e+06
1.93492e+06
1.21392e+06
-2.13665e+07
-2.29362e+07
2.29381e+07
-1.99919e+07
1.87484e+06
1.50993e+07
-8.93963e+06
2.21769e+07
-2.21749e+07
-1.73349e+07
1.73375e+07
1.59268e+07
982304
4.23126e+06
-4.2315e+06
-2.00977e+07
2.00923e+07
1.49322e+07
-1.49297e+07
-71121.5
71442.9
-5.61126e+06
-3.51913e+06
-1.28131e+07
-1.23886e+06
-3.15941e+06
-2.41034e+07
2.41075e+07
-2.33567e+07
2.33608e+07
1.42135e+07
-1.42109e+07
1.55395e+07
-1.55366e+07
-3.53791e+06
204723
-3.22366e+06
-1.23026e+07
6.47639e+06
1.50237e+07
-5.15771e+06
-2.81279e+07
2.81311e+07
-1.34955e+07
6.87271e+06
3.49195e+06
1.80147e+07
1.5545e+07
-1.19311e+07
-4.13448e+06
2.30634e+07
-2.30609e+07
-6.11097e+06
6.18419e+06
5.6489e+06
-5.64799e+06
2.30281e+07
-2.30258e+07
604340
3.78014e+06
-4.2003e+06
4.36362e+06
2.17897e+07
2.18585e+06
-2.10805e+07
2.10841e+07
-8.8272e+06
1.19511e+07
730068
-1.32942e+07
1.32967e+07
1.04338e+07
-1.04313e+07
8.94827e+06
-1.88347e+07
-1.09497e+07
-8.91848e+06
8.92091e+06
-1.20576e+07
-2.1857e+06
1.21096e+07
-1.21067e+07
-1.04918e+07
2.69355e+07
-2.69307e+07
2.10068e+07
-2.10032e+07
-1.40748e+07
-2.06033e+07
2.06069e+07
-6.36913e+06
-9.02542e+06
2.09799e+07
-2.09778e+07
-1.61536e+07
-2.30403e+07
2.30423e+07
1.32675e+07
-2.23027e+07
2.23051e+07
-1.36589e+07
1.36618e+07
-3.41205e+06
1.79189e+07
-1.7916e+07
-1.08712e+07
-2.16705e+06
-2.72302e+06
-3.93895e+06
1.72841e+07
-1.72813e+07
-2.68149e+07
2.68173e+07
-9.80333e+06
-1.64257e+07
1.05156e+07
993935
-1.26102e+07
-1.16165e+07
5.57153e+06
-4.26822e+06
4.26806e+06
-1.9072e+07
-2.53315e+07
2.53334e+07
9.7317e+06
989816
-2.26639e+07
2.26667e+07
-1.1559e+07
-1.29952e+07
1.29954e+07
191937
1.30255e+06
-3.75668e+06
-9.99559e+06
-8.37045e+06
1.20464e+07
-1.20434e+07
-1.16096e+07
-244488
1.903e+07
-1.90277e+07
4.29078e+06
-1.21274e+07
1.21301e+07
-3.48365e+06
1.18045e+07
-1.1802e+07
-2.27085e+07
2.27121e+07
-1.33458e+07
1.33485e+07
1.28403e+07
-9.87071e+06
9.84593e+06
1.27763e+07
-1.45175e+07
1.45204e+07
-8.98412e+06
4.77201e+06
-5.49716e+06
-1.34835e+07
973824
-2.45935e+06
-4.90551e+06
-2.13939e+07
1.41486e+07
-1.41455e+07
9.86711e+06
1.4362e+07
-1.43594e+07
-9.29383e+06
-1.90015e+07
1.90042e+07
-3.49641e+06
-889544
-1.23412e+07
1.23435e+07
2.17996e+07
-2.17976e+07
1.65811e+07
6.9624e+06
1.12509e+07
1.93175e+07
-1.93149e+07
2.48381e+07
-2.4836e+07
7.76189e+06
-6.18953e+06
3.19713e+06
-3.25547e+06
9.75731e+06
-9.75359e+06
-1.0118e+07
-57340.5
-128239
128880
57631.8
-6.23269e+06
697061
-697683
-1.37959e+07
1.37986e+07
-8.41213e+06
8.41428e+06
1.17368e+07
-1.17343e+07
1.90184e+06
1.73941e+07
-1.73916e+07
-1.28056e+07
-6.06852e+06
-1.65968e+07
1.65994e+07
-7.68711e+06
1.85064e+07
-1.85038e+07
-9.96897e+06
-7.90889e+06
1.56157e+07
-1.27743e+07
1.27769e+07
1.53448e+07
1.12988e+06
-46739.9
-7.27208e+06
-2.28447e+07
2.28473e+07
-1.92846e+06
1.36341e+07
-2.80647e+07
2.80671e+07
-66026.7
66311.6
1.39699e+07
-1.39682e+07
1.20874e+07
-1.86334e+06
2.73784e+07
-2.73764e+07
-9.14945e+06
-1.37029e+07
1.96239e+06
5.21662e+06
1.14823e+07
9.21502e+06
4.94633e+06
-954146
-4.00263e+06
-1.49104e+07
1.02926e+07
1.41436e+07
-1.35445e+07
-7.01521e+06
-5.53958e+06
170104
-169767
1.895e+07
-1.89474e+07
1.10534e+07
-954100
-6.04068e+06
-2.15249e+06
1.23749e+07
1.31864e+07
-1.38165e+07
-1.3899e+06
8.72006e+06
-9.42464e+06
-3.60638e+06
7.80913e+06
-7.80724e+06
1.24113e+07
1.73804e+07
-1.65319e+06
-8.66535e+06
2.30351e+07
-2.30327e+07
-2.37902e+07
2.37922e+07
130463
-129917
-1.13096e+06
-1.79957e+06
-7.06229e+06
-1.01419e+06
-1.28462e+07
1.28498e+07
7.58334e+06
3.34089e+06
-3.34165e+06
-2.53932e+07
2.53953e+07
-1.98746e+07
2.08659e+07
-2.08634e+07
-3.13933e+06
1.56853e+07
-9.86194e+06
-5.66637e+06
1.55699e+07
1.75664e+06
2.08459e+07
-2.08439e+07
8.32231e+06
-2.75457e+06
2.56357e+07
-2.56315e+07
-8.35096e+06
-2.2318e+07
-7.52399e+06
2.23207e+07
5.64721e+06
-5.62084e+06
1.13006e+07
8.48009e+06
-1.18004e+07
-466909
-1.18301e+07
-6.23402e+06
2.07087e+07
-4.11718e+06
8.22908e+06
-8.22601e+06
-2.36951e+07
2.36971e+07
5.9848e+06
1.7628e+06
-2.22108e+07
2.22133e+07
-1.30215e+07
1.06264e+07
8.6286e+06
4.38132e+06
9.66861e+06
9.38139e+06
-9.37908e+06
-3.4599e+06
1.32751e+07
-1.3272e+07
-2.34827e+07
2.34848e+07
314743
-8.96375e+06
-1.89227e+06
-2.06967e+07
1.95846e+07
-1.95812e+07
8.77174e+06
1.09667e+06
-6.23103e+06
-1.40301e+07
-5.7131e+06
-9.53703e+06
-3.69447e+06
-8.84829e+06
1.00224e+07
2.38634e+07
-2.38615e+07
2.14505e+07
-2.14468e+07
1.56526e+07
-1.54126e+07
-3.59607e+06
1.39894e+06
2.32917e+07
-2.32897e+07
-1.62651e+07
-1.4733e+07
428224
-6.00951e+06
1.92803e+06
1.5218e+06
-1.52128e+06
-6.54835e+06
-2.57249e+06
2.65865e+07
-2.6583e+07
-796948
6.75903e+06
-1.08155e+06
2.84597e+07
-2.84575e+07
-9.35705e+06
9.36095e+06
-1.1207e+07
-7.25233e+06
7.25419e+06
-3.44657e+06
-1.60853e+06
789053
1.45419e+06
2.17962e+07
-2.17942e+07
-3.01896e+06
-1.30296e+07
1.3032e+07
2.42665e+07
-2.42645e+07
-9.28139e+06
9.26484e+06
1.57211e+07
-1.57182e+07
-2.57575e+07
2.57614e+07
3.00812e+06
-1.53444e+07
2.61133e+07
-2.61096e+07
-1.60401e+07
-1.3566e+06
1.48966e+07
-1.48939e+07
1.94953e+07
-1.94932e+07
-1.52551e+07
-2.29123e+07
2.29148e+07
-2.66533e+07
2.66552e+07
1.52549e+07
6.6308e+06
9.49133e+06
4.16346e+06
1.73207e+07
-1.73184e+07
-2.13298e+07
1.42308e+06
1.89832e+06
2.13318e+07
7.75834e+06
1.24205e+07
-9.51655e+06
1.31566e+07
-1.31542e+07
256713
3.6615e+06
-1.14888e+07
1.72241e+07
-1.72303e+07
6.63546e+06
-824929
209652
-209130
-9.67436e+06
-1.11575e+07
-7.98741e+06
2.62099e+07
-2.62067e+07
-1.60052e+07
-1.18951e+07
-1.56102e+07
7.28361e+06
1.53962e+07
-1.53932e+07
-1.517e+07
6.56722e+06
1.60136e+07
-8.45448e+06
8.51979e+06
1.56129e+07
-1.40236e+07
1.49434e+07
-1.49406e+07
-2.12621e+07
2.12641e+07
1.37941e+07
-5.48679e+06
8.94902e+06
2.16239e+07
-2.16201e+07
-2.01844e+07
2.01867e+07
-10360.6
-7.21257e+06
1.74255e+07
-1.74232e+07
-9.89489e+06
2.91773e+06
-2.918e+06
-7.90432e+06
-8.35247e+06
2.14558e+07
-1.28961e+07
-1.34325e+07
-1.6202e+07
8.96307e+06
-9.61761e+06
-3.10662e+06
2.45367e+07
-2.45346e+07
-1.4439e+06
455975
4.51961e+06
-9.55494e+06
-4.02386e+06
-2.38644e+06
-1.54033e+06
8.922e+06
-7.01385e+06
761911
4.24495e+06
-9.54333e+06
7.80193e+06
-1.96363e+07
4.80474e+06
-5.07402e+06
-4.41176e+06
4.4117e+06
9.36712e+06
-3.15466e+06
3.15368e+06
-6.96563e+06
-4.17755e+06
1.75804e+07
-1.75775e+07
8.88765e+06
2.39828e+06
-2.3986e+06
-8.02658e+06
-4.23019e+06
8.35089e+06
-1.14626e+07
1.34146e+07
8.47335e+06
-2.27897e+07
1.04856e+07
7.73759e+06
1.2874e+07
9.14673e+06
-9.14448e+06
3.21914e+06
-3.57259e+06
815326
-816070
1.41767e+07
-333260
9.50822e+06
7.06274e+06
-9.91601e+06
9.91866e+06
-1.57939e+07
-3.17104e+06
7.92575e+06
-432572
432564
-9.00507e+06
-6.14228e+06
-84160.9
1.06791e+06
-5.03669e+06
1.54374e+07
8.98744e+06
-1.15487e+07
-1.02199e+07
1.02212e+07
-1.81044e+07
-1.41799e+07
443531
1.87141e+06
-1.0523e+07
-1.85731e+07
1.85766e+07
812120
-7.56009e+06
-1.7387e+07
-4.58348e+06
4.58352e+06
-9.25047e+06
4.51696e+06
9.33854e+06
-2.2609e+07
2.26114e+07
-4.33258e+06
-1.30103e+07
1.30264e+07
1.74293e+07
-1.74255e+07
7.07343e+06
-9.70471e+06
315248
-314598
-8.73796e+06
873518
2.7031e+06
2.38831e+07
-2.38811e+07
-2.92141e+06
2.7304e+07
-2.72997e+07
1.3621e+06
1.12882e+07
-4.1672e+06
-1.87136e+07
-8.12486e+06
-2.42492e+06
1.87168e+07
1.719e+07
2.14028e+06
-7.56493e+06
-1.08068e+07
1.08091e+07
1.07494e+07
-1.11039e+07
1.5358e+07
8.66699e+06
1.04e+07
-2.29367e+06
1.73156e+06
-3.62484e+06
-6.55913e+06
613075
2.23181e+06
-3.25606e+06
-2.66078e+06
80326.7
9.89786e+06
5.9983e+06
-1.29401e+07
-9.42775e+06
-4.72054e+06
-1.57674e+07
1.48692e+07
-1.83062e+07
1.83092e+07
3.09045e+06
-1.33483e+06
-9.67433e+06
9.67535e+06
1.92734e+07
-1.92711e+07
-6.35694e+06
-2.54585e+06
1.27889e+07
-1.89314e+06
1.8934e+06
2.31687e+07
-2.31667e+07
1.61961e+06
458876
-8.21507e+06
-2.60026e+06
-2.01706e+06
-534127
-2.30959e+06
-421947
1.57623e+07
1.70328e+07
-1.70302e+07
1.00736e+07
-1.00298e+07
4.52756e+06
3.9339e+06
2.32609e+07
-2.32589e+07
2.31689e+06
4.49604e+06
1.00913e+07
-3.34931e+06
-1.44861e+07
-6.0939e+06
5.64604e+06
-4.7742e+06
1.72029e+07
-2.71838e+06
-5.40969e+06
2.04424e+07
1.76769e+07
-1.76742e+07
-1.83084e+07
3.4768e+06
1.09324e+07
-7.59864e+06
7.83512e+06
2.04573e+07
-2.04413e+07
-8.91757e+06
-2.09634e+07
-2.59155e+06
2.59108e+06
3.49142e+06
-3.49193e+06
6.04701e+06
8.27575e+06
-7.64858e+06
2.40265e+07
-2.3805e+07
2.38093e+07
4.16912e+06
-4.16902e+06
-3.44073e+06
2.45687e+07
-2.45666e+07
-9.95554e+06
9.74199e+06
-2.8947e+06
57036.6
-56752.5
-9.06034e+06
-4.43146e+06
1.95127e+07
-5.30877e+06
-2.41731e+07
2.41766e+07
9.73268e+06
1.85353e+07
-1.84022e+07
6.96768e+06
4.67611e+06
-663762
1.04307e+07
-1.04251e+07
-2.30906e+07
2.30926e+07
-4.57216e+06
-1.21286e+07
1.21332e+07
-2.23486e+07
2.23509e+07
5.2831e+06
-1.16346e+07
9.90225e+06
-3.79714e+06
9.76116e+06
-9.75825e+06
-7.70447e+06
2.97874e+06
1.67635e+07
-163093
-1.06028e+07
1.06053e+07
-9.94487e+06
5.05219e+06
1.99306e+07
2.07817e+07
-2.07794e+07
1.48569e+07
-2.30117e+06
-7.62125e+06
7.46577e+06
2.61359e+07
-2.61317e+07
-1.0589e+07
1.82456e+07
-1.8243e+07
1.03735e+07
-1.6614e+07
-1.32157e+07
1.32131e+07
1.01232e+07
6.25597e+06
490498
-854280
-1.23616e+07
4.41637e+06
-3.64005e+06
122945
-122266
1.6635e+07
3.50243e+06
-3.50262e+06
2.20276e+07
-2.2024e+07
-2522.42
2.62242e+07
-2.62202e+07
-1.94338e+07
1.94371e+07
-2.61743e+07
2.61762e+07
6.76801e+06
2.41942e+07
-2.41922e+07
1.83163e+06
-7.95996e+06
-902462
-7.84306e+06
5.18534e+06
-7.11302e+06
1.87451e+07
-1.87428e+07
-5.95377e+06
5.95536e+06
5.20033e+06
-714433
419435
1.53268e+07
2.57292e+06
1.11666e+07
-1.65644e+07
2.39358e+06
-3.29054e+06
2.18553e+06
-2.18646e+06
1.54193e+07
-1.19083e+07
1.51693e+07
-9.89251e+06
-5.50956e+06
1.32147e+06
1.15838e+07
-1.15797e+07
1.12716e+07
5.51905e+06
-9.1508e+06
9.17942e+06
-3.85962e+06
-1.17465e+07
-2.34068e+07
-1.41251e+07
1.41277e+07
1.64971e+07
-8.31223e+06
1.0695e+07
-1.16071e+07
1.39757e+07
2.34099e+07
1.16062e+07
1.29717e+07
1.07606e+07
7.03267e+06
1.05376e+07
-3.67336e+06
8.84878e+06
6.4767e+06
4.90267e+06
-1.54202e+06
-5.26251e+06
9.10126e+06
-1.06916e+07
-5.9148e+06
1.90691e+07
-1.9067e+07
-1.36326e+07
4.11772e+06
-3.97221e+06
-4.6591e+06
1.63306e+07
-1.76574e+07
2.12989e+06
-1.95566e+07
-6.72718e+06
3.01178e+06
1.76604e+07
8.74012e+06
-1.29071e+07
5.62382e+06
-2.39897e+06
1.48599e+07
-1.46356e+07
1.00071e+07
218158
-218089
-1.65008e+07
-1.9947e+07
1.99506e+07
917263
2.26228e+07
-2.26195e+07
2.66441e+06
8.87215e+06
-8.86992e+06
-1.06951e+07
122135
2.35491e+06
2.52576e+07
-2.52556e+07
-1.10385e+06
-1.93592e+07
2.09688e+07
-7.81714e+06
2.20894e+07
-2.2086e+07
-1.22367e+07
3.51097e+06
2.26975e+06
-1.80026e+07
1.02012e+07
-1.02019e+07
149043
-148382
1.46735e+06
5.89778e+06
1.54805e+07
-1.54776e+07
2.2861e+07
-2.28583e+07
-1.77147e+07
4.00919e+06
8.35307e+06
2.14585e+07
-2.14556e+07
916802
-274135
274769
-1.85327e+07
1.85294e+07
-2.27469e+07
2.27494e+07
-1.96625e+07
2.32221e+07
-2.322e+07
1.6834e+07
-1.68308e+07
1.08064e+07
-5.12009e+06
-2.1741e+07
2.10225e+07
9.92107e+06
766311
-2.10204e+07
4.363e+06
1.23571e+07
1.16263e+07
1.29123e+07
7.46098e+06
2.20952e+07
-2.20932e+07
-6.36038e+06
-1.99741e+07
1.99774e+07
2.51067e+07
-2.51041e+07
-8.63593e+06
-1.74998e+07
1.75025e+07
1.00962e+07
-1.00946e+07
-9.64275e+06
9.7543e+06
-9.74865e+06
9.42401e+06
-2.38383e+07
2.38403e+07
6.02166e+06
-4.18601e+06
-9.66098e+06
-1.73412e+06
9.40152e+06
-9.40014e+06
3.68124e+06
-9.06394e+06
3.73119e+06
-7.29958e+06
-74123.2
74585
-2.69615e+07
2.6964e+07
-3.66691e+06
6.73336e+06
2.70298e+07
-2.70257e+07
-1.00572e+07
9.7769e+06
4.81613e+06
-1.58923e+07
1.59302e+07
1.07687e+07
-694147
-1.63049e+07
2.13918e+06
-2.65549e+07
2.65586e+07
-1.08723e+07
1.08747e+07
-1.55081e+07
1.55105e+07
788306
-788675
4.22734e+06
-1.478e+07
-2.98035e+06
-8.26743e+06
-9.7731e+06
-2.00672e+06
1.33091e+06
-1.33191e+06
-4.28844e+06
-541234
8.65675e+06
-1.08047e+07
1.08069e+07
8.19659e+06
-435602
-1.13958e+07
1.78839e+07
-1.78814e+07
-1.15201e+07
1.5413e+06
-1.70393e+07
1.70416e+07
-7.78203e+06
-1.83643e+07
1.83669e+07
-1.38006e+07
-8.18285e+06
-1.08511e+07
-5.01441e+06
5.3561e+06
-5.40217e+06
2.12934e+07
5.17117e+06
1.48529e+07
-1.48501e+07
551335
1.30403e+07
-1.30376e+07
1.97408e+06
1.97213e+07
-1.97188e+07
-9.82079e+06
9.82314e+06
-1.04654e+06
-5.91617e+06
5.91822e+06
-1.85475e+07
1.85497e+07
1.13413e+07
-7.65863e+06
-1.12261e+07
1.32821e+07
-1.32794e+07
1.11885e+07
-3.83976e+06
-1.1237e+07
1.12363e+07
2.51592e+06
2.41921e+07
-2.41874e+07
3.49294e+06
1.43982e+07
2.32146e+07
-2.32126e+07
-316317
317495
-3.07853e+06
2.22189e+07
-2.22163e+07
2.60539e+06
1.02866e+07
-1.02855e+07
1.92752e+06
-1.92818e+06
-214851
1.0371e+07
2.37287e+07
-2.37241e+07
-2.79225e+07
2.79252e+07
9.14935e+06
1.05806e+06
-4.10986e+06
4.10954e+06
6.41993e+06
43637.1
-43405.4
-2.47825e+07
2.47845e+07
-7.54603e+06
5.26854e+06
-5.26806e+06
3.12811e+06
-2.27299e+07
2.27325e+07
-6.30993e+06
-3.13558e+06
-2.37806e+07
2.37827e+07
-2.34676e+07
2.34717e+07
-6.98758e+06
676415
-1.55806e+07
8.04262e+06
-4.85203e+06
-2.79408e+06
8.85295e+06
1.00256e+07
-1.01327e+07
1.0089e+07
-1.96086e+07
1.96109e+07
2.34783e+07
-2.34762e+07
1.8704e+07
-9.82696e+06
-2.19282e+06
867906
-2.19311e+07
-9.61366e+06
1.51581e+07
1.41313e+07
-1.5295e+07
1.34728e+07
-1.34703e+07
-1.15704e+07
1.1573e+07
2.16655e+06
-2.67457e+06
-1.0368e+07
403815
-1.01529e+06
8.16283e+06
-9.12551e+06
-3.87355e+06
1.10489e+07
-1.10467e+07
303882
-1.25751e+07
1.25779e+07
-5.26998e+06
-2.60688e+07
2.60737e+07
-2.42391e+07
2.42424e+07
-3.982e+06
-1.86245e+07
1.86272e+07
2.90549e+07
-2.90525e+07
2.06565e+07
-2.06538e+07
1.38081e+07
-1.38053e+07
2.07015e+07
5.53685e+06
6.83286e+06
-3.1609e+06
-1.13342e+07
1.13368e+07
-1.89165e+07
1.89191e+07
-5.94261e+06
5.71323e+06
-5.56233e+06
2.69103e+07
-2.69082e+07
1.03441e+07
-1.36328e+07
1.35937e+07
-8.29932e+06
-9.89726e+06
1.43498e+07
-4.45645e+06
1.01819e+07
-1.01708e+07
1.21842e+06
-1.0359e+07
9.66546e+06
963971
-964572
1.75813e+07
3.78158e+06
4.06e+06
-5.41667e+06
-1.24846e+07
-2.02296e+07
4.84899e+06
6.56213e+06
-6.56079e+06
2.09107e+07
-2.09084e+07
1.34086e+07
-1.3406e+07
-5.68327e+06
4.9034e+06
4.65265e+06
3.28809e+06
-5.77499e+06
-1.71288e+07
6.28872e+06
6.95285e+06
3.28513e+06
-1.99052e+07
1.98983e+07
2.01242e+06
-2.01384e+06
5.52399e+06
4.93068e+06
-1.36e+07
1.36024e+07
1.43323e+07
-1.43293e+07
2.4898e+07
-2.4896e+07
-6.96334e+06
-3.27496e+06
3.26231e+06
1.77735e+06
-1.81735e+07
1.83947e+07
-2.24064e+07
2.24085e+07
1.01118e+07
-385953
1.86587e+07
-1.86554e+07
-1.08331e+07
1.07383e+07
8.10973e+06
-3.2405e+06
-1.03764e+07
-5.03969e+06
9.70597e+06
-9.70684e+06
1.61938e+07
-1.6191e+07
-1.50582e+07
2.26675e+07
-2.26652e+07
2.11399e+07
-2.11363e+07
2.03504e+07
1.01425e+07
-1.01422e+07
-8.11675e+06
8.11864e+06
2.68945e+06
-5.95809e+06
-1.36242e+07
-1.02206e+07
1.02233e+07
-3.86784e+06
3.86744e+06
568274
1.35088e+07
-1.69223e+07
1.69249e+07
1.21096e+07
5.22679e+06
-2.77002e+07
2.77031e+07
5.09528e+06
1.42485e+07
-1.80555e+07
5.78463e+06
-1.76828e+07
-2.00941e+07
2.00968e+07
7.27224e+06
2.12471e+07
-2.12445e+07
4.01836e+06
6.96714e+06
1.76835e+07
-1.58148e+07
1.58174e+07
-7.7728e+06
8.61983e+06
-79641.3
2.33216e+07
-2.33195e+07
2.2614e+06
-3.05459e+06
1.43668e+07
-1.43641e+07
8.31291e+06
-9.11878e+06
9.06109e+06
3.07695e+06
1.17751e+06
-1.12463e+06
1.3279e+07
-1.32766e+07
3.01873e+06
-4.18912e+06
-8.65741e+06
1.6007e+07
-1.16951e+06
-4.93325e+06
-1.61421e+06
568962
9.15963e+06
1.94713e+07
-7.12926e+06
2.13467e+07
-2.13428e+07
-9.74836e+06
1.32609e+06
-1.3271e+06
2.1756e+07
-2.17526e+07
7.0059e+06
-2.31753e+07
2.3179e+07
8.83062e+06
1.9336e+07
-2.67625e+06
-594194
593710
1.55763e+06
-1.81138e+07
1.81162e+07
-1.21148e+07
1.19541e+06
1.27453e+07
-219282
-1.86748e+07
8.69522e+06
-6.13729e+06
6.13897e+06
1.41149e+07
-1.4112e+07
-9.77469e+06
4.48573e+06
9.12018e+06
-2.10343e+07
2.10372e+07
-2.21576e+06
2.10806e+06
-2.10834e+06
-155006
-2.34417e+07
2.34437e+07
-3.40652e+06
6.50432e+06
-7.96368e+06
6.42335e+06
-6.46391e+06
1.15728e+07
-1.15705e+07
-8.61885e+06
8.56062e+06
-1.11781e+07
1.12898e+07
1.37354e+07
-9.65993e+06
-1.42137e+07
862574
-1.74692e+07
-4.05406e+06
9.83007e+06
-9.82686e+06
-199045
6.60951e+06
-6.60828e+06
1.91117e+07
-1.911e+07
1.58199e+07
2.13919e+07
1.50902e+06
2.59392e+06
1.05289e+07
768470
-1.78045e+07
-1.71759e+07
1.18182e+07
7.58527e+06
-9.81271e+06
-3.36088e+06
9.73625e+06
-1.28872e+07
1.28895e+07
1.41161e+07
-1.41151e+07
1.6029e+07
-1.6041e+07
7.56517e+06
-1.26142e+07
1.26165e+07
1.16552e+06
-1.3016e+07
1.30868e+07
-2.10195e+07
2.1022e+07
5.47622e+06
1.33649e+07
-2.93637e+06
-9.73e+06
-1.75415e+07
-67909.1
68363.5
8.58878e+06
-4.61565e+06
5.49148e+06
-5.47756e+06
2.73353e+06
1.04548e+07
-1.0452e+07
-1.79689e+07
1.79715e+07
9.55132e+06
-1.85707e+07
2.41316e+07
-2.41296e+07
-1.61997e+07
1.62022e+07
7.65773e+06
6.11993e+06
6.1821e+06
8.27872e+06
1.37845e+07
-1.37294e+07
5.684e+06
-1.21969e+07
1.21741e+07
-1.359e+07
1.35928e+07
1.29927e+07
9.27006e+06
-9.2678e+06
9.79093e+06
-9.78912e+06
1.30465e+07
-7.17473e+06
7.11433e+06
-4.84537e+06
4.19746e+06
427012
-5.4621e+06
-9.6802e+06
2.79513e+06
-2.7958e+06
-8.2878e+06
9.68389e+06
-1.58386e+07
1.58411e+07
6.30801e+06
7.739e+06
8.26924e+06
9.70729e+06
1.17926e+07
-1.179e+07
1.03233e+07
-2.47003e+07
2.47041e+07
1.10108e+07
9.81737e+06
-5.54389e+06
-1.52895e+07
1.534e+07
-1.53373e+07
5.16889e+06
1.15008e+07
9.36991e+06
-2.14429e+07
2.14449e+07
1.39016e+07
-1.3898e+07
8.36633e+06
-8.87584e+06
-6.37481e+06
-1.95513e+06
6.79621e+06
5.75429e+06
7.60123e+06
-7.09997e+06
888700
-984174
-1.8054e+07
1.80567e+07
1.94481e+06
2.45773e+07
-1.91854e+07
1.91879e+07
1.57755e+07
-1.28444e+07
9.37053e+06
-8.28221e+06
1.28533e+07
-2.26612e+07
2.26632e+07
3.27398e+06
1.29891e+07
-1.8888e+07
1.88909e+07
1.08954e+07
-8.42349e+06
1.34844e+07
3608.73
-3377.07
8.78572e+06
2.22675e+07
-2.2264e+07
8.04624e+06
-542318
6.91388e+06
1.6206e+07
-1.30892e+07
-673751
-2.45738e+07
376530
-376216
-5.2245e+06
1.1421e+07
3.99975e+06
286836
-286458
1.20158e+07
-1.67558e+07
1.67585e+07
2.68836e+07
-2.688e+07
-1.31265e+07
1.31291e+07
9.48799e+06
975996
-989217
-9.58052e+06
-4.66993e+06
7.44404e+06
563556
-9.28933e+06
-9.10171e+06
1.80891e+07
-1.80858e+07
-1.82329e+07
1.82354e+07
-2.33745e+06
-9.9722e+06
-2.17967e+07
6.26928e+06
-1.09956e+07
-349556
1.0263e+07
1.07564e+07
2.73136e+07
-2.7309e+07
-1.7274e+07
-6.23661e+06
-1.36309e+07
1.36336e+07
-2.94022e+06
-862090
245802
7.65807e+06
-21964.2
21734.2
-4.09156e+06
2.68416e+06
-2.68412e+06
-229996
-2.41632e+07
2.41665e+07
-3.88315e+06
-1.0982e+07
1.28286e+07
1.09826e+07
-1.78479e+07
1.78436e+07
4.32773e+06
-5.54907e+06
-9.18912e+06
1.2056e+06
-2.39204e+07
2.39238e+07
1.17356e+07
-1.17334e+07
-2.23551e+07
3.70899e+06
-2.79051e+07
2.79083e+07
9.72521e+06
-9.72281e+06
-9.5205e+06
1.76222e+07
-2.57019e+06
-1.60234e+07
1.60257e+07
2.43104e+07
-2.43084e+07
-277104
-1.45738e+06
1.13724e+07
2.10713e+07
9.52202e+06
5.74685e+06
-1.79597e+07
1.79623e+07
-4.23941e+06
6.75615e+06
-1.13235e+07
-1.56912e+07
-4.07882e+06
-1.06829e+07
1.56534e+07
-1.56509e+07
1.96062e+07
-2.4011e+07
2.4013e+07
130731
-130224
1.15797e+07
1.05108e+07
2.45354e+07
-1.26063e+07
-1.33352e+07
1.33375e+07
-1.34867e+07
9.76073e+06
-1.83592e+07
9.49635e+06
-4.30825e+06
-2.5906e+07
2.59081e+07
-1.66705e+07
-1.71503e+07
1.71533e+07
-2.81524e+07
2.81557e+07
-2.4531e+07
70044.3
-69678.3
7.94225e+06
-2.64196e+07
2.64216e+07
-1.49155e+07
1.4918e+07
-3.67275e+06
3.6722e+06
1.29182e+07
4.69462e+06
1.96491e+07
-1.96469e+07
-3.65034e+06
-5.39707e+06
1.76257e+07
-1.76231e+07
-1.02796e+07
-7.2939e+06
2.20253e+07
-2.20226e+07
-9.09151e+06
4.00144e+06
-4.00136e+06
1.38265e+07
51901.1
-7.6266e+06
2.7723e+07
-2.77184e+07
1.86471e+07
1.34401e+07
-1.34374e+07
-1.12541e+07
1.12571e+07
1.95902e+06
-1.95973e+06
4.95358e+06
1.63941e+07
-2.42629e+06
2.42586e+06
-1.56925e+07
1.5695e+07
-5.54507e+06
1.52668e+06
6.93937e+06
1.34882e+07
3.85698e+06
3.21737e+06
2.11875e+07
-2.11838e+07
2.00382e+07
-2.00356e+07
-2.92236e+07
2.92266e+07
-7.76174e+06
-9.2079e+06
9.07191e+06
1.91115e+07
-1.91091e+07
-8.25356e+06
-233661
234603
-3.77087e+06
-1.41122e+07
9.96573e+06
-9.96226e+06
-2.17165e+07
5.44941e+06
-1.12635e+07
-2.386e+07
2.3862e+07
-7.49434e+06
-1.05632e+07
1.05671e+07
533732
7.13355e+06
-692218
-1.3459e+07
-1.90436e+07
1.90469e+07
-1.98951e+06
-8.90837e+06
2.37325e+07
-1.42505e+07
1.42532e+07
4.64054e+06
1.99952e+07
-1.99927e+07
202771
-6.51299e+06
-5.91655e+06
1.55365e+06
-4.68419e+06
1.72405e+06
-1.88423e+07
1.88445e+07
1.8036e+07
-1.80337e+07
-3.00413e+06
-2.39688e+07
2.39711e+07
-2.14529e+06
2.98497e+06
2.14307e+06
-8.11254e+06
8.11411e+06
8.94426e+06
-7.46129e+06
4.1544e+06
1.60543e+06
-8.61313e+06
6.67292e+06
1.79432e+07
-1.79419e+07
-4.38672e+06
-9.36006e+06
1.47653e+07
-6.49644e+06
-2.05593e+07
-1.64915e+07
-5.9666e+06
4.1078e+06
1.8145e+06
3.2517e+06
-2.58342e+07
2.58365e+07
-2.45522e+07
2.45543e+07
602386
1.09899e+06
-1.09858e+06
-1.04464e+07
-5.01601e+06
8.62226e+06
-1.0811e+06
2.35247e+06
-1.8377e+07
-1.92822e+06
999095
-2.51879e+07
2.519e+07
-5.82729e+06
1.64431e+06
1.97297e+07
1.0206e+07
-1.02036e+07
-1.68366e+07
2.05003e+07
4.99705e+06
1.43962e+07
6.04056e+06
-1.3163e+07
1.56715e+06
-1.49971e+06
-5.51006e+06
137639
-2.58088e+07
2.58108e+07
1.23315e+06
-1.2404e+06
6.82867e+06
1.31732e+06
1.46394e+07
-1.46332e+07
6.48446e+06
-4.57773e+06
6.37387e+06
-1.62328e+07
1.62355e+07
1.97159e+07
-1.42928e+06
1.34159e+07
-8.93786e+06
389547
-1.58223e+07
624966
-9.46299e+06
-137855
834863
6.48912e+06
683488
6.57235e+06
-1.1633e+07
2.47833e+07
-2.47813e+07
-1.16455e+07
1.16475e+07
6.96874e+06
-6.97529e+06
2.68089e+06
-1.37295e+07
1.10315e+07
-1.02829e+07
1.02856e+07
-1.94152e+07
7.72562e+06
-642342
1.10593e+07
-1.09112e+07
-7.23982e+06
-3.39974e+06
-871846
876186
-1.06689e+07
1.06715e+07
-2.78593e+06
2.78471e+06
1.46489e+07
-1.50401e+07
6.35086e+06
-3.85663e+06
-7.78689e+06
7.18012e+06
167880
-805809
-1.23404e+06
-6.87175e+06
1.49722e+07
-636915
3.2051e+06
1.38075e+07
1.77839e+07
-1.77849e+07
1.11132e+07
-762377
-3.14458e+06
1.93781e+07
-1.93759e+07
1.86967e+07
-1.86941e+07
-9.71624e+06
-3.51669e+06
-6.62697e+06
-8.74406e+06
8.80009e+06
8.28617e+06
-7.24093e+06
-2.20893e+06
-7.17603e+06
-4.53565e+06
4.4276e+06
-2.41598e+06
-2.28552e+06
631334
-629561
3.12818e+06
-1.30078e+07
1.49878e+07
-3.5478e+06
-1.34206e+07
1.34231e+07
-2.2034e+07
1.42722e+07
-1.42696e+07
182326
-181985
8.24364e+06
1.98589e+07
-1.98563e+07
10362.7
-9.53931e+06
179810
249002
-5.4356e+06
5.42957e+06
-1.74016e+07
1.74041e+07
-4.98169e+06
1.50834e+06
1.30306e+07
2.34432e+07
-2.34392e+07
2.05237e+07
-2.05209e+07
1.09724e+06
-1.34945e+07
1.34962e+07
9.7193e+06
7.07672e+06
-2.15188e+07
2.15211e+07
2.62281e+06
-7.44405e+06
-8.53846e+06
3.24984e+06
-10142.2
9783.37
-1.56368e+07
1.56394e+07
-1.29309e+07
1.29335e+07
2.29367e+06
-2.29458e+06
-6.1056e+06
1.09524e+06
-1.09588e+06
-1.30584e+07
-1.80307e+07
8.315e+06
1.45242e+07
-1.45216e+07
1.7264e+06
-1.51424e+07
1.68259e+06
-1.51383e+06
-1.65601e+07
-1.4358e+07
1.43609e+07
-7.55052e+06
-4.31569e+06
-1.6487e+07
-2.52884e+07
2.52926e+07
1.49899e+07
1.75548e+07
-1.75541e+07
1.31113e+07
-1.31085e+07
-16844.7
16643.9
8.5915e+06
9.79836e+06
5.924e+06
2.34714e+07
9.91652e+06
1.01066e+07
-8.58683e+06
-8.31097e+06
2.36409e+07
-2.36387e+07
1.16987e+06
2.0911e+07
-2.09089e+07
-9.24913e+06
-1.20284e+07
1.20302e+07
-2.02244e+07
8.99407e+06
-2.18424e+07
2.18451e+07
-1.83904e+07
9.64459e+06
1.47596e+07
7.10665e+06
7.30789e+06
-1.75447e+07
1.75474e+07
7.58154e+06
-7.5759e+06
-4.32408e+06
-676550
1.98083e+07
7.47429e+06
-1.99419e+06
-1.05776e+07
1.06027e+07
-3.95667e+06
-2.67369e+07
2.6739e+07
-2.11584e+07
2.1161e+07
1.76189e+06
-4.3279e+06
4.33142e+06
2.32827e+07
-1.62356e+07
1.12804e+07
-2.00716e+06
-2.10498e+07
8.09332e+06
2.22493e+07
370875
2.05655e+06
-582683
-8.11324e+06
-1.21531e+07
1.44468e+07
-1.44441e+07
1.92299e+06
-2.8108e+07
2.81115e+07
1.45237e+07
-1.4521e+07
-1.05297e+07
-6.34381e+06
-3.77313e+06
-2.3985e+06
1.36592e+07
2.23212e+07
-2.2319e+07
1.43655e+07
-5.01377e+06
3.64302e+06
-3.28579e+06
267978
-267474
-2.26936e+07
-297182
1.78254e+07
-1.78228e+07
-8.10394e+06
8.10593e+06
-5.41534e+06
5.4171e+06
-1.44874e+07
1.23892e+07