/*--------------------------------*- C++ -*----------------------------------*\
| =========                 |                                                 |
| \\      /  F ield         | OpenFOAM: The Open Source CFD Toolbox           |
|  \\    /   O peration     | Version:  v3.0+                                 |
|   \\  /    A nd           | Web:      www.OpenFOAM.com                      |
|    \\/     M anipulation  |                                                 |
\*---------------------------------------------------------------------------*/
FoamFile
{
    version     2.0;
    format      ascii;
    class       volScalarField;
    location    "7000";
    object      sigmayz;
}
// * * * * * * * * * * * * * * * * * * * * * * * * * * * * * * * * * * * * * //

dimensions      [1 -1 -2 0 0 0 0];

internalField   nonuniform List<scalar> 
27023
(
-2.12637e-14
-1.77116e-13
-2.04607e-13
1.58301e-13
0
1.60978e-13
-4.22854e-12
-1.02016e-12
6.95815e-14
-1.35398e-13
1.18877e-12
-5.43658e-13
-1.38054e-13
-3.70933e-14
3.33216e-12
-7.48671e-13
-3.80502e-13
0
-1.88128e-12
0
1.01105e-12
-1.04867e-12
-3.12775e-12
-1.44925e-12
-2.39957e-13
-5.40254e-13
2.80028e-13
2.13684e-11
7.15248e-13
6.34661e-12
-5.22126e-12
-2.06744e-12
4.10121e-12
2.24584e-12
4.08153e-12
2.03786e-12
-1.45095e-12
2.90183e-12
-1.77655e-13
-1.27558e-13
-6.75952e-14
2.54242e-14
-5.4121e-12
-1.39331e-13
-1.39181e-13
-1.44189e-12
-2.19672e-12
1.80985e-12
1.80989e-12
1.20333e-12
-1.08159e-12
-1.83807e-13
1.07434e-12
2.40736e-14
8.37663e-14
3.5346e-12
7.65763e-12
3.29592e-12
1.98234e-12
3.6104e-13
-2.32635e-13
7.01532e-12
-1.73073e-12
2.2384e-11
-1.71947e-11
1.03103e-12
-5.51178e-12
1.93533e-13
-9.16704e-13
-2.42424e-12
0
-5.02069e-12
2.73905e-12
3.65038e-12
7.2231e-12
3.53054e-12
6.80364e-14
6.0799e-14
6.88751e-12
4.56568e-12
1.84546e-12
-2.83335e-12
-2.22448e-12
1.14649e-12
3.842e-12
-1.68884e-12
1.43131e-12
-5.6418e-13
-4.21213e-13
2.71529e-12
4.51695e-11
1.32534e-13
-1.57944e-13
6.90574e-13
-1.10905e-13
-3.03475e-12
6.14031e-13
7.24377e-13
-3.81429e-12
6.93285e-12
-7.38187e-12
1.86792e-11
3.45519e-11
1.50005e-12
1.13518e-12
-2.50008e-13
2.05785e-14
-1.20561e-12
-1.65141e-12
-8.69767e-12
-4.28868e-12
1.6121e-12
3.82548e-13
5.12997e-12
2.17587e-12
2.82713e-12
4.46979e-12
1.86989e-13
5.19462e-14
-7.33192e-13
-5.58858e-13
-1.45087e-12
-7.50572e-13
-2.31188e-12
3.15746e-12
6.29122e-13
2.39872e-13
2.67691e-13
4.98641e-13
2.83501e-12
8.9794e-12
6.13618e-14
3.33627e-14
-1.46373e-13
-4.2757e-12
-1.07667e-11
2.45064e-12
1.69479e-12
-5.64986e-12
-3.60317e-12
-1.39612e-12
3.51779e-12
-2.27674e-12
2.44237e-12
-5.70445e-13
4.32009e-12
-1.31126e-12
3.58804e-12
3.14103e-12
4.17295e-13
-1.49457e-13
-1.19421e-12
-3.97032e-13
-5.29133e-12
-6.11526e-13
9.519e-13
8.43505e-12
-5.21729e-12
-9.03043e-12
-2.47396e-12
4.02956e-12
-1.44655e-12
3.484e-12
-1.1183e-11
-4.6858e-13
4.2875e-13
-7.99456e-13
-2.24214e-12
-1.66322e-12
3.07453e-12
4.75743e-11
5.99591e-12
4.4873e-13
4.10518e-11
0
3.36834e-12
-9.54834e-12
-1.70406e-12
6.87064e-12
1.52238e-13
3.24481e-12
-3.46723e-12
2.71028e-12
-6.67565e-12
2.26731e-12
-4.03901e-14
2.23484e-12
2.9839e-12
1.33374e-11
-7.06352e-12
-3.42715e-12
-9.82675e-13
2.51697e-12
-1.15663e-11
-1.22347e-12
2.87979e-12
7.90115e-14
9.1859e-13
-7.31464e-13
2.83995e-13
3.90888e-12
1.73194e-13
-7.38404e-13
6.9179e-12
0
2.29272e-13
1.22648e-12
-3.41898e-12
-6.2524e-12
5.17503e-12
0
1.40863e-15
5.4635e-14
-7.07077e-13
2.11236e-14
8.38534e-14
-2.08746e-12
-3.93285e-13
3.13535e-12
1.84336e-12
-5.48823e-12
-5.47411e-12
1.19353e-12
-8.11533e-14
-1.40041e-11
-1.77374e-12
3.93798e-12
-2.63615e-12
-3.09179e-12
-1.40262e-13
1.31626e-13
-1.58298e-11
-5.38447e-12
-9.61338e-13
-2.56901e-12
4.04076e-12
3.46713e-12
-1.17878e-11
-4.63362e-12
4.9546e-12
4.95496e-12
-1.33949e-12
2.14638e-12
9.91038e-12
1.70851e-12
-4.69669e-13
-1.19031e-11
-6.40862e-13
9.26424e-12
-3.25835e-12
-2.35311e-12
-4.94019e-12
3.69827e-13
2.9727e-13
1.10953e-12
-2.91949e-12
0
-4.42372e-12
-3.39028e-13
-2.20037e-12
-3.60547e-13
9.93343e-13
6.36998e-12
-4.00072e-13
-4.78601e-12
6.57311e-12
-1.51308e-12
3.76492e-12
-7.29292e-13
1.68229e-13
-2.04487e-13
-1.1493e-12
3.2633e-12
3.48581e-12
1.57126e-12
-1.01373e-11
-1.4811e-13
1.14681e-13
-7.00486e-12
-8.85364e-12
-3.80903e-12
4.80383e-12
-2.66171e-11
-7.32671e-13
-2.23762e-14
2.18312e-14
-4.59491e-12
1.05182e-11
1.34812e-13
-2.38128e-13
-8.92377e-12
-5.0009e-13
-4.11095e-12
-1.45982e-12
0
3.27317e-12
6.69791e-12
1.21443e-12
-3.35456e-13
0
4.45725e-14
-1.5929e-15
3.06202e-13
0
2.18728e-14
-2.56505e-14
1.61554e-13
2.24783e-12
-6.80844e-13
-1.07024e-11
8.41128e-12
-6.44047e-14
-6.4228e-14
1.72068e-13
1.9659e-13
-2.28519e-12
-6.63176e-12
8.82737e-14
-4.44683e-12
-4.90464e-12
-2.8318e-14
-7.36895e-14
-2.03883e-12
7.37601e-13
-4.32403e-13
1.43271e-12
-7.25191e-13
-7.43236e-12
3.77192e-12
8.17323e-13
4.92594e-13
1.95963e-12
-1.77063e-13
1.80431e-13
-3.14824e-12
-1.71607e-13
5.26136e-13
2.76825e-12
8.38524e-14
7.13344e-13
-7.957e-13
1.82195e-12
2.01763e-11
0
1.64613e-14
-1.73927e-12
2.52208e-13
7.90807e-13
1.53721e-11
6.70866e-12
-6.52861e-12
7.60391e-12
-1.87606e-12
-1.06749e-12
-1.23223e-13
-4.41044e-14
-4.28946e-13
1.26825e-12
9.39973e-12
-4.02514e-12
8.8278e-13
2.92394e-12
7.30995e-12
-1.09282e-13
-1.31928e-12
2.12128e-11
2.63846e-12
-5.1921e-13
-3.2771e-13
-3.27624e-13
-2.82692e-12
6.16327e-13
-3.4087e-13
0
-1.14689e-13
-3.70775e-12
-8.56629e-12
-1.51094e-12
-5.41675e-12
-2.78654e-12
-5.29008e-12
1.31431e-12
-2.04333e-12
6.04365e-13
1.61894e-12
1.22286e-12
2.19748e-11
-3.31637e-12
-8.19522e-13
-9.49935e-14
-4.0412e-13
-2.25314e-11
-1.29466e-12
-2.04505e-11
5.32977e-13
-1.22406e-11
3.8516e-12
-2.78918e-13
-1.26821e-11
0
-1.70171e-12
-1.47351e-12
6.2653e-13
4.49046e-12
-2.4891e-13
9.77348e-14
3.73246e-13
-1.21236e-13
-5.92094e-13
3.58375e-12
-1.07316e-12
-8.59577e-13
1.02439e-14
-2.74305e-14
-1.39389e-11
-6.2505e-12
4.58673e-13
1.58936e-12
-6.5796e-12
-4.47814e-12
0
-4.43679e-12
-1.41063e-13
3.17851e-12
1.63201e-11
-2.38369e-12
0
3.23729e-12
-4.59686e-12
-1.09704e-13
-6.21793e-13
0
-3.67541e-12
8.73684e-12
-1.83073e-12
-2.2076e-12
9.68266e-12
-2.07031e-14
-1.93158e-13
-2.03531e-13
-1.14105e-11
-4.46587e-13
7.93266e-13
-5.17378e-12
-1.30425e-14
-1.87847e-15
-1.99336e-12
4.41728e-12
-7.6877e-13
-2.76693e-13
-2.27615e-13
-3.79184e-13
-3.79149e-13
-1.13238e-12
-9.76237e-13
-3.39344e-12
2.94659e-12
-1.03565e-12
9.87025e-13
2.89651e-13
-9.48478e-14
2.39288e-13
-7.08955e-12
3.07657e-12
1.25207e-11
-7.0724e-13
-4.14278e-12
-1.42743e-12
4.54919e-12
9.02374e-12
1.98028e-11
0
-2.19145e-12
-1.63298e-12
-7.66119e-12
0
-2.48541e-13
1.94781e-11
-1.21091e-11
4.81801e-14
1.483e-13
5.67906e-12
4.02067e-12
3.24669e-14
-4.16393e-12
-3.52179e-12
4.2425e-13
2.76549e-12
1.2945e-11
-5.60451e-12
-2.04504e-12
6.06107e-13
-4.59832e-13
3.62028e-12
4.67002e-12
1.23271e-12
1.08792e-12
-8.57156e-14
-2.63526e-13
4.8174e-12
4.66283e-13
1.68716e-13
3.25893e-14
8.88551e-12
-5.75751e-13
-3.34513e-13
3.51067e-12
1.55381e-12
-2.07394e-12
2.09737e-12
1.50757e-12
-1.51037e-12
-1.80122e-12
-4.16034e-13
-1.77346e-12
-2.13076e-12
2.23571e-12
4.80069e-12
1.53601e-12
-2.31176e-12
2.50739e-12
1.25365e-12
-2.46947e-12
-3.36542e-12
-2.08775e-12
-2.72004e-12
6.86781e-14
1.31152e-12
1.75223e-12
8.8269e-14
-2.07598e-11
-1.97281e-12
-3.18343e-12
-2.84675e-13
-1.11811e-12
-1.00845e-12
-2.98517e-12
2.67184e-12
5.73919e-12
-9.25047e-13
-1.03099e-12
9.51067e-12
7.58162e-13
-5.36271e-14
-3.10358e-11
1.54449e-13
-3.37248e-13
6.24381e-12
-2.25545e-12
5.12098e-12
1.1277e-13
-4.03287e-12
1.68285e-12
1.90809e-12
-7.25859e-13
1.12586e-11
1.58344e-11
3.52813e-12
4.81551e-14
2.38386e-12
6.10942e-13
-7.08613e-13
-9.68809e-14
1.85146e-12
-6.14838e-12
-2.4543e-13
0
0
-4.50282e-13
5.83763e-14
-1.294e-12
-1.18214e-11
1.48141e-13
0
1.47477e-12
-2.42978e-12
-1.59406e-13
5.24345e-13
8.21849e-12
-4.56428e-12
1.37211e-12
7.58436e-12
1.39638e-12
0
7.99754e-12
7.24301e-13
2.2516e-12
-1.20063e-11
2.07005e-12
-5.32135e-14
0
1.04321e-11
-2.61448e-12
-3.52484e-12
-6.30461e-12
8.31511e-13
-3.61427e-13
-2.39851e-11
-3.59927e-12
-2.04172e-12
2.49435e-12
2.87482e-12
5.14065e-12
-3.33795e-12
1.67936e-12
3.72917e-13
4.24445e-12
8.99529e-13
1.83563e-12
-2.57136e-14
-2.56941e-14
2.00297e-12
1.59848e-12
6.03248e-12
-1.76159e-12
-3.11957e-11
-3.21222e-11
1.53418e-12
2.27225e-12
-5.05568e-12
-9.02041e-16
-1.30726e-14
2.08404e-15
1.4942e-15
3.21938e-12
-3.42333e-14
6.5399e-14
0
2.05563e-13
-1.57071e-13
-1.56938e-13
2.8758e-14
-3.11041e-13
1.50897e-12
-9.69762e-13
-8.21115e-13
-5.20193e-13
-3.53625e-11
1.63108e-12
1.60901e-13
-7.63408e-12
-1.1275e-12
-3.4064e-12
1.34984e-12
2.29273e-12
4.74285e-12
-8.69949e-13
3.1467e-13
-1.04758e-12
0
-4.98213e-12
-2.70984e-12
3.15783e-12
0
4.86817e-13
-1.32529e-12
-2.88602e-12
2.82698e-13
7.24948e-15
1.92809e-14
3.9633e-12
-5.77031e-12
3.76317e-12
-3.21041e-12
5.15361e-12
4.83223e-12
-1.30048e-12
-1.81352e-12
0
-1.35298e-11
1.75047e-14
-2.11807e-12
3.20719e-12
-6.57238e-15
1.65271e-12
-8.7783e-12
1.4187e-12
8.04307e-12
5.61689e-12
0
-1.76337e-11
-2.81566e-14
-1.61798e-14
-3.69005e-13
2.28592e-12
-4.13161e-13
-1.52424e-12
-7.59656e-12
-1.0161e-11
-1.17309e-11
-4.84064e-12
9.6657e-14
-3.04593e-12
1.68462e-11
7.81787e-12
-2.30894e-13
2.65126e-13
9.04543e-15
2.44478e-12
-2.14513e-13
6.18779e-13
-9.31739e-12
-4.71979e-12
2.35983e-12
1.14615e-13
7.38202e-13
1.22919e-15
1.17073e-14
-5.67253e-12
-1.12272e-12
-4.67355e-12
-1.19298e-12
-4.66681e-13
7.5985e-13
3.13099e-11
-6.52109e-14
-1.2195e-13
0
-4.83775e-12
-7.70668e-12
5.73675e-13
4.34602e-13
8.9431e-14
6.21452e-12
4.69892e-12
-4.85622e-12
-1.46536e-11
-3.10846e-12
0
-2.10546e-12
-8.45172e-12
-8.86434e-13
4.19045e-12
2.57214e-12
1.73347e-12
1.95834e-12
5.10677e-15
1.95955e-12
1.34139e-13
8.68527e-16
5.48973e-12
-9.34001e-13
-4.22992e-12
-2.08099e-14
-1.32568e-12
-1.49589e-13
1.0634e-11
1.91765e-12
-4.09063e-13
-6.32371e-13
-8.75022e-13
2.40848e-12
5.06872e-12
9.99925e-12
4.25407e-12
0
-6.36965e-12
2.25571e-12
-1.92795e-11
2.38118e-12
-8.33087e-12
2.45421e-13
-3.28255e-13
-5.31245e-12
3.82038e-12
-1.34761e-12
2.90556e-13
3.75498e-12
-1.68752e-12
-6.79093e-12
-2.4805e-15
-6.93103e-12
-1.32734e-12
3.21459e-13
6.41463e-13
2.62584e-12
-7.27866e-12
5.16645e-12
4.18824e-12
0
2.7155e-12
-1.0045e-12
2.09432e-13
0
4.51834e-12
-2.2129e-13
-4.06523e-12
-3.34875e-12
9.28983e-12
2.11791e-12
1.5529e-13
0
0
7.88208e-12
4.43909e-12
3.03703e-12
-2.03694e-12
-3.05638e-11
-1.20705e-14
0
2.81352e-12
-4.5028e-12
-1.29e-12
-2.30372e-12
4.51468e-12
-1.84466e-11
2.18724e-14
-3.3594e-12
3.14657e-12
3.32922e-13
-4.03817e-13
-1.77249e-12
3.30452e-13
5.11495e-14
-9.90713e-12
5.5542e-12
2.67915e-13
2.98763e-12
7.22624e-13
1.84962e-12
-1.63451e-12
-4.96462e-12
-5.13678e-12
0
-6.40879e-12
2.89849e-12
9.54369e-13
-2.80464e-13
-5.27788e-13
-5.91709e-12
5.20968e-13
6.21467e-12
5.47034e-12
9.66582e-13
3.4006e-12
1.63313e-11
-1.5975e-12
-1.07377e-13
6.38386e-13
-1.97074e-12
-8.88057e-13
2.92587e-12
6.60317e-12
0
-4.58644e-13
3.98375e-13
2.65084e-12
-9.00968e-13
3.99595e-12
3.00859e-12
-2.81834e-12
-7.58006e-13
-1.87031e-13
-9.9999e-13
4.42208e-14
6.368e-12
8.60095e-13
-6.70361e-13
-8.54603e-12
4.4125e-12
-4.12103e-12
-3.45149e-12
0
5.78157e-13
2.75268e-12
1.71235e-11
-8.76137e-12
-3.35254e-12
-8.87487e-15
-2.88676e-14
-9.31092e-13
2.96904e-12
-3.79512e-12
1.14206e-13
2.18925e-12
3.59265e-13
-4.67428e-11
1.7048e-12
-6.57279e-13
8.53906e-13
1.7843e-13
4.50536e-12
1.94839e-12
-1.17754e-12
1.83038e-12
8.15551e-12
-3.07956e-14
-1.17528e-11
-3.79062e-14
-1.05174e-12
0
-6.66686e-12
6.46726e-12
-8.63979e-13
1.61501e-12
-9.7141e-13
9.06808e-13
3.10689e-12
7.01121e-13
6.34979e-13
3.60067e-12
-6.32032e-12
1.63758e-12
-8.13363e-13
-2.00412e-14
-2.30218e-14
1.08856e-12
-1.97646e-13
-3.01961e-12
9.02623e-13
4.02674e-12
2.45778e-12
1.17582e-11
1.67667e-12
-1.11574e-11
-2.8593e-12
2.84044e-13
2.94433e-11
9.79734e-13
3.5033e-12
0
-3.6375e-12
1.11507e-13
-5.84578e-13
2.75436e-12
-7.63086e-12
-3.93077e-13
-7.18867e-14
-5.11502e-13
-3.26597e-12
-1.03881e-11
-9.37336e-12
-1.6273e-12
0
-9.12471e-14
-8.18582e-13
-3.59832e-14
-5.1625e-15
-1.49664e-12
5.58874e-12
-3.30601e-12
-1.12113e-12
0
-3.36153e-14
5.95538e-15
2.37357e-12
8.9699e-12
-1.4821e-13
0
-2.7226e-12
-5.40946e-13
-9.55073e-12
-3.4704e-12
-8.00084e-13
-1.36549e-12
-8.6293e-13
-6.70116e-13
1.20216e-11
-1.99652e-13
8.37257e-14
8.84237e-14
-8.34959e-13
7.73201e-12
-6.95718e-12
-3.64979e-12
4.46351e-12
4.35512e-12
-3.08969e-12
-2.90827e-12
-1.21658e-11
8.31831e-14
1.98257e-13
0
-1.1167e-11
-1.57015e-13
3.25607e-12
1.19881e-12
-2.01396e-12
-1.0634e-12
-1.31649e-11
-4.39306e-12
-1.0647e-12
6.69929e-15
8.60501e-12
-1.3602e-13
-1.3356e-12
-1.6206e-11
-8.62308e-13
6.68974e-13
-1.11888e-12
-2.90835e-12
2.53358e-12
-4.13803e-13
1.16487e-13
9.19984e-12
-1.47889e-13
6.61457e-12
0
-3.12258e-12
-2.16377e-12
5.55601e-13
3.21352e-12
-9.48613e-13
1.70539e-13
-1.72148e-11
-2.43474e-12
1.72343e-14
8.98751e-15
8.70331e-13
-1.43402e-14
-9.27723e-12
3.18005e-13
8.61391e-13
-1.52447e-12
2.45278e-13
1.42337e-12
-1.05004e-11
1.94403e-12
5.10952e-12
0
1.05942e-14
1.19079e-14
-1.02429e-13
4.58108e-12
5.84618e-12
1.54144e-13
-2.27664e-12
-4.72763e-12
-2.66979e-13
-3.79488e-13
-5.9022e-12
3.6647e-13
2.38899e-12
2.03197e-14
2.73283e-12
-6.00061e-12
-2.31888e-12
2.18199e-12
-4.58304e-12
-1.98951e-13
-2.87097e-12
1.34072e-12
1.64301e-11
6.8868e-12
4.03993e-12
-1.06319e-11
1.74581e-12
4.72725e-12
-5.17817e-12
2.29185e-13
-9.88298e-13
9.65603e-13
3.30416e-12
-5.58616e-13
1.46881e-12
3.40042e-12
2.15053e-12
-3.37939e-11
-1.14803e-11
9.22328e-12
2.91448e-15
1.02687e-14
5.92517e-12
3.83778e-12
-3.13701e-12
3.11981e-14
-8.56229e-12
5.10111e-13
3.81381e-12
-4.74405e-13
-1.66642e-12
3.81486e-14
-5.64114e-12
1.00857e-12
1.09953e-12
-5.76354e-14
-4.86848e-12
3.47319e-12
3.0428e-12
-4.17741e-12
-6.58856e-12
5.74773e-13
-3.91544e-12
-2.94123e-12
-1.7196e-13
1.47637e-12
4.45829e-12
-8.00499e-12
2.89764e-12
1.20455e-12
-4.6321e-12
7.43256e-13
-1.20813e-11
-1.84298e-12
1.18632e-12
-4.91885e-12
1.09866e-12
-4.40974e-13
-1.83096e-12
-1.0049e-11
1.88267e-12
-1.88511e-12
3.26195e-12
-9.44321e-12
2.94235e-13
-7.79696e-15
-2.00738e-13
-1.74216e-13
-5.0531e-13
-5.80632e-12
5.25684e-12
-2.40443e-12
3.2665e-13
-1.47977e-12
-8.21218e-14
-2.67684e-14
3.94073e-14
-1.1276e-12
-3.64454e-12
-8.28043e-12
-1.50061e-12
-2.05272e-12
-1.00233e-14
-6.2387e-15
-5.79441e-13
-1.78639e-12
-2.01723e-11
2.0267e-11
1.86994e-12
4.95483e-12
-1.68232e-13
-4.44721e-12
-3.07064e-11
2.76724e-12
1.00194e-11
-1.93041e-12
3.30715e-12
2.55597e-12
-5.11354e-12
9.55863e-13
-3.52264e-12
1.10049e-12
0
1.79705e-12
9.39423e-14
-2.91601e-12
4.41979e-12
-5.43702e-12
2.72069e-12
-5.08977e-13
7.46499e-13
-1.02977e-13
-9.52325e-14
6.99082e-12
-1.25724e-11
-5.42498e-14
5.42891e-14
1.07311e-11
2.57112e-12
5.7244e-14
1.99345e-12
-4.3662e-13
7.37771e-13
-3.2781e-13
5.05325e-12
2.5248e-11
1.3769e-12
9.46941e-13
1.92909e-12
3.51548e-12
2.82133e-12
4.07973e-12
-6.92992e-13
2.79359e-11
-1.85836e-11
-1.00057e-13
2.79877e-12
-7.66454e-12
2.77395e-11
-1.56628e-12
-2.82654e-12
1.54694e-12
-5.69843e-14
-5.68489e-14
1.58925e-11
-3.22433e-15
-1.08576e-13
-7.29763e-13
-3.21993e-13
-4.25583e-12
1.54148e-12
3.42596e-12
-1.06577e-12
-1.63973e-12
-5.07795e-13
3.75661e-13
-6.10488e-12
-3.92882e-12
-6.48563e-13
1.2237e-11
-8.78453e-12
3.29335e-14
1.66084e-12
2.22489e-11
1.47703e-11
5.81824e-12
3.0538e-12
-2.1721e-13
1.60908e-13
-3.57607e-12
3.58894e-12
-5.0722e-12
1.00966e-11
9.13069e-12
-4.16073e-12
-3.54183e-12
-3.14739e-13
-6.74953e-13
-8.59177e-14
1.5699e-14
-3.81918e-12
-2.27737e-12
-5.57569e-12
-2.12263e-12
5.52035e-13
4.36356e-14
5.64503e-13
-1.60596e-12
8.87969e-13
2.69367e-12
2.68182e-11
-1.90672e-12
2.03771e-11
3.59961e-13
-4.95602e-12
-8.87949e-14
-2.68463e-12
-3.68338e-12
5.00622e-14
3.1634e-12
-8.03668e-13
1.99109e-13
-3.00298e-12
4.44989e-13
-1.01323e-12
-1.18702e-11
-1.48421e-12
9.13938e-13
3.22202e-13
-2.72017e-12
4.02587e-12
-5.42425e-12
-1.14744e-12
-5.58325e-12
7.43561e-12
-7.88621e-13
-3.75508e-12
-5.29348e-12
1.8133e-12
-1.32714e-11
0
1.74809e-12
4.40975e-12
-2.75098e-12
9.04322e-13
7.85607e-12
6.22557e-12
-5.49319e-12
6.00658e-12
9.03106e-13
-4.60214e-12
-7.82937e-12
-2.20865e-12
0
8.81541e-12
0
-1.7673e-12
-5.16368e-14
-1.46202e-13
-5.71557e-12
-6.1383e-14
-2.58557e-12
-1.76265e-12
1.58766e-12
0
0
-3.36027e-13
-3.51072e-13
-6.49331e-12
8.53496e-13
1.49631e-11
-2.26967e-13
2.82426e-12
2.50658e-12
3.73129e-13
3.4207e-13
-7.01609e-14
9.59267e-14
-2.86511e-12
1.07544e-12
0
-1.79561e-12
3.32573e-12
-1.22595e-12
0
2.81998e-14
1.89643e-14
4.02079e-13
-1.55237e-12
1.81889e-13
-1.88461e-13
-6.13878e-14
1.43405e-12
-3.75275e-12
1.42021e-12
-2.58771e-12
-9.77778e-13
-1.22267e-12
3.79115e-12
3.94299e-14
3.39955e-14
0
-3.13303e-12
1.23247e-12
3.24905e-12
0
2.78616e-12
1.68506e-12
8.92627e-13
1.48742e-12
9.81543e-12
2.0791e-11
-3.34221e-12
7.13915e-12
-5.90126e-13
-2.25223e-13
3.09703e-12
1.43902e-12
-1.42437e-12
0
-6.18727e-12
-3.15133e-12
-7.08825e-12
2.37245e-12
-1.87513e-12
1.23681e-12
1.76241e-12
-2.52124e-12
5.32796e-12
-4.91017e-14
9.41658e-13
2.01215e-12
-4.76126e-12
4.40267e-12
-5.91832e-12
-1.90904e-12
1.86208e-12
0
5.23844e-12
-2.1764e-12
-2.40167e-13
-3.16643e-12
5.12676e-12
-2.23265e-13
2.56059e-12
-2.20412e-13
4.6947e-12
1.56316e-12
-3.94119e-13
3.50402e-12
4.37077e-16
-6.26572e-15
-2.51742e-12
-1.45556e-13
-3.07584e-11
1.27199e-12
-1.59708e-12
-3.56922e-13
-5.32692e-12
-4.9599e-13
-1.92118e-11
-5.0424e-12
-1.01971e-12
-8.72266e-13
-1.5796e-12
1.73783e-12
-3.4276e-13
-3.94861e-12
-7.23808e-13
-2.82485e-12
-2.91368e-12
2.20903e-12
5.76163e-13
-2.92224e-14
1.03185e-14
-3.5065e-13
-4.63737e-12
9.43531e-12
-5.81638e-12
-3.17398e-12
1.21482e-12
-4.09336e-14
1.9943e-13
1.22572e-11
-9.47168e-12
9.64353e-13
6.70673e-13
7.30469e-13
5.536e-13
1.28554e-11
-1.20848e-11
-3.3771e-12
1.70413e-12
1.5324e-12
-5.48375e-13
8.42513e-13
4.16623e-12
9.83205e-13
-1.39406e-12
9.80496e-14
-3.78611e-12
3.52711e-12
3.36393e-12
1.58067e-12
-3.62082e-13
2.45109e-13
-3.44127e-12
2.84491e-12
-1.64234e-12
0
7.67859e-12
-5.94172e-13
-5.94303e-13
-3.26397e-12
-5.18255e-13
4.42138e-13
-1.63107e-13
2.67018e-13
4.91428e-12
-3.01366e-13
9.38645e-14
-1.73639e-12
1.00599e-12
-1.1313e-11
-2.47942e-12
-8.15229e-12
7.62583e-14
5.89419e-14
2.24206e-12
-8.09611e-12
0
2.68966e-12
3.65057e-12
5.71124e-14
1.39873e-12
2.70509e-12
4.123e-12
-1.54046e-12
-2.02292e-12
-3.88204e-14
0
8.67515e-14
1.53745e-12
2.34711e-12
-3.31287e-11
4.10403e-12
5.1579e-12
-1.85526e-13
-1.82167e-13
1.02397e-13
1.42768e-12
-1.95233e-12
-4.23573e-13
2.47557e-12
-2.26218e-12
3.83505e-13
-2.74132e-13
-3.24359e-13
-3.19446e-13
-1.26242e-12
-4.59375e-15
6.56448e-15
7.97285e-12
-4.00857e-13
2.63858e-12
0
3.21016e-14
2.65082e-13
-2.11609e-12
-8.86234e-13
3.80112e-12
6.98201e-13
3.80343e-12
-1.60879e-13
-6.59475e-13
6.5947e-13
0
4.4353e-13
4.12172e-13
-2.23488e-12
-4.56371e-12
4.79444e-12
1.16855e-13
1.31964e-12
7.91358e-12
1.24989e-11
-2.34625e-12
-4.2053e-12
-2.66406e-12
2.664e-12
-1.72252e-11
-1.60881e-12
9.43038e-13
1.08507e-12
-9.36575e-12
-2.163e-11
7.4837e-12
-6.51537e-12
6.14189e-12
2.20042e-12
5.48269e-13
1.31827e-14
-3.22175e-13
0
-1.1549e-11
-7.13583e-13
2.36339e-12
-4.28092e-14
-2.37494e-12
1.47167e-12
-4.26163e-11
-3.48308e-12
1.1982e-12
-7.59573e-13
-4.31402e-12
-2.43416e-12
2.40247e-12
2.77561e-13
-3.2083e-13
2.04982e-12
-7.70025e-13
8.17341e-14
2.33474e-13
2.02354e-12
1.06591e-12
-2.88593e-12
-1.06683e-12
-1.45663e-12
-5.47215e-13
-4.51452e-13
-1.37454e-12
-3.99358e-12
-6.54003e-12
4.50352e-12
-8.73533e-14
-8.44363e-14
-5.28927e-13
1.3176e-12
-1.35754e-11
1.84348e-11
0
7.85979e-13
-7.85942e-13
4.24973e-12
1.31089e-12
-1.58281e-11
-3.75489e-13
-3.11437e-12
-1.62341e-11
1.13653e-11
7.4908e-15
2.59684e-12
-8.75253e-12
-6.31719e-12
7.8525e-12
-4.14619e-15
1.09267e-13
1.9761e-12
2.86289e-12
1.08888e-12
0
-1.89648e-12
-9.36042e-13
2.32553e-12
7.93943e-14
2.00278e-13
-3.19343e-12
-1.19199e-13
-2.08997e-13
-7.35091e-13
-3.23168e-12
1.76134e-12
9.86816e-12
3.79233e-13
-1.54458e-12
2.69011e-12
6.52943e-12
-6.7523e-12
-1.28459e-12
-1.68806e-12
-1.68801e-12
-2.98811e-14
5.54947e-14
3.20952e-12
-4.45568e-13
1.16046e-12
-4.64436e-13
2.21261e-13
2.96932e-13
8.52475e-13
8.70951e-14
-6.21979e-12
-3.55019e-11
-2.06787e-11
2.45577e-12
1.07911e-11
-1.64786e-12
-1.06049e-11
-8.21179e-12
-2.54313e-12
-6.84494e-12
5.92383e-13
5.92515e-13
2.54616e-11
0
-3.15841e-12
-1.86929e-12
-3.1422e-12
-3.34731e-12
8.03716e-14
-9.47047e-13
-3.33627e-13
-1.29007e-12
-1.69564e-12
-2.06656e-12
-5.07726e-12
-4.9995e-13
5.57173e-13
-1.4251e-12
-1.01204e-12
6.80861e-13
2.86756e-13
2.059e-13
9.13622e-14
-2.75017e-11
2.92945e-13
-9.51283e-14
1.5808e-12
1.79705e-13
-2.38211e-13
-5.83272e-13
-1.20389e-12
-2.75963e-12
0
6.4054e-12
-9.28215e-12
-2.32499e-13
-5.67249e-13
4.46522e-12
-5.31528e-12
-3.04902e-12
1.18977e-11
-7.09709e-15
-7.82274e-13
-2.90125e-12
2.08775e-12
2.0196e-12
7.06512e-13
1.05377e-14
-1.80683e-12
-2.59167e-14
1.48577e-12
3.42472e-12
-1.48695e-12
9.59674e-13
-1.20605e-12
0
5.43015e-12
-3.64584e-12
-1.12496e-13
-5.21986e-13
3.61993e-12
-9.15153e-12
-2.94645e-13
1.46392e-12
-7.14648e-14
-1.21252e-14
-3.46697e-14
1.30298e-12
-2.50381e-12
6.74194e-14
-1.85029e-12
-3.92251e-12
-2.92106e-12
1.22928e-11
9.79197e-13
2.98287e-11
-3.22634e-12
-3.47322e-13
1.17715e-11
1.56358e-12
4.80393e-13
2.13929e-12
-6.33292e-13
5.29386e-14
-1.91203e-13
-4.00394e-12
7.91137e-14
-5.34235e-12
-4.56514e-13
1.16313e-12
-1.09027e-11
6.46034e-12
8.82609e-12
-1.16717e-13
-7.69352e-14
-9.60994e-13
2.31741e-12
-6.55138e-13
-1.25672e-12
7.52413e-12
-1.51212e-12
-3.32799e-13
1.92147e-12
-6.60858e-12
-1.97356e-13
-3.46602e-13
1.38672e-14
4.34229e-13
-5.92241e-12
-1.48618e-12
4.73435e-13
-1.51681e-12
-2.92269e-12
1.65872e-11
1.42968e-14
3.8814e-14
-2.61981e-11
-1.72708e-13
-2.9315e-12
-1.63488e-12
-2.23764e-12
0
-5.28008e-12
-5.74131e-12
2.68991e-12
2.68993e-12
-8.88603e-14
0
-1.7131e-13
-2.69187e-11
-8.27701e-13
-3.10934e-12
-1.7446e-11
3.02198e-11
3.02992e-14
9.57169e-13
2.34981e-12
-1.7812e-12
2.10505e-12
-1.25967e-13
-5.07894e-14
-9.03424e-13
-3.73098e-12
2.92287e-14
-1.01459e-11
-3.17601e-12
1.84437e-13
-9.56265e-13
2.59641e-12
0
-1.50262e-12
7.87207e-12
-1.94129e-13
2.34376e-12
0
-1.40162e-11
-3.64144e-13
3.4678e-12
1.01708e-12
5.82312e-13
3.29115e-12
-2.36358e-12
-3.11997e-13
-2.84475e-13
1.93307e-12
-2.3641e-11
1.03675e-11
0
-2.40737e-12
-8.72516e-13
-2.17932e-12
1.03467e-11
3.48169e-13
-1.44578e-12
5.51814e-12
-4.18415e-15
-9.92907e-15
-1.50767e-12
5.33619e-12
3.71274e-12
6.91628e-13
-8.38532e-12
4.54774e-13
-1.19786e-12
3.12101e-12
3.7585e-12
-5.16795e-13
-6.51305e-12
3.28296e-12
1.97445e-12
0
1.54796e-12
-7.29679e-12
-2.67314e-13
-3.52613e-12
-3.01071e-12
8.36296e-12
8.6214e-12
8.98615e-13
-6.18245e-12
1.99189e-12
9.54439e-13
2.42335e-13
1.08563e-12
-5.08149e-13
-5.7467e-14
-6.00118e-12
0
-1.20265e-12
1.40917e-11
-1.32055e-11
-2.00395e-12
1.2117e-12
6.74118e-12
-9.30961e-13
-9.57207e-13
0
0
-1.5837e-12
2.92666e-12
4.15164e-12
-7.25919e-12
3.2957e-12
-6.81607e-14
5.42767e-12
-5.78665e-13
3.4782e-13
1.19877e-12
4.07208e-12
4.15049e-12
4.15083e-12
8.6431e-13
3.44566e-12
-3.1467e-12
-4.00907e-13
4.08285e-12
1.65711e-12
5.57629e-12
8.01977e-12
-5.92496e-12
-5.66901e-12
-3.54772e-12
-3.04899e-12
-4.74241e-12
-6.68586e-13
1.76421e-13
4.83028e-12
1.09886e-12
0
-3.61989e-12
-2.81251e-12
-4.20556e-12
-3.0221e-12
-7.55792e-12
-1.45092e-12
-3.37323e-12
4.88089e-12
4.56138e-13
-8.79775e-13
0
-2.5037e-12
-2.74997e-14
-5.72096e-12
8.55148e-14
1.92013e-12
-5.2262e-12
-6.53886e-12
-2.23811e-12
6.21058e-13
0
8.9771e-13
1.9919e-12
-9.5902e-13
-3.69676e-13
2.75324e-15
5.68957e-14
4.53751e-13
6.03377e-13
-8.93429e-13
1.93309e-11
9.74895e-13
8.30646e-13
-1.26015e-12
2.04993e-11
-5.51463e-12
-7.38044e-13
2.68964e-14
-1.52233e-14
-9.12181e-12
1.17091e-11
-2.07441e-12
-1.77019e-14
3.30168e-14
-2.16996e-13
1.10266e-13
-4.35151e-12
-2.71328e-13
1.58567e-12
-3.39936e-13
2.9298e-13
-2.52541e-12
3.38426e-14
-2.93692e-14
-2.44257e-12
-3.27862e-12
1.88075e-12
9.23554e-12
-1.67579e-13
-1.90043e-12
-3.3319e-12
0
2.94674e-12
6.14408e-13
-1.16142e-11
-7.88926e-13
3.16987e-12
3.79235e-12
-1.12984e-11
-5.15898e-13
-2.36351e-12
-3.25859e-12
-1.24324e-12
-2.42122e-12
-1.71069e-12
-1.69766e-11
-1.8386e-12
-3.95897e-12
1.42223e-11
-5.89917e-12
-1.45351e-12
8.40022e-15
-2.08633e-15
8.35819e-16
-6.38768e-12
-3.09394e-14
-3.11932e-14
1.64069e-13
0
0
-3.43957e-11
-2.48649e-12
-4.57626e-12
0
-1.11168e-11
1.32489e-11
-3.17893e-12
5.13416e-13
-1.4051e-11
-1.73296e-12
1.15873e-12
7.56413e-13
-7.2243e-12
1.78587e-12
1.31384e-11
-1.32519e-11
-1.32991e-12
-2.59915e-12
2.75104e-13
1.06586e-13
1.23536e-12
-1.5731e-11
-1.87724e-11
0
-2.39419e-13
8.53404e-13
2.49206e-12
1.03291e-12
-8.72763e-12
-6.07597e-13
7.20072e-12
1.7737e-14
-6.65987e-12
-1.18575e-12
-1.28539e-12
3.45129e-12
5.9457e-12
-3.15293e-13
-6.21842e-12
7.91871e-12
5.00963e-13
-4.08919e-13
4.14414e-12
-3.26302e-12
1.62664e-12
-1.21333e-12
0
-1.79976e-14
1.34399e-12
-1.00212e-12
-3.88589e-12
9.0626e-13
-1.83665e-12
-9.52677e-13
8.41157e-13
3.74624e-13
-4.85962e-12
6.11242e-13
7.21501e-12
-1.84193e-12
-9.29462e-13
-5.69009e-12
-6.51463e-13
1.66147e-13
3.31602e-12
3.03913e-12
-1.71704e-13
8.71031e-15
1.27482e-14
-2.02962e-12
-6.55954e-12
-7.16703e-12
3.8829e-12
3.34953e-12
7.77689e-14
-1.27528e-13
0
2.60721e-12
6.84672e-13
-2.80458e-12
3.18278e-12
2.13164e-11
-2.73682e-12
-1.14066e-12
-3.50382e-12
-2.11394e-11
4.10893e-12
3.58215e-12
-3.61179e-13
6.98048e-14
-4.79189e-14
3.735e-12
1.79739e-12
1.68372e-13
-2.8391e-12
-1.15713e-12
4.28255e-12
-1.56574e-12
-3.98541e-12
3.36289e-13
6.30806e-14
-8.76285e-14
-1.75196e-13
0
-4.13466e-12
2.46306e-14
2.80958e-14
-4.25039e-12
-2.32786e-12
0
0
4.17522e-13
-5.04422e-12
-7.10677e-12
-1.62497e-12
9.62534e-13
9.62543e-13
-1.92375e-12
1.08552e-12
1.27144e-12
-2.35877e-12
-1.97745e-11
-6.99832e-13
1.48134e-12
-2.17737e-12
2.51553e-12
-1.59667e-12
2.97465e-14
5.77667e-15
-1.26856e-11
8.45358e-12
-1.95452e-12
-9.60509e-13
9.86886e-12
4.88921e-12
1.42297e-12
2.72328e-12
-3.26652e-12
7.93645e-13
2.33425e-12
1.58415e-12
1.48031e-11
-3.65972e-12
-1.42381e-11
-5.15049e-12
-4.17738e-13
-1.60787e-12
8.85078e-12
-3.02577e-12
1.85162e-12
-1.27694e-12
1.56187e-13
1.7345e-12
4.16723e-12
-4.22521e-12
1.81855e-11
1.19764e-12
1.29748e-12
-3.91258e-12
3.34571e-13
-3.17409e-12
-3.95515e-12
-4.59256e-12
-7.01149e-13
5.72986e-12
1.50725e-11
-2.43806e-12
-2.26046e-12
-2.72517e-14
7.31292e-15
5.36216e-15
-9.11285e-14
2.44409e-13
-1.58581e-12
-1.35411e-13
-3.90685e-12
-5.94209e-11
2.52422e-13
1.59306e-12
-2.05122e-12
9.53366e-12
2.62304e-13
1.33264e-13
-2.77517e-14
-6.47071e-12
-8.38823e-12
6.48087e-12
-8.91239e-12
4.31314e-13
-1.10097e-11
-2.33292e-12
-2.49788e-12
1.19975e-12
1.66502e-12
1.9397e-12
-2.20226e-12
3.37237e-14
3.43887e-14
-6.78217e-12
-1.88213e-13
6.24319e-13
-2.48163e-12
3.28093e-12
-3.16163e-13
2.99552e-12
2.97539e-12
0
3.14455e-12
-1.70389e-12
9.62027e-14
4.59433e-12
0
-1.61827e-12
7.88342e-12
1.94436e-12
-5.32078e-12
3.08714e-12
3.7587e-12
2.67091e-12
-8.53563e-13
3.7978e-12
1.40339e-13
-3.63708e-14
1.68859e-12
-2.6639e-12
-3.56886e-14
1.78789e-14
3.18894e-12
9.01448e-14
-2.12454e-13
9.78311e-13
2.74151e-12
2.56947e-13
-7.28355e-14
5.48979e-13
-2.30438e-12
1.86499e-12
9.86238e-13
-4.81631e-13
2.23176e-12
-1.18793e-12
-7.11338e-12
-2.3066e-12
8.15149e-12
-1.0334e-12
-2.84511e-12
0
3.48204e-14
3.33556e-12
7.86817e-12
4.59338e-12
6.30913e-12
4.39683e-12
-6.00009e-12
1.17626e-11
-1.35469e-11
-1.07314e-12
-1.21139e-12
1.3225e-13
9.48016e-13
5.57826e-13
-1.09268e-11
-7.76179e-13
1.10654e-12
9.02078e-13
-1.22532e-12
4.03358e-12
1.8118e-11
8.88304e-14
1.13034e-13
7.4665e-13
-7.70411e-13
1.07401e-13
9.535e-14
3.82693e-12
6.29242e-13
-1.09919e-12
-9.70849e-14
-7.05267e-12
-2.22041e-12
4.72735e-12
-2.3732e-12
1.00289e-13
-1.40559e-11
-6.37055e-13
-1.79754e-12
2.20726e-12
-9.14588e-13
-2.03757e-11
1.99157e-13
-3.6586e-12
-7.63946e-14
-3.36911e-12
3.97915e-12
0
-3.89892e-12
-6.15464e-12
2.19523e-12
9.23978e-12
1.45222e-12
0
-3.54037e-12
3.12665e-12
-9.03801e-12
-4.53443e-12
-1.52255e-13
-1.38387e-11
-4.1888e-12
2.52216e-12
7.90718e-13
-4.22174e-14
-4.67064e-14
-1.97294e-12
-7.08894e-13
-1.02148e-12
-5.04456e-13
-1.17087e-12
-2.57507e-12
-1.64106e-12
1.68292e-12
4.06834e-12
0
1.61651e-14
-2.01921e-11
-2.14185e-13
1.78399e-12
-2.5722e-12
-8.82282e-12
3.90144e-13
5.28435e-14
5.48667e-12
-7.95056e-13
6.45816e-12
3.85239e-12
-2.95101e-12
3.23917e-13
7.95385e-13
1.8483e-12
-4.2213e-13
2.16028e-12
1.03277e-12
1.69947e-12
3.43849e-12
-8.10838e-13
1.81709e-12
2.49911e-13
6.09477e-13
2.86648e-12
-1.81693e-14
1.05912e-11
-3.64368e-13
1.14445e-12
3.03183e-14
2.8284e-14
3.86327e-12
7.90645e-13
-6.43837e-13
-2.78138e-13
-1.08871e-13
1.69575e-14
3.10335e-12
1.17645e-13
3.39773e-14
6.03176e-12
-7.31585e-12
-9.43047e-13
-4.96853e-12
0
2.40306e-13
-2.94389e-12
2.4184e-12
-9.4326e-13
-4.93297e-13
3.52323e-13
7.49339e-14
-6.93748e-12
4.56986e-11
-3.21785e-12
-5.3389e-12
-5.02563e-12
-6.28949e-12
-4.83621e-12
9.46935e-12
-1.85524e-12
-1.65835e-12
-3.45427e-14
2.27374e-14
2.34761e-12
-2.05662e-13
-2.60202e-12
-5.19863e-12
5.58923e-13
-6.75487e-13
1.44804e-12
-1.52816e-12
9.67042e-13
1.32367e-12
3.53995e-13
2.92643e-12
-3.32492e-12
5.26296e-12
-7.53315e-12
1.39399e-12
-1.06153e-11
5.37627e-12
-2.62458e-12
-4.70587e-12
-1.09265e-12
1.62385e-12
-1.85907e-12
7.11995e-13
-1.60717e-11
3.56001e-12
6.16408e-14
-3.33214e-13
-1.56128e-13
1.54595e-13
-1.5339e-11
1.35336e-12
-2.20946e-12
-4.08156e-12
-1.57225e-11
4.04811e-12
-1.88555e-12
-2.74629e-12
-2.94815e-12
-1.66952e-12
0
-6.35874e-12
-9.39233e-12
0
7.54349e-12
2.81933e-12
4.29039e-12
-8.91386e-12
1.37889e-12
1.33292e-11
5.09405e-14
4.85015e-11
1.32658e-13
6.55769e-14
2.45269e-12
-1.10591e-11
-1.06375e-12
-2.54488e-12
2.43055e-12
-2.30945e-12
-4.80591e-13
1.37739e-13
-4.24701e-12
1.00217e-12
9.09499e-12
-2.92399e-12
-6.30277e-12
-3.57124e-12
6.94027e-12
6.72418e-13
5.1561e-12
-8.1316e-12
1.11274e-12
4.05234e-13
1.2199e-13
4.79015e-14
-3.30528e-12
-1.29477e-12
0
-4.99886e-13
1.0677e-13
1.06626e-13
-1.75816e-13
-1.75887e-13
-6.43022e-14
-5.93594e-12