/*--------------------------------*- C++ -*----------------------------------*\
| =========                 |                                                 |
| \\      /  F ield         | OpenFOAM: The Open Source CFD Toolbox           |
|  \\    /   O peration     | Version:  v3.0+                                 |
|   \\  /    A nd           | Web:      www.OpenFOAM.com                      |
|    \\/     M anipulation  |                                                 |
\*---------------------------------------------------------------------------*/
FoamFile
{
    version     2.0;
    format      ascii;
    class       volSymmTensorField;
    location    "7000";
    object      sigma;
}
// * * * * * * * * * * * * * * * * * * * * * * * * * * * * * * * * * * * * * //

dimensions      [1 -1 -2 0 0 0 0];

internalField   nonuniform List<symmTensor> 
27023
(
(-1.92594e+07 -1.58996e+07 1.61492e-13 -1.54728e+07 -2.12637e-14 -8.61774e+06)
(1.92639e+07 -1.59039e+07 1.06116e-13 1.54765e+07 -1.77116e-13 8.6198e+06)
(1.24037e+07 -1.17481e+07 7.01718e-13 1.22997e+07 -2.04607e-13 6.1294e+06)
(-1.24002e+07 -1.17452e+07 5.38528e-13 -1.22987e+07 1.58301e-13 -6.12831e+06)
(-1.94584e+07 -1.51486e+07 0 -1.45378e+07 0 -8.43515e+06)
(1.94631e+07 -1.51528e+07 -5.34555e-13 1.45411e+07 1.60978e-13 8.43712e+06)
(1.04944e+08 -1.48315e+07 4.44166e-12 5.54612e+06 -4.22854e-12 2.74148e+07)
(-1.04933e+08 -1.48282e+07 -1.0971e-12 -5.54487e+06 -1.02016e-12 -2.74117e+07)
(4.65923e+06 -5.91651e+06 -1.0385e-13 8.6191e+06 6.95815e-14 3.29462e+06)
(-4.65338e+06 -5.91558e+06 -4.89184e-13 -8.62433e+06 -1.35398e-13 -3.29447e+06)
(7.59363e+07 -1.45239e+07 -6.6632e-13 8.60347e+06 1.18877e-12 2.0976e+07)
(-7.59223e+07 -1.45188e+07 -9.45289e-13 -8.60356e+06 -5.43658e-13 -2.09726e+07)
(838906 -1.38015e+06 -6.74468e-14 2.27835e+06 -1.38054e-13 773455)
(-857363 -1.38737e+06 3.58973e-14 -2.27875e+06 -3.70933e-14 -778134)
(-3.03715e+07 -2.5302e+06 8.12771e-13 -812029 3.33216e-12 -7.73726e+06)
(2.4788e+06 1.15047e+07 9.95668e-13 128934 -7.48671e-13 647031)
(1.67487e+06 1.09968e+07 -9.01682e-13 471398 -3.80502e-13 532534)
(-6.50894e+07 -2.53774e+06 0 -1.41821e+06 0 -1.65019e+07)
(6.50983e+07 -2.53937e+06 3.29826e-12 1.41852e+06 -1.88128e-12 1.65042e+07)
(4.77196e+07 -2.01623e+06 0 2.20576e+06 0 1.23875e+07)
(-4.77125e+07 -2.01468e+06 -7.15376e-14 -2.20072e+06 1.01105e-12 -1.23845e+07)
(1.04338e+08 -1.33422e+07 2.9284e-15 4.73882e+06 -1.04867e-12 2.70643e+07)
(-1.04327e+08 -1.33392e+07 -2.57909e-12 -4.73764e+06 -3.12775e-12 -2.70611e+07)
(5.3377e+07 -1.34683e+06 -9.13034e-13 7.09882e+06 -1.44925e-12 1.50053e+07)
(-5.33712e+07 -1.34357e+06 2.33856e-12 -7.09434e+06 -2.39957e-13 -1.50027e+07)
(8.39072e+06 -312318 3.76594e-12 808230 -5.40254e-13 2.28245e+06)
(-3.73272e+07 3.91237e+06 1.74875e-12 -5.06615e+06 2.80028e-13 -1.05187e+07)
(3.96212e+06 -1.3975e+06 8.23349e-12 -36380.4 2.13684e-11 974057)
(-3.68349e+07 3.59737e+06 -1.3659e-12 -5.54401e+06 7.15248e-13 -1.05151e+07)
(3.62157e+07 -3.09704e+06 -5.06567e-12 -142127 6.34661e-12 8.95059e+06)
(1.74194e+07 -690765 9.7289e-12 1.02424e+06 -5.22126e-12 4.57623e+06)
(4.77647e+07 -2.47162e+06 4.05735e-13 2.19168e+06 -2.06744e-12 1.23952e+07)
(-4.77586e+07 -2.47085e+06 5.0028e-12 -2.18862e+06 4.10121e-12 -1.23929e+07)
(-4.85529e+07 -2.13451e+06 -4.82554e-13 -100631 2.24584e-12 -1.20719e+07)
(-3.00669e+07 -1.62904e+06 9.90256e-13 -881250 4.08153e-12 -7.67885e+06)
(3.77347e+07 -1.84181e+06 -1.06975e-11 133208 2.03786e-12 9.3958e+06)
(4.34885e+07 -1.07592e+06 1.71019e-12 3.74874e+06 -1.45095e-12 1.17205e+07)
(-4.34777e+07 -1.07341e+06 3.4203e-12 -3.7492e+06 2.90183e-12 -1.1718e+07)
(4.46526e+06 -5.90338e+06 1.91847e-13 8.05097e+06 -1.77655e-13 3.10553e+06)
(-4.46276e+06 -5.90334e+06 -2.778e-13 -8.05466e+06 -1.27558e-13 -3.10583e+06)
(-1.23756e+07 -1.17631e+07 -2.05667e-13 -1.30327e+07 -6.75952e-14 -6.30434e+06)
(1.23793e+07 -1.1766e+07 -9.117e-14 1.3034e+07 2.54242e-14 6.30556e+06)
(-2.45392e+07 -1.97565e+06 -1.08235e-11 -204514 -5.4121e-12 -6.13942e+06)
(-1.85458e+07 -1.5345e+07 -1.11758e-13 -1.42662e+07 -1.39331e-13 -8.14131e+06)
(1.85503e+07 -1.53492e+07 1.11737e-13 1.42698e+07 -1.39181e-13 8.14334e+06)
(6.42364e+07 -2.45868e+06 5.08919e-12 1.32604e+06 -1.44189e-12 1.62674e+07)
(-6.42275e+07 -2.45711e+06 -3.6726e-12 -1.32562e+06 -2.19672e-12 -1.6265e+07)
(5.04942e+07 -1.61421e+06 -4.7846e-12 5.50916e+06 1.80985e-12 1.38956e+07)
(-5.04867e+07 -1.61275e+06 4.78459e-12 -5.50473e+06 1.80989e-12 -1.38926e+07)
(3.34226e+07 -2.67644e+06 -3.23349e-12 -160332 1.20333e-12 8.25306e+06)
(4.87211e+07 -770932 3.61351e-12 5.18575e+06 -1.08159e-12 1.33754e+07)
(-4.87142e+07 -769385 -1.4108e-12 -5.18146e+06 -1.83807e-13 -1.33726e+07)
(-4.73602e+07 -2.34491e+06 8.42104e-12 -74566.9 1.07434e-12 -1.17695e+07)
(486.595 -86861.7 4.58606e-15 574784 2.40736e-14 142736)
(-484.657 -86623.8 1.01532e-13 -571813 8.37663e-14 -141999)
(5.33548e+07 -2.16619e+06 1.75914e-12 199776 3.5346e-12 1.3288e+07)
(2.23126e+07 -1.76753e+06 2.85032e-12 273842 7.65763e-12 5.60416e+06)
(3.96588e+07 -1.57904e+06 1.33258e-11 -43284.5 3.29592e-12 9.82943e+06)
(-1.80888e+07 -2.9714e+06 -2.39043e-12 35775.1 1.98234e-12 -4.47932e+06)
(1.18159e+07 -1.21472e+07 -1.09179e-12 1.3525e+07 3.6104e-13 6.28759e+06)
(-1.18128e+07 -1.21444e+07 -7.33005e-13 -1.35235e+07 -2.32635e-13 -6.28647e+06)
(3.28867e+07 -1.6497e+06 -1.9423e-11 72414.4 7.01532e-12 8.17783e+06)
(5.08205e+06 -2.02745e+06 7.84526e-12 257397 -1.73073e-12 1.32483e+06)
(5.88393e+06 -860482 4.46049e-12 -169622 2.2384e-11 1.41784e+06)
(-2.38369e+07 -3.20263e+06 -1.15708e-11 -90692.8 -1.71947e-11 -5.93692e+06)
(1.54654e+07 -303060 -2.29158e-12 1.11312e+06 1.03103e-12 4.11346e+06)
(4.24654e+07 -1.79156e+06 1.19365e-12 1.43664e+06 -5.51178e-12 1.0893e+07)
(1.03962e+07 94495.2 -5.16535e-12 874586 1.93533e-13 2.79651e+06)
(-3.78429e+07 4.09445e+06 1.12879e-12 -4.2584e+06 -9.16704e-13 -1.04462e+07)
(-2.2893e+07 -2.8743e+06 -1.1322e-11 -217820 -2.42424e-12 -5.73426e+06)
(4.16418e+07 -1.44817e+06 0 3.93789e+06 0 1.13093e+07)
(-4.16308e+07 -1.44553e+06 -3.45634e-12 -3.93827e+06 -5.02069e-12 -1.13066e+07)
(7.27194e+07 -4.3304e+06 -3.31676e-13 6.72305e+06 2.73905e-12 1.97113e+07)
(-7.27118e+07 -4.32711e+06 -1.9239e-12 -6.72008e+06 3.65038e-12 -1.97087e+07)
(9.6796e+07 -1.52085e+06 -2.06799e-12 134104 7.2231e-12 2.40503e+07)
(-9.67881e+07 -1.52071e+06 -1.2367e-12 -134104 3.53054e-12 -2.40484e+07)
(174964 -355288 1.24261e-14 985913 6.80364e-14 288037)
(-172860 -353022 -6.60182e-14 -985227 6.0799e-14 -287345)
(-1.14096e+08 -6.05243e+06 7.67829e-12 -1.6053e+06 6.88751e-12 -2.87078e+07)
(1.14105e+08 -6.05327e+06 -3.51128e-12 1.60546e+06 4.56568e-12 2.87101e+07)
(-2.83478e+07 1.52092e+06 1.22906e-12 -3.75419e+06 1.84546e-12 -7.96515e+06)
(7.33749e+07 -1.37711e+07 4.1411e-12 8.15546e+06 -2.83335e-12 2.02293e+07)
(-7.33607e+07 -1.37659e+07 -3.25685e-12 -8.15526e+06 -2.22448e-12 -2.02258e+07)
(7.08413e+07 -4.78516e+06 -6.10647e-13 7.10712e+06 1.14649e-12 1.93406e+07)
(-7.08339e+07 -4.78194e+06 1.53646e-12 -7.10403e+06 3.842e-12 -1.9338e+07)
(-1.02767e+08 -775270 -4.90361e-12 16189.6 -1.68884e-12 -2.54945e+07)
(1.02774e+08 -775221 -2.63498e-12 -16174.8 1.43131e-12 2.54964e+07)
(-4.23257e+07 -1.79132e+06 2.88763e-12 -1.39737e+06 -5.6418e-13 -1.08486e+07)
(4.07828e+06 -3.02884e+06 5.44996e-12 191441 -4.21213e-13 1.0594e+06)
(-1.91363e+07 -2.89262e+06 -4.7276e-12 77808.6 2.71529e-12 -4.7288e+06)
(1.83382e+07 -2.77629e+06 2.78581e-12 178669 4.51695e-11 4.59442e+06)
(2.4138e+07 -1.55517e+07 1.40016e-13 1.28068e+07 1.32534e-13 9.16675e+06)
(-2.41329e+07 -1.55472e+07 -2.79585e-13 -1.28032e+07 -1.57944e-13 -9.16459e+06)
(2.12029e+07 8.55084e+06 -3.93714e-13 2.30651e+06 6.90574e-13 5.83316e+06)
(-8.61489e+06 -2.17478e+06 -8.56194e-14 -488099 -1.10905e-13 -2.25864e+06)
(-5.35215e+07 -419718 -3.77872e-12 -6.65593e+06 -3.03475e-12 -1.49312e+07)
(5.35213e+07 -419309 -3.97892e-12 6.65927e+06 6.14031e-13 1.4932e+07)
(-2.82794e+07 2.10297e+06 3.60021e-12 -3.89057e+06 7.24377e-13 -7.98202e+06)
(-1.9068e+07 -3.21905e+06 -5.77521e-12 -195641 -3.81429e-12 -4.77971e+06)
(911423 -3.49529e+06 3.13214e-12 -36082.9 6.93285e-12 217190)
(-3.1166e+07 -1.88555e+06 -2.14114e-12 -10761.3 -7.38187e-12 -7.73559e+06)
(-1.9511e+07 -174600 -9.01448e-12 -115222 1.86792e-11 -4.86967e+06)
(1.98381e+07 -78547.5 -3.4505e-12 420870 3.45519e-11 5.02667e+06)
(8.5197e+07 -9.25443e+06 -3.82033e-14 6.97524e+06 1.50005e-12 2.28698e+07)
(-8.51878e+07 -9.25008e+06 2.12267e-12 -6.9727e+06 1.13518e-12 -2.28669e+07)
(3.43383e+06 -2.08671e+06 1.36224e-11 -151150 -2.50008e-13 814499)
(9.52511e+07 -9.45989e+06 -1.30649e-12 5.28908e+06 2.05785e-14 2.49461e+07)
(-9.52413e+07 -9.45679e+06 9.3566e-13 -5.28763e+06 -1.20561e-12 -2.49433e+07)
(5.26643e+07 -2.28452e+06 -5.04163e-12 441876 -1.65141e-12 1.31767e+07)
(3.70911e+07 -1.87546e+06 2.80918e-11 393022 -8.69767e-12 9.30057e+06)
(2.26734e+07 -3.62269e+06 -1.27278e-11 -173000 -4.28868e-12 5.5828e+06)
(9.55623e+07 -9.90161e+06 -9.75678e-14 6.25872e+06 1.6121e-12 2.52639e+07)
(-9.55527e+07 -9.89845e+06 1.02179e-12 -6.25714e+06 3.82548e-13 -2.52611e+07)
(5.28159e+07 -399172 -4.81898e-12 6.55849e+06 5.12997e-12 1.4732e+07)
(-5.28108e+07 -396571 7.36642e-13 -6.55556e+06 2.17587e-12 -1.473e+07)
(9.7629e+07 -889587 2.16507e-12 168996 2.82713e-12 2.42657e+07)
(-9.76211e+07 -889391 5.23529e-12 -168913 4.46979e-12 -2.42637e+07)
(2.34739e+07 2.95744e+06 -3.52299e-13 -1.32093e+06 1.86989e-13 5.49661e+06)
(-3.85384e+07 509004 -1.55434e-12 -2.52933e+06 5.19462e-14 -1.01897e+07)
(-2.8742e+07 -1.24814e+06 2.44915e-12 -2.40071e+06 -7.33192e-13 -7.72714e+06)
(2.33374e+07 -2.06637e+06 -1.37465e-11 354832 -5.58858e-13 5.87852e+06)
(2.4476e+06 -1.46711e+06 8.15238e-12 32404.5 -1.45087e-12 615340)
(-7.90419e+07 -3.00288e+07 -7.69645e-13 -1.29111e+07 -7.50572e-13 -2.28154e+07)
(7.9057e+07 -3.00341e+07 2.08807e-12 1.29132e+07 -2.31188e-12 2.28197e+07)
(1.13037e+08 -1.42477e+07 -3.80419e-12 2.3922e+06 3.15746e-12 2.86404e+07)
(-1.13026e+08 -1.42458e+07 1.76834e-12 -2.39174e+06 6.29122e-13 -2.86374e+07)
(2.37211e+07 -1.50062e+07 -5.54572e-14 1.20161e+07 2.39872e-13 8.86713e+06)
(-2.37159e+07 -1.50016e+07 3.26089e-13 -1.20123e+07 2.67691e-13 -8.86491e+06)
(8.66039e+07 -9.99732e+06 3.35472e-13 7.54321e+06 4.98641e-13 2.33598e+07)
(-8.65945e+07 -9.99271e+06 2.36298e-12 -7.54033e+06 2.83501e-12 -2.33568e+07)
(-1.7512e+07 -1.74468e+06 -1.08731e-12 -174713 8.9794e-12 -4.38844e+06)
(-2.06639e+06 -1.55355e+06 2.48028e-14 -1.23812e+06 6.13618e-14 -819917)
(2.10046e+06 -1.54775e+06 -1.21904e-14 1.13623e+06 3.33627e-14 803089)
(-1.63474e+07 -1.1588e+06 1.43738e-13 -1.22832e+06 -1.46373e-13 -4.36088e+06)
(2.01484e+07 -2.55154e+06 -9.86508e-12 224779 -4.2757e-12 5.05501e+06)
(-1.03036e+08 65602.1 -7.65652e-12 -177749 -1.07667e-11 -2.56095e+07)
(1.03044e+08 65612.1 -1.98834e-13 177756 2.45064e-12 2.56114e+07)
(9.92644e+06 3.7507e+06 2.39435e-12 1.374e+06 1.69479e-12 2.80387e+06)
(6.6773e+07 -2.89689e+06 2.48731e-12 2.08153e+06 -5.64986e-12 1.70842e+07)
(-6.6764e+07 -2.89541e+06 2.79057e-13 -2.08097e+06 -3.60317e-12 -1.70818e+07)
(-9.81259e+07 -1.64355e+07 -7.10718e-13 -7.1592e+06 -1.39612e-12 -2.61234e+07)
(9.81383e+07 -1.64402e+07 -5.48128e-12 7.1613e+06 3.51779e-12 2.6127e+07)
(-6.92696e+06 3.6307e+06 -2.43515e-12 -805220 -2.27674e-12 -1.91851e+06)
(1.01499e+08 -1.44896e+07 -2.33482e-12 5.89787e+06 2.44237e-12 2.66473e+07)
(-1.01488e+08 -1.44858e+07 -1.58169e-12 -5.89631e+06 -5.70445e-13 -2.66441e+07)
(-1.64352e+07 -575845 1.83116e-12 -899751 4.32009e-12 -4.30114e+06)
(-1.80196e+07 -2.12809e+06 -9.21204e-12 8765.96 -1.31126e-12 -4.46885e+06)
(4.85497e+07 206502 -3.27251e-12 6.04763e+06 3.58804e-12 1.35467e+07)
(4.32522e+07 -2.53938e+06 1.18035e-12 1.44578e+06 3.14103e-12 1.10905e+07)
(4.08263e+07 -2.36142e+07 2.17352e-13 1.68355e+07 4.17295e-13 1.43071e+07)
(-4.08181e+07 -2.36093e+07 -3.05002e-13 -1.68321e+07 -1.49457e-13 -1.43042e+07)
(5.12031e+07 -2.00736e+07 1.16383e-12 1.23283e+07 -1.19421e-12 1.57634e+07)
(-5.11962e+07 -2.00692e+07 -6.70119e-13 -1.23245e+07 -3.97032e-13 -1.57608e+07)
(-2.93711e+07 -3.12386e+06 2.92417e-12 -6496.69 -5.29133e-12 -7.28918e+06)
(-3.09513e+07 -862326 2.85961e-12 -2.27213e+06 -6.11526e-13 -8.24342e+06)
(-3.21368e+07 -647318 2.07396e-11 -360904 9.519e-13 -8.06334e+06)
(3.21018e+07 -635123 -8.83528e-12 640577 8.43505e-12 8.12404e+06)
(3.05307e+07 -2.0228e+06 5.96545e-12 918087 -5.21729e-12 7.80308e+06)
(6.59775e+07 -2.98598e+06 6.18049e-12 2.10019e+06 -9.03043e-12 1.68914e+07)
(-6.59685e+07 -2.98452e+06 -2.71037e-12 -2.09965e+06 -2.47396e-12 -1.68891e+07)
(-5.98566e+07 -1.82004e+06 4.40301e-12 211060 4.02956e-12 -1.47993e+07)
(-2.48041e+07 -2.91921e+06 -9.82652e-12 -30492.8 -1.44655e-12 -6.16196e+06)
(-5.17355e+07 -1.41872e+06 9.4112e-12 -44092.9 3.484e-12 -1.28476e+07)
(3.57052e+06 -3.27925e+06 1.00804e-11 416157 -1.1183e-11 989176)
(-6.1085e+07 -2.11738e+07 -5.46994e-13 -1.14606e+07 -4.6858e-13 -1.8e+07)
(6.10963e+07 -2.11758e+07 -5.76102e-13 1.14625e+07 4.2875e-13 1.80033e+07)
(-8.90918e+07 -1.47728e+07 -3.9745e-13 -7.07265e+06 -7.99456e-13 -2.38603e+07)
(8.91041e+07 -1.47783e+07 2.1268e-12 7.07524e+06 -2.24214e-12 2.38641e+07)
(-2.02842e+07 2.57703e+06 -3.38932e-13 -2.77908e+06 -1.66322e-12 -5.72247e+06)
(2.10494e+06 2.7837e+06 -1.64594e-12 243420 3.07453e-12 582675)
(5.78691e+06 -3.97915e+06 1.4344e-12 171259 4.75743e-11 1.47834e+06)
(-1.14785e+08 -7.53695e+06 6.9467e-12 -1.86922e+06 5.99591e-12 -2.89443e+07)
(1.14794e+08 -7.53787e+06 2.36384e-13 1.86936e+06 4.4873e-13 2.89466e+07)
(-2.10696e+07 -3.05717e+06 -2.28849e-12 158356 4.10518e-11 -5.18852e+06)
(2.10061e+07 -2.79105e+06 0 309514 0 5.28884e+06)
(-3.28109e+07 -2.58459e+06 1.25068e-11 -509964 3.36834e-12 -8.26758e+06)
(2.66096e+06 -2.0589e+06 1.30966e-11 158028 -9.54834e-12 699448)
(-6.46113e+06 3.38686e+06 -3.24899e-12 -1.23566e+06 -1.70406e-12 -1.90973e+06)
(-2.15318e+07 -3.24499e+06 -2.39964e-12 144900 6.87064e-12 -5.30652e+06)
(1.04435e+07 4.67612e+06 3.81606e-13 1.8264e+06 1.52238e-13 3.04442e+06)
(-4.34088e+07 -2.54323e+06 1.01477e-12 -1.45891e+06 3.24481e-12 -1.11326e+07)
(-9.3672e+07 -1.53266e+07 -3.93439e-12 -6.28151e+06 -3.46723e-12 -2.48005e+07)
(9.36838e+07 -1.53313e+07 -2.53371e-12 6.28357e+06 2.71028e-12 2.48039e+07)
(-3.2596e+07 -2.13088e+06 -2.94234e-12 221300 -6.67565e-12 -8.03283e+06)
(-5.94361e+07 -2.12489e+06 -6.7601e-12 -258672 2.26731e-12 -1.48115e+07)
(-6.32791e+07 -1.70182e+06 1.91563e-12 -378374 -4.03901e-14 -1.57947e+07)
(-5.07034e+07 -402468 1.80678e-12 -6.81174e+06 2.23484e-12 -1.42707e+07)
(5.07045e+07 -401121 -1.23202e-12 6.8173e+06 2.9839e-12 1.42723e+07)
(-5.43393e+07 -1.57722e+06 -6.53775e-12 -29983.4 1.33374e-11 -1.34901e+07)
(-1.93901e+07 -3.13171e+06 4.54813e-12 20077.8 -7.06352e-12 -4.8061e+06)
(-8.90704e+07 -1.61364e+07 -3.08972e-12 -8.05456e+06 -3.42715e-12 -2.40987e+07)
(8.90823e+07 -1.6142e+07 2.08568e-13 8.05691e+06 -9.82675e-13 2.41022e+07)
(-2.72325e+07 3.32234e+06 -8.36534e-13 -3.65038e+06 2.51697e-12 -7.66268e+06)
(4.58534e+06 -2.73442e+06 -2.32581e-12 17091 -1.15663e-11 1.14196e+06)
(1.13767e+08 -1.44615e+07 1.77436e-12 3.73569e+06 -1.22347e-12 2.91548e+07)
(-1.13756e+08 -1.44594e+07 2.95967e-12 -3.73523e+06 2.87979e-12 -2.91519e+07)
(-6.71411e+07 -597668 -1.16777e-11 -23339.2 7.90115e-14 -1.66649e+07)
(-8.60899e+07 -1.68522e+07 1.10144e-12 -7.87462e+06 9.1859e-13 -2.33145e+07)
(8.61036e+07 -1.68579e+07 6.68334e-13 7.87658e+06 -7.31464e-13 2.33184e+07)
(-3.6195e+07 885219 6.21466e-13 -2.65104e+06 2.83995e-13 -9.63849e+06)
(3.23063e+07 -2.6262e+06 5.16372e-12 860829 3.90888e-12 8.22944e+06)
(-3.84087e+07 3.70396e+06 1.17956e-12 -4.50695e+06 1.73194e-13 -1.06482e+07)
(9.49272e+07 -995694 3.76426e-12 -13269.9 -7.38404e-13 2.35501e+07)
(-9.49193e+07 -995163 7.28352e-12 13296.3 6.9179e-12 -2.35481e+07)
(-1.83589e+07 -1.44337e+07 0 -1.27439e+07 0 -7.71722e+06)
(1.83635e+07 -1.44378e+07 -7.46318e-13 1.27468e+07 2.29272e-13 7.71911e+06)
(-2.43325e+07 58891.3 2.79601e-12 -2.10787e+06 1.22648e-12 -6.56039e+06)
(-6.61821e+07 -1.88085e+06 -1.68897e-12 -145510 -3.41898e-12 -1.64572e+07)
(9.47244e+07 -384610 3.32031e-12 114911 -6.2524e-12 2.35316e+07)
(-9.47164e+07 -384110 4.07927e-12 -114913 5.17503e-12 -2.35296e+07)
(25207.7 -188435 0 111047 0 33807.6)
(-25037.2 -187487 1.3077e-15 -110526 1.40863e-15 -33636)
(2.06086e+07 9.60097e+06 -7.08341e-13 1.69015e+06 5.4635e-14 5.53278e+06)
(-2.59486e+07 -722606 2.75957e-12 -2.31936e+06 -7.07077e-13 -7.01386e+06)
(-1.0982e+07 -5.66579e+06 -3.20915e-13 -1.81614e+06 2.11236e-14 -3.17547e+06)
(1.09865e+07 -5.66195e+06 1.88584e-13 1.81407e+06 8.38534e-14 3.17608e+06)
(-3.19081e+07 2.90513e+06 -1.69579e-12 -4.13892e+06 -2.08746e-12 -8.94399e+06)
(2.46239e+06 3.52505e+06 1.77285e-12 518265 -3.93285e-13 739561)
(6.78308e+06 -3.68441e+06 3.3793e-12 44473.4 3.13535e-12 1.69405e+06)
(-1.01207e+08 -3.17764e+06 2.62797e-12 -705224 1.84336e-12 -2.52864e+07)
(1.01215e+08 -3.17816e+06 3.61517e-12 705289 -5.48823e-12 2.52885e+07)
(-1.76299e+07 -1.51066e+06 1.145e-11 -76572.2 -5.47411e-12 -4.39334e+06)
(-7.95156e+07 -2.91792e+07 1.01063e-12 -1.14836e+07 1.19353e-12 -2.25788e+07)
(7.95305e+07 -2.91842e+07 9.87429e-14 1.14852e+07 -8.11533e-14 2.25829e+07)
(-3.05179e+07 -1.47786e+06 -3.05456e-12 -46355.6 -1.40041e-11 -7.58362e+06)
(8.91768e+07 -4.38318e+06 -2.12944e-12 2.3939e+06 -1.77374e-12 2.27205e+07)
(-8.91682e+07 -4.38207e+06 4.7279e-12 -2.39346e+06 3.93798e-12 -2.27183e+07)
(7.33592e+07 -4.9131e+06 -7.09794e-13 7.11188e+06 -2.63615e-12 1.99665e+07)
(-7.33516e+07 -4.90913e+06 -2.73633e-12 -7.10852e+06 -3.09179e-12 -1.99638e+07)
(1.89369e+06 -2.84318e+06 2.60659e-14 4.67515e+06 -1.40262e-13 1.62986e+06)
(-1.8938e+06 -2.84448e+06 1.78816e-13 -4.67858e+06 1.31626e-13 -1.63074e+06)
(4.78979e+06 -2.8277e+06 -8.60195e-12 -437925 -1.58298e-11 1.07979e+06)
(9.1829e+07 -3.45161e+06 -1.43987e-12 1.9849e+06 -5.38447e-12 2.32771e+07)
(-9.18204e+07 -3.45061e+06 -2.41482e-12 -1.98458e+06 -9.61338e-13 -2.32749e+07)
(-6.10724e+07 -1.64448e+06 -3.22504e-12 -84287.6 -2.56901e-12 -1.51742e+07)
(8.9069e+07 -2.48642e+06 4.01627e-12 652171 4.04076e-12 2.22617e+07)
(-8.90608e+07 -2.48589e+06 -1.7114e-12 -652074 3.46713e-12 -2.22596e+07)
(9.82383e+07 -212628 6.32498e-12 114562 -1.17878e-11 2.44033e+07)
(3.6808e+07 -2.06761e+06 2.91272e-13 303387 -4.63362e-12 9.20808e+06)
(-1.10393e+08 -1.70154e+07 4.95219e-12 -4.42775e+06 4.9546e-12 -2.84893e+07)
(1.10404e+08 -1.7018e+07 -4.95263e-12 4.42833e+06 4.95496e-12 2.84923e+07)
(3.91782e+07 3.15662e+06 3.20514e-12 5.27925e+06 -1.33949e-12 1.10308e+07)
(6.31097e+07 -2.03049e+06 -3.55163e-13 84855.5 2.14638e-12 1.56799e+07)
(6.24924e+07 -2.10676e+06 -1.16537e-11 164283 9.91038e-12 1.55464e+07)
(-4.97165e+07 -2.60954e+06 -1.08052e-12 -633388 1.70851e-12 -1.24928e+07)
(2.29871e+07 8.41702e+06 1.2586e-12 1.45978e+06 -4.69669e-13 6.06576e+06)
(291047 -3.89733e+06 1.08857e-11 521233 -1.19031e-11 201543)
(-3.40612e+07 5.28265e+06 1.00776e-12 -4.50765e+06 -6.40862e-13 -9.56973e+06)
(5.20859e+07 -831414 -7.74618e-13 -88255.1 9.26424e-12 1.29017e+07)
(-4.86633e+07 -2.08866e+06 7.48368e-13 -500943 -3.25835e-12 -1.21987e+07)
(-1.05483e+08 -7.50013e+06 -3.03966e-12 -3.89751e+06 -2.35311e-12 -2.71396e+07)
(1.05493e+08 -7.5019e+06 4.62265e-12 3.89824e+06 -4.94019e-12 2.71422e+07)
(-2.26536e+07 -2.96296e+06 -7.69492e-12 137373 3.69827e-13 -5.58673e+06)
(-1.68337e+07 7.89879e+06 -1.21248e-12 -2.48603e+06 2.9727e-13 -4.79361e+06)
(-6.65889e+07 -347910 3.09158e-12 2228.86 1.10953e-12 -1.65215e+07)
(-6.73555e+07 -1.12638e+06 -7.82021e-12 -160796 -2.91949e-12 -1.67522e+07)
(8.10194e+07 -1.52154e+06 0 11613.1 0 2.01054e+07)
(-6.17037e+07 -588696 -6.58369e-12 -160321 -4.42372e-12 -1.53497e+07)
(5.35711e+07 -2.79568e+06 -6.49178e-12 2.14312e+06 -3.39028e-13 1.38238e+07)
(-5.35618e+07 -2.7952e+06 2.45477e-12 -2.14152e+06 -2.20037e-12 -1.38211e+07)
(2.11243e+07 3.93544e+06 8.07492e-13 -1.75455e+06 -3.60547e-13 4.80603e+06)
(3.61247e+06 6.27417e+06 -2.09727e-12 831034 9.93343e-13 1.10252e+06)
(5.69721e+07 523586 -9.76034e-12 440803 6.36998e-12 1.42453e+07)
(9.15525e+07 -1.79518e+06 3.02663e-12 635149 -4.00072e-13 2.28736e+07)
(-9.15443e+07 -1.79465e+06 -5.83742e-12 -634995 -4.78601e-12 -2.28715e+07)
(1.00637e+08 -1.42712e+07 -5.58542e-12 5.22405e+06 6.57311e-12 2.62664e+07)
(-1.00626e+08 -1.42677e+07 -2.74983e-13 -5.22273e+06 -1.51308e-12 -2.62632e+07)
(7.61029e+06 -1.72941e+06 -1.06422e-12 234625 3.76492e-12 1.94648e+06)
(-1.44836e+07 8.53011e+06 -4.76121e-12 -1.6176e+06 -7.29292e-13 -3.99503e+06)
(7.82315e+07 -2.63429e+07 -1.95743e-13 1.21001e+07 1.68229e-13 2.24131e+07)
(-7.82164e+07 -2.63387e+07 1.32663e-13 -1.20989e+07 -2.04487e-13 -2.24091e+07)
(3.95653e+07 -1.14884e+06 2.23489e-11 677745 -1.1493e-12 9.98512e+06)
(-2.2908e+07 -1.81551e+06 8.40229e-12 -1.00195e+06 3.2633e-12 -5.93255e+06)
(-4.28685e+07 -1.61691e+06 1.1231e-12 64952.6 3.48581e-12 -1.06204e+07)
(1.00789e+07 -1.86295e+06 -5.83034e-12 181999 1.57126e-12 2.54595e+06)
(5.90262e+06 -2.58957e+06 -2.17054e-12 -111044 -1.01373e-11 1.43701e+06)
(-6.18832e+07 -2.04453e+07 -5.21037e-14 -1.06962e+07 -1.4811e-13 -1.80084e+07)
(6.18946e+07 -2.04471e+07 -3.29649e-14 1.06977e+07 1.14681e-13 1.80116e+07)
(-5.34948e+07 -2.02619e+06 -7.04863e-12 -1.47258e+06 -7.00486e-12 -1.36385e+07)
(5.3506e+07 -2.02789e+06 1.16152e-12 1.46913e+06 -8.85364e-12 1.36404e+07)
(4.51762e+07 -2.64982e+06 -2.20442e-11 -283115 -3.80903e-12 1.11389e+07)
(-5.55748e+07 -2.15521e+06 2.26921e-12 -12663.1 4.80383e-12 -1.37924e+07)
(1.11393e+07 -3.20031e+06 2.99594e-11 -162936 -2.66171e-11 2.72346e+06)
(-1.08924e+07 -3.06696e+06 -4.5162e-12 31877.8 -7.32671e-13 -2.69473e+06)
(-22919.5 -73798.3 -2.0221e-14 -836505 -2.23762e-14 -213241)
(22382.6 -73179 -2.14963e-14 840283 2.18312e-14 214045)
(-2.3031e+07 -2.34784e+06 -5.99508e-12 -69113.1 -4.59491e-12 -5.73161e+06)
(-2.86968e+07 -2.00936e+06 1.42782e-11 -175372 1.05182e-11 -7.16378e+06)
(1.32072e+07 1.13407e+07 -2.98128e-12 451068 1.34812e-13 3.38889e+06)
(4.5584e+07 -4.45059e+06 -2.62171e-14 4.83586e+06 -2.38128e-13 1.25102e+07)
(2.52437e+06 -1.52009e+06 -8.65881e-12 -322072 -8.92377e-12 546434)
(-2.2125e+07 -2.99151e+06 3.8571e-12 -195975 -5.0009e-13 -5.53828e+06)
(-8.72221e+07 -5.24697e+06 -6.082e-13 -4.09318e+06 -4.11095e-12 -2.26572e+07)
(8.72307e+07 -5.2485e+06 2.73496e-12 4.094e+06 -1.45982e-12 2.26595e+07)
(-1.01276e+08 -1.11432e+06 0 18714.1 0 -2.5124e+07)
(1.01284e+08 -1.11439e+06 -1.52511e-12 -18728.1 3.27317e-12 2.51259e+07)
(-4.91871e+07 -2.16463e+06 -5.13386e-12 86726.7 6.69791e-12 -1.21828e+07)
(6.54989e+07 -2.10201e+06 2.90825e-12 100744 1.21443e-12 1.62766e+07)
(-9.48299e+07 -983124 3.05547e-12 85858.4 -3.35456e-13 -2.35079e+07)
(9.48378e+07 -983299 0 -85697.1 0 2.35099e+07)
(1.47149e+06 -1.67645e+06 -1.24285e-13 2.32672e+06 4.45725e-14 942412)
(8.47529e+06 1.0756e+07 -1.28437e-12 603767 -1.5929e-15 2.2527e+06)
(-8.74843e+07 -1.26709e+07 9.48012e-13 -6.95489e+06 3.06202e-13 -2.34323e+07)
(8.74947e+07 -1.26759e+07 0 6.95743e+06 0 2.34355e+07)
(-1.3286e+07 -365528 -1.95296e-13 2.62723e+06 2.18728e-14 -2.64467e+06)
(1.49887e+07 -7.2113e+06 3.58952e-14 2.69872e+06 -2.56505e-14 4.38861e+06)
(-1.49807e+07 -7.20747e+06 -1.40897e-14 -2.70588e+06 1.61554e-13 -4.38841e+06)
(3.21888e+07 2.4879e+06 -4.90709e-12 4.75122e+06 2.24783e-12 9.16556e+06)
(3.29732e+07 -2.64699e+06 -9.82219e-12 308660 -6.80844e-13 8.2579e+06)
(-6.37689e+06 -3.83784e+06 -3.93089e-12 412854 -1.07024e-11 -1.4798e+06)
(-201609 -1.93675e+06 2.65828e-11 572007 8.41128e-12 91903.3)
(-903.889 22459.9 4.96234e-14 491741 -6.44047e-14 121787)
(917.597 21477 -4.95726e-14 -489950 -6.4228e-14 -121339)
(925648 -2.48519e+06 1.69397e-13 6.59399e+06 1.72068e-13 1.86577e+06)
(-926245 -2.48681e+06 4.08558e-13 -6.59879e+06 1.9659e-13 -1.86711e+06)
(4.44151e+07 -2.57338e+06 4.80613e-12 170916 -2.28519e-12 1.10627e+07)
(-4.96278e+07 -2.38449e+06 -1.87141e-12 -3.71302e+06 -6.63176e-12 -1.32349e+07)
(4.96373e+07 -2.38711e+06 5.44433e-13 3.71358e+06 8.82737e-14 1.32374e+07)
(1.40132e+06 230410 -5.34439e-12 142198 -4.44683e-12 382978)
(3.22095e+07 -2.90532e+06 2.10435e-12 139648 -4.90464e-12 8.02648e+06)
(1.92366e+06 -2.40805e+06 -5.45227e-14 2.84462e+06 -2.8318e-14 1.18311e+06)
(-1.92553e+06 -2.41792e+06 -8.53592e-14 -2.85121e+06 -7.36895e-14 -1.18521e+06)
(-4.02256e+07 2.37419e+06 1.03298e-12 -6.08552e+06 -2.03883e-12 -1.14907e+07)
(-2.70523e+07 5.82224e+06 1.0918e-12 120435 7.37601e-13 -6.68235e+06)
(-2.15844e+07 1.45575e+06 -7.16817e-13 2.52378e+06 -4.32403e-13 -4.72934e+06)
(3.34571e+07 -3.02826e+06 -9.28171e-13 -51003.5 1.43271e-12 8.28872e+06)
(-7.71316e+07 -419862 5.79992e-12 -113126 -7.25191e-13 -1.9166e+07)
(1.02816e+07 -2.44518e+06 -1.55791e-12 18982.7 -7.43236e-12 2.5558e+06)
(4.50664e+07 1.69957e+06 -3.93336e-12 5.27567e+06 3.77192e-12 1.24909e+07)
(-5.40818e+07 -3.46661e+06 5.6999e-13 -6.04611e+06 8.17323e-13 -1.4919e+07)
(-1.89993e+07 5.82103e+06 -1.28949e-13 -2.63656e+06 4.92594e-13 -5.3683e+06)
(5.40784e+07 -3.38298e+06 -2.64865e-12 5.94921e+06 1.95963e-12 1.48941e+07)
(-8.78427e+07 -876009 -7.19455e-12 470768 -1.77063e-13 -2.16788e+07)
(8.87883e+06 -2.13468e+06 -3.28462e-13 715910 1.80431e-13 2.38065e+06)
(3.75401e+07 -1.74338e+06 -9.76145e-12 239990 -3.14824e-12 9.374e+06)
(-3.21816e+07 -2.23859e+07 -5.53271e-13 -1.82429e+07 -1.71607e-13 -1.25113e+07)
(3.21882e+07 -2.23906e+07 -9.22084e-13 1.82471e+07 5.26136e-13 1.2514e+07)
(-1.74626e+07 -838045 7.43928e-13 -1.42958e+06 2.76825e-12 -4.68753e+06)
(1.12769e+07 1.01735e+07 -2.08172e-12 889817 8.38524e-14 3.01882e+06)
(8.29712e+07 -7.56729e+06 -1.22109e-13 6.71369e+06 7.13344e-13 2.22526e+07)
(-8.29627e+07 -7.56359e+06 -1.58319e-12 -6.71138e+06 -7.957e-13 -2.225e+07)
(-6.45815e+07 -680415 2.51416e-11 505661 1.82195e-12 -1.58985e+07)
(6.48843e+07 -659920 -1.3704e-11 -527686 2.01763e-11 1.59682e+07)
(65617.1 -176879 0 130951 0 48772.5)
(-65263.2 -175990 2.15895e-15 -130344 1.64613e-14 -48534.1)
(-3.50614e+07 4.98486e+06 -2.12469e-12 -3.95176e+06 -1.73927e-12 -9.67997e+06)
(1.88335e+07 -1.79954e+07 -5.85462e-13 1.76416e+07 2.52208e-13 9.05023e+06)
(-1.88289e+07 -1.79908e+07 1.24618e-12 -1.76371e+07 7.90807e-13 -9.04796e+06)
(-2.75752e+07 -1.1582e+06 -3.08158e-12 399702 1.53721e-11 -6.74279e+06)
(1.29115e+07 -1.54594e+06 2.9574e-12 348730 6.70866e-12 3.29012e+06)
(-4.98691e+07 -2.5808e+06 3.78675e-12 -397254 -6.52861e-12 -1.24721e+07)
(4.98928e+07 -2.59884e+06 -5.87001e-13 350175 7.60391e-12 1.24663e+07)
(9.45244e+07 -3.76816e+06 4.30373e-13 1.83018e+06 -1.87606e-12 2.39075e+07)
(-9.45159e+07 -3.76724e+06 -2.64478e-12 -1.82984e+06 -1.06749e-12 -2.39053e+07)
(-35622.7 -6422.47 2.81595e-14 130967 -1.23223e-13 23656.8)
(35639.9 -6353.1 -2.08654e-14 -129820 -4.41044e-14 -23368.1)
(6.24817e+06 1.24262e+07 -7.71314e-13 -164940 -4.28946e-13 1.50937e+06)
(-1.10163e+08 -6.55993e+06 4.86207e-12 -3.06678e+06 1.26825e-12 -2.80946e+07)
(1.10172e+08 -6.56115e+06 -5.45099e-12 3.06726e+06 9.39973e-12 2.80971e+07)
(-5.76418e+06 -2.17945e+06 8.65022e-13 -64007.1 -4.02514e-12 -1.44609e+06)
(-4.32019e+07 -117283 1.53727e-12 -3.52626e+06 8.8278e-13 -1.15942e+07)
(-9.18618e+07 -579335 1.6411e-12 -200836 2.92394e-12 -2.28426e+07)
(9.18697e+07 -579749 -4.85186e-12 201010 7.30995e-12 2.28446e+07)
(-9.6924e+07 -2.21339e+07 6.88096e-14 -7.93393e+06 -1.09282e-13 -2.60174e+07)
(9.69387e+07 -2.2139e+07 1.97185e-12 7.9358e+06 -1.31928e-12 2.60215e+07)
(1.86052e+07 -3.34945e+06 -9.2533e-12 -230239 2.12128e-11 4.55921e+06)
(-4.0019e+07 -2.7923e+06 4.1767e-12 199892 2.63846e-12 -9.87992e+06)
(-6.53739e+06 1.05862e+07 1.17344e-12 -669279 -5.1921e-13 -1.78812e+06)
(-2.78695e+07 -1.80903e+07 -5.46284e-13 -1.37779e+07 -3.2771e-13 -1.03336e+07)
(2.78753e+07 -1.80947e+07 5.46485e-13 1.37822e+07 -3.27624e-13 1.03361e+07)
(-1.08983e+08 -5.98791e+06 -3.57217e-12 -1.87725e+06 -2.82692e-12 -2.75067e+07)
(1.08992e+08 -5.98878e+06 -2.25959e-12 1.87744e+06 6.16327e-13 2.7509e+07)
(-1.82574e+07 9.32703e+06 -1.8545e-12 -989553 -3.4087e-13 -4.77556e+06)
(-6.14442e+07 -2.30081e+06 0 -462777 0 -1.53604e+07)
(-2.25875e+07 1.7014e+06 -1.72715e-13 1.41426e+06 -1.14689e-13 -5.25351e+06)
(-6.24066e+07 -1.82305e+06 9.38864e-12 178206 -3.70775e-12 -1.54401e+07)
(-6.20657e+07 -1.8917e+06 -5.99437e-12 -414707 -8.56629e-12 -1.55027e+07)
(-3.70744e+07 1.45893e+06 -2.27641e-12 -5.30352e+06 -1.51094e-12 -1.05148e+07)
(-4.07211e+07 -598532 7.05928e-12 -81267.4 -5.41675e-12 -1.01239e+07)
(4.08281e+07 -827566 3.9608e-12 4.30319e+06 -2.78654e-12 1.1198e+07)
(3.11506e+07 -1.94081e+06 4.29994e-12 69954.5 -5.29008e-12 7.74645e+06)
(-4.08155e+07 -827700 2.98357e-12 -4.30453e+06 1.31431e-12 -1.11952e+07)
(1.07072e+08 -1.34429e+07 3.28595e-12 5.12985e+06 -2.04333e-12 2.78396e+07)
(-1.07061e+08 -1.344e+07 1.49035e-12 -5.12874e+06 6.04365e-13 -2.78365e+07)
(-3.28115e+07 4.93974e+06 -3.80095e-13 -4.65291e+06 1.61894e-12 -9.29568e+06)
(1.28245e+07 2.66676e+06 -1.64271e-12 2.04182e+06 1.22286e-12 3.68862e+06)
(1.77311e+07 -2.03346e+06 -1.2907e-12 137336 2.19748e-11 4.43352e+06)
(-6.36739e+07 -2.4073e+06 5.89497e-12 45342.5 -3.31637e-12 -1.57875e+07)
(-5.12167e+07 -746015 -1.45555e-12 -6.37667e+06 -8.19522e-13 -1.42901e+07)
(-3.589e+06 4.09334e+06 1.42889e-13 1.18058e+06 -9.49935e-14 -597578)
(-3.21896e+07 6.24113e+06 -1.75235e-12 -3.80832e+06 -4.0412e-13 -8.93181e+06)
(1.20431e+07 -2.5689e+06 2.53271e-11 48902 -2.25314e-11 3.00027e+06)
(4.33192e+07 -146465 6.75866e-13 3.69341e+06 -1.29466e-12 1.16648e+07)
(4.50692e+06 -3.77554e+06 -6.71258e-12 152430 -2.04505e-11 1.15608e+06)
(1.9508e+06 1.1448e+07 -6.95639e-13 114729 5.32977e-13 512500)
(-9.47407e+06 -3.33305e+06 1.20222e-12 85173.8 -1.22406e-11 -2.32958e+06)
(3.96945e+07 -1.82733e+06 6.30859e-13 417999 3.8516e-12 9.95272e+06)
(2.15504e+07 -1.70869e+06 -1.5196e-11 435485 -2.78918e-13 5.45515e+06)
(-9.05507e+07 -678574 -9.55749e-12 -28907.4 -1.26821e-11 -2.24747e+07)
(-4.26218e+07 -1.6795e+06 0 -369289 0 -1.0667e+07)
(7.27626e+07 -5.44426e+06 7.81613e-13 7.5183e+06 -1.70171e-12 1.99193e+07)
(-7.27552e+07 -5.44031e+06 -9.09247e-13 -7.51477e+06 -1.47351e-12 -1.99166e+07)