/*--------------------------------*- C++ -*----------------------------------*\
| =========                 |                                                 |
| \\      /  F ield         | OpenFOAM: The Open Source CFD Toolbox           |
|  \\    /   O peration     | Version:  v3.0+                                 |
|   \\  /    A nd           | Web:      www.OpenFOAM.com                      |
|    \\/     M anipulation  |                                                 |
\*---------------------------------------------------------------------------*/
FoamFile
{
    version     2.0;
    format      ascii;
    class       volScalarField;
    location    "7000";
    object      sigmaxz;
}
// * * * * * * * * * * * * * * * * * * * * * * * * * * * * * * * * * * * * * //

dimensions      [1 -1 -2 0 0 0 0];

internalField   nonuniform List<scalar> 
27023
(
1.61492e-13
1.06116e-13
7.01718e-13
5.38528e-13
0
-5.34555e-13
4.44166e-12
-1.0971e-12
-1.0385e-13
-4.89184e-13
-6.6632e-13
-9.45289e-13
-6.74468e-14
3.58973e-14
8.12771e-13
9.95668e-13
-9.01682e-13
0
3.29826e-12
0
-7.15376e-14
2.9284e-15
-2.57909e-12
-9.13034e-13
2.33856e-12
3.76594e-12
1.74875e-12
8.23349e-12
-1.3659e-12
-5.06567e-12
9.7289e-12
4.05735e-13
5.0028e-12
-4.82554e-13
9.90256e-13
-1.06975e-11
1.71019e-12
3.4203e-12
1.91847e-13
-2.778e-13
-2.05667e-13
-9.117e-14
-1.08235e-11
-1.11758e-13
1.11737e-13
5.08919e-12
-3.6726e-12
-4.7846e-12
4.78459e-12
-3.23349e-12
3.61351e-12
-1.4108e-12
8.42104e-12
4.58606e-15
1.01532e-13
1.75914e-12
2.85032e-12
1.33258e-11
-2.39043e-12
-1.09179e-12
-7.33005e-13
-1.9423e-11
7.84526e-12
4.46049e-12
-1.15708e-11
-2.29158e-12
1.19365e-12
-5.16535e-12
1.12879e-12
-1.1322e-11
0
-3.45634e-12
-3.31676e-13
-1.9239e-12
-2.06799e-12
-1.2367e-12
1.24261e-14
-6.60182e-14
7.67829e-12
-3.51128e-12
1.22906e-12
4.1411e-12
-3.25685e-12
-6.10647e-13
1.53646e-12
-4.90361e-12
-2.63498e-12
2.88763e-12
5.44996e-12
-4.7276e-12
2.78581e-12
1.40016e-13
-2.79585e-13
-3.93714e-13
-8.56194e-14
-3.77872e-12
-3.97892e-12
3.60021e-12
-5.77521e-12
3.13214e-12
-2.14114e-12
-9.01448e-12
-3.4505e-12
-3.82033e-14
2.12267e-12
1.36224e-11
-1.30649e-12
9.3566e-13
-5.04163e-12
2.80918e-11
-1.27278e-11
-9.75678e-14
1.02179e-12
-4.81898e-12
7.36642e-13
2.16507e-12
5.23529e-12
-3.52299e-13
-1.55434e-12
2.44915e-12
-1.37465e-11
8.15238e-12
-7.69645e-13
2.08807e-12
-3.80419e-12
1.76834e-12
-5.54572e-14
3.26089e-13
3.35472e-13
2.36298e-12
-1.08731e-12
2.48028e-14
-1.21904e-14
1.43738e-13
-9.86508e-12
-7.65652e-12
-1.98834e-13
2.39435e-12
2.48731e-12
2.79057e-13
-7.10718e-13
-5.48128e-12
-2.43515e-12
-2.33482e-12
-1.58169e-12
1.83116e-12
-9.21204e-12
-3.27251e-12
1.18035e-12
2.17352e-13
-3.05002e-13
1.16383e-12
-6.70119e-13
2.92417e-12
2.85961e-12
2.07396e-11
-8.83528e-12
5.96545e-12
6.18049e-12
-2.71037e-12
4.40301e-12
-9.82652e-12
9.4112e-12
1.00804e-11
-5.46994e-13
-5.76102e-13
-3.9745e-13
2.1268e-12
-3.38932e-13
-1.64594e-12
1.4344e-12
6.9467e-12
2.36384e-13
-2.28849e-12
0
1.25068e-11
1.30966e-11
-3.24899e-12
-2.39964e-12
3.81606e-13
1.01477e-12
-3.93439e-12
-2.53371e-12
-2.94234e-12
-6.7601e-12
1.91563e-12
1.80678e-12
-1.23202e-12
-6.53775e-12
4.54813e-12
-3.08972e-12
2.08568e-13
-8.36534e-13
-2.32581e-12
1.77436e-12
2.95967e-12
-1.16777e-11
1.10144e-12
6.68334e-13
6.21466e-13
5.16372e-12
1.17956e-12
3.76426e-12
7.28352e-12
0
-7.46318e-13
2.79601e-12
-1.68897e-12
3.32031e-12
4.07927e-12
0
1.3077e-15
-7.08341e-13
2.75957e-12
-3.20915e-13
1.88584e-13
-1.69579e-12
1.77285e-12
3.3793e-12
2.62797e-12
3.61517e-12
1.145e-11
1.01063e-12
9.87429e-14
-3.05456e-12
-2.12944e-12
4.7279e-12
-7.09794e-13
-2.73633e-12
2.60659e-14
1.78816e-13
-8.60195e-12
-1.43987e-12
-2.41482e-12
-3.22504e-12
4.01627e-12
-1.7114e-12
6.32498e-12
2.91272e-13
4.95219e-12
-4.95263e-12
3.20514e-12
-3.55163e-13
-1.16537e-11
-1.08052e-12
1.2586e-12
1.08857e-11
1.00776e-12
-7.74618e-13
7.48368e-13
-3.03966e-12
4.62265e-12
-7.69492e-12
-1.21248e-12
3.09158e-12
-7.82021e-12
0
-6.58369e-12
-6.49178e-12
2.45477e-12
8.07492e-13
-2.09727e-12
-9.76034e-12
3.02663e-12
-5.83742e-12
-5.58542e-12
-2.74983e-13
-1.06422e-12
-4.76121e-12
-1.95743e-13
1.32663e-13
2.23489e-11
8.40229e-12
1.1231e-12
-5.83034e-12
-2.17054e-12
-5.21037e-14
-3.29649e-14
-7.04863e-12
1.16152e-12
-2.20442e-11
2.26921e-12
2.99594e-11
-4.5162e-12
-2.0221e-14
-2.14963e-14
-5.99508e-12
1.42782e-11
-2.98128e-12
-2.62171e-14
-8.65881e-12
3.8571e-12
-6.082e-13
2.73496e-12
0
-1.52511e-12
-5.13386e-12
2.90825e-12
3.05547e-12
0
-1.24285e-13
-1.28437e-12
9.48012e-13
0
-1.95296e-13
3.58952e-14
-1.40897e-14
-4.90709e-12
-9.82219e-12
-3.93089e-12
2.65828e-11
4.96234e-14
-4.95726e-14
1.69397e-13
4.08558e-13
4.80613e-12
-1.87141e-12
5.44433e-13
-5.34439e-12
2.10435e-12
-5.45227e-14
-8.53592e-14
1.03298e-12
1.0918e-12
-7.16817e-13
-9.28171e-13
5.79992e-12
-1.55791e-12
-3.93336e-12
5.6999e-13
-1.28949e-13
-2.64865e-12
-7.19455e-12
-3.28462e-13
-9.76145e-12
-5.53271e-13
-9.22084e-13
7.43928e-13
-2.08172e-12
-1.22109e-13
-1.58319e-12
2.51416e-11
-1.3704e-11
0
2.15895e-15
-2.12469e-12
-5.85462e-13
1.24618e-12
-3.08158e-12
2.9574e-12
3.78675e-12
-5.87001e-13
4.30373e-13
-2.64478e-12
2.81595e-14
-2.08654e-14
-7.71314e-13
4.86207e-12
-5.45099e-12
8.65022e-13
1.53727e-12
1.6411e-12
-4.85186e-12
6.88096e-14
1.97185e-12
-9.2533e-12
4.1767e-12
1.17344e-12
-5.46284e-13
5.46485e-13
-3.57217e-12
-2.25959e-12
-1.8545e-12
0
-1.72715e-13
9.38864e-12
-5.99437e-12
-2.27641e-12
7.05928e-12
3.9608e-12
4.29994e-12
2.98357e-12
3.28595e-12
1.49035e-12
-3.80095e-13
-1.64271e-12
-1.2907e-12
5.89497e-12
-1.45555e-12
1.42889e-13
-1.75235e-12
2.53271e-11
6.75866e-13
-6.71258e-12
-6.95639e-13
1.20222e-12
6.30859e-13
-1.5196e-11
-9.55749e-12
0
7.81613e-13
-9.09247e-13
-7.20955e-13
-1.84827e-12
-2.36094e-11
3.78218e-13
-8.91333e-13
1.70385e-12
1.0134e-11
2.0606e-12
3.68342e-12
-2.90722e-12
8.41414e-15
-1.0809e-14
5.77834e-12
3.34305e-13
-4.91761e-13
-6.43599e-12
5.43304e-12
-7.54184e-12
0
-7.89407e-12
3.46255e-13
-3.87643e-12
1.08491e-11
-6.97071e-12
0
-3.58446e-13
9.19991e-12
2.71419e-13
1.06047e-11
0
2.26109e-12
-4.41332e-12
-1.61771e-12
3.19317e-12
-1.49287e-12
9.5539e-14
1.51979e-13
-3.22034e-13
-8.79206e-12
-2.31243e-11
-3.80848e-13
-5.34686e-12
2.14239e-15
-4.18483e-17
-6.52691e-13
5.53715e-12
7.83567e-13
-4.81148e-15
3.76173e-13
1.91071e-13
-1.90697e-13
-7.06263e-13
1.28731e-12
-2.82962e-12
-5.6042e-12
1.24816e-12
1.74779e-12
2.19175e-12
3.27425e-12
-1.45877e-12
-4.62164e-12
-4.40045e-12
-5.43146e-12
-9.01863e-12
-4.27729e-12
2.1255e-12
6.76296e-15
1.1341e-11
2.63898e-11
0
1.25668e-12
-1.31152e-12
1.36429e-12
0
-1.58777e-12
7.19965e-12
1.22636e-11
-4.63711e-13
7.00148e-13
-4.85499e-12
2.26006e-12
-2.53996e-12
4.48912e-12
2.98936e-12
-8.38268e-13
-9.21206e-12
-3.06676e-11
-5.72397e-12
2.59533e-12
4.0604e-12
4.45646e-13
-4.55417e-12
-3.90088e-13
-6.02898e-13
-2.094e-12
-1.70215e-13
-1.50695e-12
9.72788e-12
2.11403e-12
5.7952e-15
-9.29903e-15
-6.96703e-12
6.44794e-13
2.62842e-12
1.92467e-12
1.31179e-13
1.52827e-12
2.16169e-12
-1.79049e-12
-2.76201e-12
-1.37609e-12
3.14133e-13
1.42662e-12
3.06526e-12
-2.73174e-12
-5.05358e-12
5.15167e-12
-5.80274e-13
-6.19204e-12
3.09596e-12
3.19004e-12
-1.00401e-12
2.34332e-12
-1.00849e-11
-4.93592e-12
6.09611e-12
-2.86908e-12
2.61054e-13
9.43858e-12
-1.62721e-12
5.12299e-14
3.09698e-13
4.34071e-13
-4.34393e-13
-5.10861e-12
-4.72345e-12
-8.12254e-13
4.93312e-12
2.06707e-12
1.0609e-11
3.3191e-12
-2.5285e-13
1.14943e-11
3.90819e-13
5.48867e-13
2.46078e-13
-9.49026e-13
-1.06471e-11
-1.36167e-11
5.73293e-12
-8.39012e-13
-1.49788e-12
-1.46008e-12
7.114e-12
1.18287e-11
3.97023e-12
-2.6667e-13
-1.12548e-11
1.57674e-12
6.57368e-12
2.30532e-12
-5.1879e-12
8.22976e-12
1.04966e-12
0
0
5.83283e-12
6.06362e-12
3.2544e-12
1.12602e-12
1.4451e-13
0
1.71198e-12
1.20716e-12
-3.45741e-13
-6.36049e-13
2.03998e-12
1.17047e-12
-1.22814e-12
-5.95766e-12
9.92044e-13
0
-6.01139e-12
2.02327e-12
8.476e-14
-6.37154e-12
9.76462e-13
-2.64311e-13
0
-6.44308e-12
1.24437e-12
-2.81951e-12
-6.27974e-12
3.27913e-12
-3.12391e-12
-1.35878e-11
-2.74316e-12
1.72147e-12
-4.02468e-12
4.50156e-12
-2.39265e-12
3.43841e-12
1.1584e-12
1.6837e-14
-5.76947e-12
4.62221e-12
-1.00228e-12
4.2382e-12
-4.23828e-12
-6.46531e-12
3.65543e-13
-8.24626e-12
-5.42791e-13
-1.84658e-11
-2.99601e-11
-2.29828e-12
-2.80995e-12
-4.15749e-11
-1.0573e-14
-7.22618e-15
9.07913e-16
7.45581e-16
-5.69285e-12
-6.72333e-14
8.68293e-14
0
-9.99899e-13
-3.18523e-14
3.1743e-14
3.23411e-13
-2.3669e-13
7.9936e-13
-1.24677e-12
3.0995e-12
-1.09586e-12
1.46832e-12
2.05553e-12
-5.01506e-12
-2.37054e-12
-2.47881e-12
-3.26287e-12
3.31061e-12
2.1479e-12
5.07496e-12
-1.74478e-12
-9.72205e-13
2.60861e-12
0
3.88421e-12
-1.3596e-12
3.30943e-12
0
4.08655e-13
1.53412e-12
-3.6869e-12
-2.87226e-12
-1.98589e-15
2.85035e-15
-5.2483e-12
-2.86822e-12
-9.0957e-12
-6.73607e-12
7.72148e-13
9.2872e-12
-2.1294e-12
-6.18574e-13
0
-5.03512e-12
1.79109e-13
-4.77431e-12
-9.50012e-12
-7.20749e-14
6.33325e-12
-1.10124e-11
-1.65775e-12
-1.21634e-11
2.63285e-12
0
5.47913e-12
3.1412e-14
9.99192e-15
-3.73935e-13
3.27939e-12
2.23991e-12
2.58314e-12
-2.28682e-12
-6.30042e-12
2.65186e-11
-4.34005e-12
-8.14256e-13
9.90916e-12
3.50727e-12
-6.78706e-12
-4.57629e-12
-8.36009e-14
-4.9205e-14
-1.63593e-12
-1.83491e-12
1.53089e-14
-1.18673e-11
1.75406e-12
8.769e-13
3.33336e-12
2.22281e-12
-1.16062e-15
7.31325e-15
-2.18268e-12
-1.89836e-15
-5.86323e-12
5.8074e-13
2.17454e-12
-1.03399e-12
-1.11687e-11
3.79346e-13
1.01378e-13
0
4.78037e-12
-1.69002e-13
-2.15145e-13
2.25364e-12
-2.56791e-13
-1.07282e-11
-8.10263e-13
-6.46969e-12
-2.10063e-12
-4.25441e-12
0
2.9931e-12
-1.00365e-11
8.20958e-13
-2.79354e-12
1.0406e-12
6.33614e-12
-7.14609e-13
-1.42863e-12
7.15149e-13
-7.02936e-13
-4.25528e-13
1.85962e-12
4.64734e-13
2.10774e-12
1.54581e-12
-3.99754e-12
1.6922e-12
3.83659e-12
1.24347e-12
5.44719e-13
-7.99502e-13
-3.96612e-12
-7.10286e-13
-4.74093e-12
5.19536e-13
7.49751e-12
0
7.69124e-12
6.27389e-13
1.41101e-11
2.75775e-12
3.71331e-12
-1.07861e-12
-4.54743e-13
7.96221e-12
-1.7529e-12
-8.55015e-13
-4.30049e-12
-2.93702e-12
-9.81945e-13
2.52832e-12
-6.41254e-14
-4.90734e-12
1.20095e-12
8.61675e-14
-7.07889e-12
3.50629e-12
1.0412e-12
-5.79225e-12
-4.60892e-12
0
1.73998e-13
-8.09574e-13
-9.38687e-12
0
2.82968e-12
5.80691e-13
-3.99749e-12
-9.37378e-12
2.51767e-12
5.23185e-12
-2.22747e-13
0
0
8.16697e-12
-1.28008e-12
4.06012e-12
1.18559e-11
-1.01803e-11
1.01664e-14
0
9.45441e-12
9.11615e-12
2.79825e-13
-7.37482e-13
-1.27532e-12
-6.16102e-13
2.89093e-13
1.90057e-12
6.33242e-12
3.69064e-13
4.85699e-13
6.21013e-14
-1.52743e-13
-3.44067e-13
2.14018e-11
4.95344e-12
-1.10265e-11
-1.80727e-11
-2.21123e-13
-1.26114e-12
-1.57215e-11
-4.52267e-14
-1.32312e-12
0
-1.10634e-11
2.90909e-12
-2.41679e-12
-6.87618e-14
-7.67529e-13
-5.94661e-12
-1.03878e-12
-5.49184e-12
3.0843e-12
-7.96296e-13
3.49463e-12
1.25236e-11
-1.94145e-13
-9.77679e-14
2.9244e-13
-2.50965e-12
1.78376e-12
1.44531e-12
8.38657e-12
0
-7.00153e-12
3.36495e-12
-1.33075e-12
1.22026e-11
-2.45978e-12
-4.76755e-12
5.37611e-13
7.64553e-13
4.54738e-12
-2.67727e-12
1.16863e-14
4.51042e-14
-2.99719e-12
3.4897e-12
-1.3591e-12
-2.48493e-12
1.03817e-12
-1.4986e-12
0
9.46982e-12
8.41014e-12
9.25055e-12
5.91372e-12
-4.8986e-13
3.52814e-14
-2.51437e-14
5.9642e-13
1.3296e-12
9.32722e-12
-9.63632e-13
1.77732e-12
-1.51083e-13
-5.58402e-12
8.85578e-13
7.88448e-12
-2.32869e-13
9.40646e-14
-3.08453e-12
-3.40427e-12
4.85942e-13
2.68575e-11
4.10689e-11
7.56387e-13
2.87461e-12
-1.63106e-13
-1.28629e-12
0
1.66327e-12
1.05597e-11
-6.38623e-13
3.10299e-12
2.01124e-13
-4.44854e-13
-1.25941e-12
8.54434e-13
8.75502e-13
5.10441e-12
3.09971e-12
6.49897e-12
-2.41729e-12
1.96739e-13
-5.99513e-14
4.18454e-12
-3.419e-13
-4.92174e-13
-4.48458e-12
1.89628e-13
-4.76964e-12
-5.11273e-12
1.86356e-12
-5.90315e-13
1.70072e-12
-1.66464e-12
-2.38131e-11
5.91915e-13
-2.04909e-12
0
-6.30618e-12
3.96025e-13
-3.36518e-12
7.85092e-12
-2.1915e-12
1.56535e-12
2.51169e-12
1.37569e-13
-5.07736e-12
1.12809e-11
-7.62554e-12
-9.15019e-12
0
-2.01253e-13
-1.2385e-12
-2.92968e-13
3.24587e-13
-2.23972e-12
7.74884e-12
5.74627e-13
-1.47625e-12
0
3.56507e-13
7.59691e-14
2.15369e-12
1.01128e-11
1.25761e-13
0
3.63607e-12
1.67122e-13
2.17604e-12
1.74436e-12
-1.87817e-12
3.71806e-12
2.03619e-12
-1.61118e-12
3.55424e-12
1.90398e-12
-2.53373e-13
-6.66069e-15
7.81531e-13
4.09451e-12
1.40388e-11
1.56708e-12
3.31226e-12
-4.09111e-12
-1.8849e-12
4.83635e-12
1.28113e-11
9.89317e-14
-1.40387e-13
0
4.50377e-13
-6.73841e-13
5.81959e-13
4.00554e-12
-3.59912e-12
6.34957e-14
9.6306e-12
1.55985e-12
2.50435e-12
-1.50133e-12
1.57723e-12
4.01812e-12
-1.8083e-14
4.29318e-12
-5.84278e-13
-4.19391e-13
2.07453e-12
-2.35862e-12
6.31763e-12
-9.3186e-13
-1.75388e-13
7.47366e-12
-8.59629e-13
-8.20446e-13
0
3.1173e-12
-1.84084e-12
3.06396e-12
-3.00988e-12
9.57061e-13
1.46691e-13
1.28441e-11
-8.69013e-13
6.98802e-14
-9.04929e-15
-1.58943e-12
-1.17856e-14
-3.79909e-12
2.38694e-12
-1.14495e-12
-8.20901e-12
-1.10649e-12
2.10408e-12
5.62204e-13
-6.36949e-12
2.36686e-12
0
-3.20867e-13
-1.87144e-13
1.56673e-13
-1.07205e-11
-1.27662e-12
-3.56551e-12
-1.00969e-12
2.26113e-12
-2.71702e-13
-2.10624e-12
-1.73889e-12
1.35078e-12
3.18037e-14
-1.31766e-14
2.02065e-13
-2.12571e-12
-5.794e-13
1.44109e-12
-2.4551e-12
-5.77273e-13
4.20472e-12
1.94818e-12
-3.52589e-13
-5.12063e-13
5.7922e-12
-9.88045e-12
-5.43384e-14
-3.01753e-12
3.63495e-12
1.12287e-12
1.03042e-13
-2.88539e-12
-5.1682e-12
-1.17693e-13
-2.35929e-12
-4.69334e-12
1.59611e-12
1.39574e-12
-7.31579e-12
1.14573e-12
1.72475e-13
-7.8591e-14
-6.90025e-12
6.59162e-12
6.70364e-13
9.05025e-13
-1.18401e-11
1.06131e-12
4.87452e-12
-1.42431e-12
2.36214e-12
2.53237e-13
-3.42018e-12
-3.38078e-12
2.6767e-12
-7.56284e-13
-6.28469e-12
-1.40603e-12
-2.61429e-12
6.45063e-12
-9.11095e-12
1.19723e-12
2.7664e-12
-5.94435e-13
4.88971e-12
9.67493e-13
-4.24394e-12
-9.3085e-12
2.66243e-13
2.13557e-12
5.99577e-12
9.33214e-12
2.26174e-12
4.19758e-12
-8.9415e-13
-1.0722e-11
-1.61225e-12
3.86571e-13
1.63687e-12
4.68002e-14
-6.20264e-12
-6.20732e-12
1.03684e-12
-1.83955e-12
2.23729e-13
-4.2904e-13
8.73888e-14
2.73985e-13
1.1389e-13
-2.31449e-11
-2.45864e-11
3.40952e-12
-2.4854e-13
1.88113e-12
-1.18786e-13
-2.57636e-13
5.30034e-13
2.25967e-12
-4.28223e-12
4.48813e-12
-2.01402e-11
5.98826e-13
-2.52823e-15
1.18718e-15
4.13472e-13
4.16416e-12
6.43696e-12
2.45199e-11
2.95378e-12
-3.15283e-12
1.54322e-12
1.76575e-11
1.01006e-11
-4.07934e-12
-6.09318e-12
2.02971e-12
2.32658e-13
-1.85268e-12
-7.37701e-12
-1.82908e-12
1.1342e-12
9.04627e-13
0
2.81512e-12
-2.15348e-12
-8.35571e-13
2.14981e-12
5.57281e-12
-7.20338e-13
8.8267e-13
1.01623e-12
-2.83083e-13
9.14219e-14
8.60669e-13
-1.15632e-12
-3.45926e-13
-3.46158e-13
-1.41169e-11
-1.241e-12
7.47064e-12
-2.6558e-12
2.20198e-12
1.08889e-11
-1.47054e-12
-2.0562e-13
-1.87159e-11
-1.64309e-12
1.53215e-12
9.09139e-12
1.50828e-12
-3.14966e-13
5.78355e-13
5.60162e-12
-3.62089e-11
-1.3423e-12
1.27915e-12
3.35439e-12
1.0754e-11
8.2846e-12
-2.02042e-12
2.86477e-12
-1.79308e-13
1.01287e-13
-1.011e-13
-9.46326e-12
-2.386e-13
-6.82408e-13
2.95087e-13
-9.27371e-13
3.72756e-11
-1.85255e-12
2.75448e-12
-9.47197e-13
1.69316e-12
-2.60187e-12
6.22162e-14
-2.36094e-13
3.4488e-12
-2.69647e-12
5.81217e-12
-4.8412e-12
1.94951e-13
4.42846e-12
8.01561e-13
-9.001e-12
1.60914e-12
-5.97595e-12
1.20398e-13
-1.12412e-12
1.99573e-12
8.61786e-13
-2.88504e-12
7.53576e-13
-5.44622e-12
3.99847e-13
4.49338e-13
-2.15728e-13
-4.21132e-12
-2.18052e-13
2.28049e-13
9.74575e-13
6.04468e-13
-7.15698e-13
3.59765e-12
-1.15196e-12
-1.61178e-13
1.4385e-12
-1.60222e-13
-3.71917e-12
-1.84083e-11
4.80582e-11
-3.34443e-11
-2.08608e-12
-4.04796e-12
-4.0525e-12
1.39034e-12
-2.33211e-12
1.74794e-11
-7.92065e-13
-3.47721e-12
-1.05711e-12
-2.2662e-12
1.147e-11
-5.28709e-13
-3.8785e-12
5.57419e-12
-1.29866e-12
-9.07407e-13
1.01188e-12
8.84759e-12
2.56072e-12
-6.43201e-12
9.48619e-12
1.81282e-13
-6.38869e-12
1.99893e-12
2.0821e-12
5.53811e-12
-3.47404e-12
7.92931e-13
0
-1.68764e-12
2.77053e-13
2.14559e-12
4.26438e-13
-5.72425e-12
1.04554e-11
-1.56838e-12
-2.32969e-12
3.2909e-13
2.81483e-12
-1.39477e-11
6.79716e-15
0
-2.13845e-11
0
3.01973e-12
1.48305e-14
-8.20488e-14
-3.39003e-12
2.15156e-13
3.51742e-12
6.48915e-12
-4.29704e-13
0
0
8.41988e-13
-5.50703e-13
1.79079e-12
2.07966e-12
-1.72749e-11
-3.18039e-12
4.46302e-12
-2.25628e-11
-7.47264e-12
-1.00511e-11
8.82581e-13
7.12294e-13
-2.22797e-12
1.30745e-12
0
9.59963e-13
-2.44971e-12
3.02744e-12
0
-7.56201e-15
9.91012e-15
-4.38795e-12
1.30072e-12
7.64587e-13
3.09042e-13
-3.72796e-12
2.90106e-12
2.05394e-12
3.68111e-12
-2.36278e-12
4.29983e-13
1.97547e-12
-1.30502e-11
4.57929e-14
-4.01657e-14
0
2.35761e-14
4.15049e-13
-5.10068e-12
0
-1.97742e-12
-3.18431e-12
-8.36178e-13
1.37291e-12
-7.88733e-13
7.02768e-13
-1.0612e-11
-1.71477e-12
1.634e-12
1.58453e-12
1.96165e-13
1.78023e-12
1.29918e-12
0
-2.65232e-12
8.63725e-12
2.13521e-12
-9.20978e-13
-2.94469e-12
9.94485e-13
-1.59113e-12
4.39478e-12
7.76265e-12
5.1323e-13
-1.34204e-12
-1.38455e-12
-3.26536e-12
2.709e-12
2.15408e-12
-2.78477e-12
-2.75743e-12
0
1.44881e-12
5.77324e-12
4.32171e-12
6.00046e-12
-1.8543e-12
-7.83471e-14
-3.77148e-12
5.93821e-13
3.16559e-12
6.53715e-12
9.74785e-13
-4.93435e-12
-1.53112e-15
-1.18523e-15
-3.38267e-13
-1.39029e-12
-1.02681e-11
3.33433e-12
1.07553e-12
-1.71427e-14
5.28967e-12
-4.62429e-14
3.42999e-13
-5.06458e-12
-1.09911e-11
-2.51804e-13
1.71675e-13
5.26237e-12
-1.46184e-11
-4.23687e-12
1.3035e-12
6.02868e-13
-5.35641e-13
5.32719e-12
-1.53318e-13
1.33296e-14
2.31294e-14
4.98542e-12
1.10647e-12
8.54253e-12
-2.1507e-12
-1.61132e-12
5.18262e-13
-1.82656e-13
-1.17302e-13
9.7971e-12
5.3993e-12
-5.01333e-12
8.58977e-13
-1.14786e-12
6.67191e-13
9.57753e-12
2.94092e-12
3.93149e-13
1.53601e-12
3.35727e-13
-7.73808e-13
-1.52024e-12
-3.75121e-12
2.48906e-12
-1.57036e-12
-1.07286e-12
-6.99297e-12
1.70797e-12
1.24664e-12
1.58616e-11
8.46853e-13
2.49495e-13
3.21101e-12
-4.73841e-13
1.69274e-12
0
-2.91588e-12
1.55113e-12
-1.55021e-12
-6.34078e-13
2.43419e-12
1.96145e-12
-4.55159e-13
-2.13497e-13
3.93852e-12
-2.27668e-13
2.16898e-13
-1.52691e-12
-9.38591e-12
1.76074e-12
-2.76896e-12
-4.77094e-12
6.04505e-13
-3.66369e-13
-8.69905e-12
5.13272e-12
0
-3.51059e-13
-4.00916e-12
-1.96787e-13
1.24771e-12
-2.00856e-12
-1.27929e-12
-5.44992e-12
7.17731e-12
-2.76284e-14
0
2.9938e-13
-1.07469e-13
8.68008e-13
-4.89647e-12
-1.03972e-11
4.38126e-12
6.79576e-13
-3.51787e-13
1.67238e-13
-4.98159e-12
1.83045e-12
-4.23469e-13
1.74656e-12
2.30722e-12
-1.02567e-13
3.42735e-12
6.49324e-14
3.16521e-13
3.09311e-12
3.71329e-16
-1.40616e-15
4.52497e-12
-2.49055e-12
2.76485e-12
0
-1.01236e-13
-1.2351e-11
-1.00316e-12
-2.13256e-13
7.22415e-13
1.1409e-12
1.82691e-12
3.53626e-12
-3.06162e-13
-3.06475e-13
0
-2.06469e-13
-3.90342e-13
1.32327e-12
3.66624e-12
6.56734e-12
1.22678e-13
-3.08237e-13
-1.59429e-11
1.08441e-11
-3.15425e-12
1.65931e-12
4.03212e-12
4.03201e-12
1.1358e-11
5.25027e-12
6.07358e-12
-2.27862e-12
-2.99239e-13
-1.09983e-11
3.85963e-12
-7.94061e-12
-4.90026e-12
-1.27593e-12
2.74739e-12
-4.38913e-13
1.04877e-12
0
-2.98345e-12
-2.48702e-12
1.46578e-12
4.42898e-13
-1.82137e-12
2.39484e-12
-6.60038e-12
4.39962e-12
-5.73729e-12
2.57649e-12
-3.00345e-12
5.83891e-13
-2.45196e-13
-1.04564e-13
-1.03131e-13
2.46114e-12
2.26919e-12
3.01346e-12
-1.35815e-12
-9.72548e-13
-3.5383e-12
-8.87514e-13
-3.7525e-12
1.72563e-12
1.78976e-12
2.54889e-14
1.50912e-12
1.57778e-13
2.98408e-12
-3.93451e-12
-4.48095e-13
8.82594e-13
-2.9225e-12
-1.53327e-12
9.07598e-12
-9.41657e-12
0
-1.92794e-12
-1.92788e-12
-3.75237e-12
-8.13982e-12
7.30399e-12
-6.40504e-13
2.15431e-12
4.52036e-12
-8.5848e-12
-6.15843e-13
5.49456e-13
-5.2525e-12
-1.47548e-11
8.13228e-12
4.03716e-13
-1.73536e-14
2.26257e-12
2.52412e-13
-9.87409e-13
0
9.67142e-12
-2.85834e-12
-5.40734e-12
-2.90932e-13
5.85614e-13
1.98743e-12
1.57777e-12
6.6635e-13
-1.30196e-12
2.86491e-12
-5.84146e-12
-3.28028e-14
-2.09133e-12
-6.77836e-13
1.92629e-12
2.03253e-11
4.51328e-12
2.73951e-12
-5.70545e-12
5.7052e-12
2.53227e-13
-2.90864e-13
-3.04931e-12
-2.64974e-12
-1.41767e-12
6.04089e-12
-9.58956e-13
-1.91747e-13
2.18413e-12
-2.22137e-13
-4.05296e-13
-2.36876e-11
1.51004e-11
5.27192e-12
2.32536e-11
1.29602e-11
-1.14535e-11
8.15043e-12
1.00052e-12
-9.32137e-12
-1.80652e-13
1.80314e-13
3.6629e-13
0
-3.33006e-12
-2.171e-12
2.05535e-12
-1.66519e-11
-1.12016e-12
4.0999e-12
5.52194e-13
-7.99799e-13
-8.00886e-13
4.01547e-12
-1.29218e-12
-1.05715e-13
1.15335e-13
-2.40343e-12
-1.97206e-12
1.09681e-12
8.42513e-13
-9.06831e-13
-2.26215e-13
1.30437e-11
1.25477e-12
-3.82254e-12
-2.30019e-12
1.01378e-13
3.29696e-13
1.02823e-12
-5.55261e-13
-3.3742e-12
0
-4.6731e-12
-2.03835e-11
1.21343e-12
1.10881e-12
5.59529e-12
8.60988e-13
3.41681e-13
-8.44065e-12
-3.09515e-13
2.66017e-12
-8.72752e-13
-1.40141e-12
-1.16213e-13
4.01955e-12
-1.14381e-13
3.62693e-12
6.44106e-13
1.19493e-12
1.39051e-12
8.63312e-13
-2.68555e-12
1.26311e-12
0
2.72352e-12
-1.75018e-12
-4.96328e-13
3.86844e-12
-1.35436e-12
-7.88916e-12
-1.5638e-12
2.48669e-12
-4.37495e-14
6.14307e-14
-1.60845e-13
3.51931e-12
3.68841e-12
-1.11507e-12
-1.41191e-12
5.70177e-12
-1.84751e-12
-1.83082e-13
-1.06121e-12
-1.32046e-11
-3.24309e-12
-1.61824e-12
-8.03202e-12
1.15919e-12
-4.00177e-13
2.07089e-12
-7.43209e-13
2.29136e-13
-1.17412e-13
2.51111e-12
-4.9881e-13
-1.35326e-11
-9.01999e-13
-7.24099e-13
5.64107e-12
-1.06551e-11
1.06692e-11
-2.59437e-13
3.278e-13
-1.85146e-12
-6.38323e-13
2.79241e-12
-2.30297e-12
-1.13722e-11
1.50081e-12
3.29003e-13
3.15022e-12
1.20885e-11
-1.20326e-12
4.47291e-13
-1.63672e-13
1.20799e-12
-5.90437e-12
2.54196e-15
-6.85949e-13
-2.60645e-12
3.55332e-12
8.918e-12
-6.56139e-15
2.95405e-13
2.47117e-12
4.03368e-12
2.12432e-12
-2.37858e-12
1.47799e-12
0
4.21147e-11
2.16711e-12
2.87295e-12
-2.8733e-12
-2.73506e-12
0
-1.1662e-11
-2.25287e-12
-9.92855e-12
-2.75093e-12
-4.09304e-12
-9.42865e-12
-4.8799e-12
-2.02789e-12
3.03994e-12
-1.30888e-12
-1.65671e-12
5.59386e-13
-2.71131e-13
3.74694e-12
5.20063e-12
3.00145e-12
6.89123e-12
-9.18265e-12
-3.43249e-13
-5.10506e-13
6.81865e-13
0
-6.40265e-13
-9.80462e-12
-4.44477e-13
7.78578e-12
0
6.39133e-12
-4.60789e-12
-4.64809e-12
-2.16281e-12
3.77464e-13
6.09275e-12
5.65615e-12
5.34616e-13
-1.98158e-12
6.98477e-14
-2.07479e-11
1.13335e-11
0
-4.5657e-12
-2.22683e-12
-1.10035e-12
1.24327e-11
-3.28057e-12
1.04006e-12
-6.7021e-12
-1.48392e-15
1.96845e-15
2.92153e-12
1.60269e-11
3.04574e-12
-4.30969e-12
-6.16223e-12
-4.6087e-13
-1.62331e-12
-1.12989e-12
-2.01928e-12
2.34016e-12
5.29599e-13
-3.30873e-13
2.70741e-12
0
-2.23347e-12
1.08239e-12
-1.63073e-12
-2.54646e-12
5.02196e-13
-4.88732e-12
1.47702e-11
2.11273e-12
8.20285e-12
3.59334e-12
1.14218e-12
-5.33162e-13
4.30617e-12
1.5889e-12
-4.70248e-13
3.44234e-13
0
7.17849e-13
6.33011e-12
2.74313e-11
-2.39482e-12
-3.72779e-12
-5.85858e-13
1.62322e-12
-6.37082e-12
0
0
6.02727e-13
3.32709e-12
2.05301e-12
4.39779e-12
4.0649e-12
-7.08663e-12
1.52406e-12
3.17579e-12
-9.00224e-13
1.04665e-12
-3.34075e-12
4.41335e-12
-4.41367e-12
-8.14836e-13
-8.5003e-12
1.73201e-12
1.58484e-11
-3.33639e-14
-7.35771e-13
5.15262e-13
-7.3255e-12
-2.31908e-11
-1.44998e-13
1.26009e-12
3.16222e-12
-7.40354e-12
3.47333e-12
-3.10437e-12
-1.60975e-11
-1.25606e-12
0
2.44141e-12
-1.06698e-11
-1.96965e-12
8.73317e-12
-7.75745e-12
-5.35574e-13
6.63082e-13
6.45405e-12
7.49474e-12
-4.49514e-13
0
7.32243e-12
-2.9226e-12
3.57609e-12
-1.39793e-13
1.6351e-12
-1.70173e-12
2.2121e-12
3.64403e-12
-5.91694e-13
0
7.12746e-13
-2.33613e-12
4.68275e-12
-7.15106e-13
-2.04729e-13
-1.42992e-14
-1.39896e-13
3.21495e-13
-4.1587e-13
4.10385e-12
-1.10024e-12
-8.06674e-12
1.54117e-13
-1.68322e-11
-5.17393e-12
2.19159e-12
2.37157e-13
2.28816e-15
-1.72271e-12
-4.95803e-12
-6.51516e-12
-1.15687e-13
1.50562e-13
1.10442e-12
-1.97858e-12
4.50111e-13
1.41759e-12
2.60212e-13
-4.7258e-13
-1.08816e-12
-4.82945e-12
-1.06674e-13
-9.06898e-14
-3.75116e-12
9.00366e-12
-2.10175e-12
1.12418e-11
-8.81698e-13
-2.98276e-12
-4.61228e-12
0
3.35325e-12
-2.31851e-12
-3.42271e-11
9.58878e-13
-2.60097e-12
1.52921e-12
-1.51496e-12
4.67518e-12
7.59782e-12
-6.05298e-12
8.42037e-13
-1.92252e-12
-9.64975e-12
1.74579e-11
1.31903e-12
-3.62018e-12
1.16592e-11
-3.50542e-13
-1.35603e-12
5.46018e-12
1.7763e-14
-8.09632e-14
-6.49076e-12
5.93884e-14
-1.77309e-13
3.45439e-12
0
0
-1.96225e-12
-3.30149e-12
9.01673e-13
0
8.77442e-12
-1.65578e-12
-1.1192e-12
2.36815e-12
2.0428e-11
-7.79403e-12
1.29037e-13
-1.15226e-12
9.36366e-13
-2.04219e-11
5.08811e-12
2.26143e-12
-2.82459e-13
1.8429e-12
-5.8054e-13
1.83858e-13
3.47251e-12
7.66585e-12
1.6841e-11
0
-1.39902e-12
-4.99327e-12
-1.29701e-12
-3.82666e-12
1.49512e-12
8.92248e-13
-2.8359e-12
-1.62486e-13
-2.06379e-12
1.76465e-13
3.25611e-12
-1.64458e-12
-5.73411e-12
3.68725e-13
9.32958e-12
-5.29676e-12
1.46035e-13
2.83279e-12
2.21983e-13
5.56243e-12
5.07125e-12
-9.56073e-13
0
1.17526e-15
2.90407e-12
-1.54504e-12
8.93914e-12
9.59778e-13
3.08057e-12
2.28023e-12
5.36803e-14
-5.1405e-13
-5.99205e-13
-2.09476e-12
7.15994e-12
1.41301e-12
2.7203e-12
-3.4458e-12
-7.50757e-13
1.09709e-13
4.26701e-12
-3.23026e-12
-6.1544e-14
2.84659e-15
-4.09131e-15
-5.08969e-12
-7.96641e-12
8.95277e-13
-1.16898e-12
1.36621e-12
3.49706e-13
1.23757e-13
0
3.14888e-12
-2.56192e-12
-2.61918e-12
5.46345e-13
-9.35501e-12
1.60726e-12
-1.75042e-12
-3.24865e-13
8.35527e-13
-2.60718e-12
7.98082e-13
-5.2502e-13
-3.96348e-13
-2.12424e-13
-1.04965e-12
2.21806e-12
1.13892e-13
2.98593e-12
-1.15127e-12
-1.23088e-12
-3.39061e-12
-8.08681e-13
4.18691e-13
-1.7031e-13
2.32126e-13
-4.64017e-13
0
2.85165e-12
1.51972e-13
-3.70868e-13
-5.03658e-12
3.29958e-12
0
0
-9.98736e-13
-4.44891e-12
2.05994e-11
3.06738e-12
-8.43036e-13
8.4304e-13
2.24517e-12
-1.33019e-12
-4.83658e-13
4.02662e-12
5.54849e-12
5.398e-12
3.54906e-12
-1.06159e-12
4.63251e-12
6.14548e-13
1.21307e-15
2.15497e-15
-4.08219e-12
-1.43135e-13
-2.89741e-12
-2.92925e-12
-2.38364e-12
7.21975e-12
-2.68956e-12
5.7356e-12
7.19244e-13
-3.54062e-12
-5.30435e-13
-2.89394e-13
-1.43268e-11
8.28145e-13
4.67259e-11
-1.13897e-11
-7.49025e-13
1.76056e-12
6.5152e-12
1.51863e-12
-7.49384e-12
-9.25485e-13
2.34603e-13
-3.67447e-12
-7.05128e-13
-1.34987e-12
-8.85003e-12
8.11388e-13
3.83163e-12
-4.91251e-12
1.84402e-12
-8.45133e-12
-1.57652e-13
2.52093e-12
3.88088e-12
2.26039e-12
3.1312e-11
3.09875e-12
3.63788e-12
4.07486e-14
-4.89085e-14
2.01748e-13
3.38158e-14
-2.90793e-13
3.02268e-12
8.68043e-13
2.64627e-12
4.25845e-11
3.56071e-13
-1.99801e-12
4.32425e-12
9.87411e-12
8.23663e-13
-2.00749e-12
-6.51218e-12
9.57798e-13
2.96986e-12
-1.11953e-12
1.40502e-11
-2.09801e-12
8.9522e-12
2.825e-12
-4.12821e-12
8.87032e-13
6.19351e-12
-1.28359e-12
-9.12697e-12
-2.12645e-14
3.75554e-14
-1.56101e-12
1.66886e-12
-8.10709e-13
-3.48722e-12
2.62114e-12
3.85928e-13
-2.8857e-12
-1.98779e-11
0
1.78583e-12
1.36542e-12
1.21702e-13
1.02801e-11
0
-1.81261e-12
3.61812e-14
-1.62164e-12
-2.24235e-12
3.85456e-12
3.61922e-12
7.85444e-12
-2.09366e-12
-6.2998e-12
-4.16645e-12
1.14303e-12
2.40761e-12
-2.11533e-12
1.72191e-13
1.07791e-13
7.34031e-13
-6.2246e-12
1.23505e-13
1.50505e-12
-1.44934e-12
4.35542e-13
-1.21879e-12
2.23921e-12
4.78694e-12
1.20726e-11
-4.2928e-12
1.2489e-12
-1.8071e-12
-2.9258e-12
-9.19296e-12
-2.80171e-12
-2.15602e-13
4.52052e-12
-5.76975e-12
0
6.64468e-12
-1.86552e-13
-2.05624e-12
-6.53475e-12
-8.14141e-14
7.40404e-12
2.55187e-12
1.83381e-11
1.46873e-11
3.93427e-12
-8.08394e-12
-3.79601e-13
7.87292e-13
1.27524e-14
5.23714e-12
3.39315e-12
6.79567e-13
-1.3109e-12
1.39254e-13
4.24554e-12
-1.1408e-12
4.66113e-14
-5.44083e-14
-2.15799e-12
5.14222e-12
-1.73133e-13
9.19848e-14
-3.27456e-12
8.54995e-13
1.67236e-12
1.38359e-12
-3.7439e-12
-2.3298e-13
2.75297e-12
-1.73285e-12
1.77602e-12
5.19114e-12
1.02191e-12
-1.68603e-12
2.32295e-12
-3.20041e-12
-6.75702e-12
-7.47362e-12
4.76194e-12
-2.78485e-13
2.8333e-12
-3.41541e-12
0
7.81739e-13
-3.85951e-12
1.84635e-12
-1.66623e-11
-4.28899e-12
0
3.10136e-12
-3.50607e-12
4.0504e-12
-4.43943e-12
1.44745e-12
3.5978e-11
3.73157e-11
7.22278e-12
7.41927e-13
2.39407e-14
-1.73257e-14
-7.34267e-12
-8.81819e-13
1.60549e-12
-1.55865e-12
-9.51574e-13
7.72404e-13
1.78745e-12
2.55075e-12
9.03623e-13
0
2.97721e-15
6.19307e-12
3.66529e-12
4.09335e-13
7.1952e-12
1.96614e-12
2.97899e-13
-1.85813e-13
-1.16181e-11
-2.22809e-11
4.95891e-12
-3.06324e-12
2.38209e-12
-3.61428e-12
-7.79345e-13
-1.54759e-12
-9.788e-13
-8.2495e-14
-1.29107e-12
-1.68708e-12
2.382e-12
9.12711e-13
1.69251e-12
1.26946e-11
2.59544e-12
-2.70633e-13
1.66005e-13
2.01344e-12
-5.16176e-13
1.39114e-12
-1.32501e-14
-1.1526e-14
5.58284e-12
-4.44173e-12
-1.16536e-12
-3.14468e-12
1.12771e-13
-2.32299e-13
2.93686e-12
-5.77937e-14
1.7757e-13
-4.89075e-12
-2.73257e-12
9.11584e-13
7.00567e-12
0
2.08723e-12
-7.25151e-12
3.29392e-13
2.37112e-12
7.79162e-12
2.27655e-13
2.36698e-13
-4.59246e-12
2.64741e-11
-5.91419e-12
-5.42599e-12
5.02711e-12
2.67043e-12
1.87631e-12
-1.63893e-12
-3.56547e-12
1.72516e-12
5.14857e-15
8.70668e-15
-5.67749e-13
-2.0552e-13
1.21905e-12
7.13122e-12
-1.88021e-13
5.43058e-13
-4.40537e-12
-2.22663e-12
4.48938e-12
4.64498e-12
-2.99611e-12
4.46995e-12
-3.4759e-12
2.1257e-12
-2.24222e-12
-2.70018e-12
-8.9289e-12
-7.06881e-12
-4.38545e-12
3.53348e-12
-1.10402e-11
-1.96172e-12
2.68663e-12
6.2071e-13
-2.11817e-11
3.67055e-12
-2.1499e-13
5.23735e-13
-3.16693e-13
2.61139e-12
-6.81665e-13
-5.80481e-12
-4.05765e-12
-2.11876e-12
6.37773e-12
1.25265e-11
5.87865e-12
-4.75335e-12
2.95317e-12
-2.22071e-12
0
1.16085e-11
2.0971e-11
0
-5.72056e-12
1.57882e-12
2.31261e-12
2.12024e-12
3.91534e-13
1.24685e-11
-1.44149e-12
2.00122e-12
5.57075e-15
2.06432e-13
-8.40696e-13
-2.28394e-14
4.72547e-13
-2.70269e-13
1.39601e-14
-2.00185e-12
4.5357e-13
-6.178e-12
2.24639e-12
-2.92308e-13
4.92875e-12
1.5504e-12
2.1137e-12
-5.76744e-12
-2.51056e-12
-1.34243e-12
1.15117e-11
-1.52116e-12
-2.59288e-13
4.24221e-12
-1.21849e-13
9.73378e-14
-9.76136e-12
2.60816e-11
0
-3.14677e-12
6.14262e-14
-6.13935e-14
-1.85886e-14
1.8364e-14
-1.06488e-13
1.05147e-11
-1.48632e-11
0
0
-4.19047e-13
-1.91878e-12
-2.24219e-11
1.92598e-13