0 	31.937 	-0.0273811 	6.539e-13
0.000254254 	31.937 	-0.0273869 	1.28062e-10
0.000508509 	31.937 	-0.0273927 	2.5547e-10
0.000762763 	31.9403 	-0.0275593 	-7.16304e-06
0.00101702 	31.9461 	-0.0278475 	-1.97446e-05
0.00127127 	31.9519 	-0.0281356 	-3.23262e-05
0.00152553 	31.9576 	-0.0284238 	-2.09116e-05
0.00177978 	31.9634 	-0.028712 	-8.34021e-06
0.00203403 	31.9711 	-0.0290304 	2.66629e-10
0.00228829 	31.9826 	-0.0294086 	1.39152e-10
0.00254254 	31.9942 	-0.0297869 	1.16748e-11
0.0027968 	32.0057 	-0.0295558 	1.15897e-10
0.00305105 	32.0173 	-0.0292632 	2.43478e-10
0.00330531 	32.0302 	-0.0292114 	-4.30984e-06
0.00355956 	32.0444 	-0.0294155 	-1.32054e-05
0.00381381 	32.0585 	-0.0296196 	-2.2101e-05
0.00406807 	32.0727 	-0.0298238 	-1.56715e-05
0.00432232 	32.0869 	-0.0300279 	-6.79206e-06
0.00457658 	32.1017 	-0.0303166 	2.78361e-10
0.00483083 	32.1185 	-0.0308803 	1.50857e-10
0.00508509 	32.1353 	-0.0314439 	2.33532e-11
0.00533934 	32.1522 	-0.031387 	1.04816e-10
0.00559359 	32.1692 	-0.031191 	2.33135e-10
0.00584785 	32.1862 	-0.031249 	-7.60527e-06
0.0061021 	32.2035 	-0.031678 	-2.63179e-05
0.00635636 	32.2208 	-0.0321071 	-4.50305e-05
0.00661061 	32.238 	-0.0325361 	-3.49587e-05
0.00686486 	32.2553 	-0.0329651 	-1.63026e-05
0.00711912 	32.2726 	-0.0334367 	2.91593e-10
0.00737337 	32.2902 	-0.0342029 	1.63404e-10
0.00762763 	32.3078 	-0.034969 	3.52145e-11
0.00788188 	32.3256 	-0.0350839 	9.33071e-11
0.00813614 	32.3435 	-0.0349521 	2.21955e-10
0.00839039 	32.3615 	-0.0350738 	-9.12475e-06
0.00864464 	32.3798 	-0.0356961 	-3.62783e-05
0.0088989 	32.3981 	-0.0363185 	-6.34319e-05
0.00915315 	32.4164 	-0.0369408 	-5.38216e-05
0.00940741 	32.4347 	-0.0375631 	-2.67828e-05
0.00966166 	32.453 	-0.0381887 	3.03979e-10
0.00991592 	32.4718 	-0.0391472 	1.75513e-10
0.0101702 	32.4905 	-0.0401057 	4.70472e-11
0.0104244 	32.5095 	-0.0403812 	8.21447e-11
0.0106787 	32.5286 	-0.040262 	2.11756e-10
0.0109329 	32.548 	-0.0403853 	-9.15864e-06
0.0111872 	32.5681 	-0.0411531 	-4.26612e-05
0.0114414 	32.5883 	-0.0419209 	-7.61637e-05
0.0116957 	32.6085 	-0.0426888 	-7.04738e-05
0.0119499 	32.6286 	-0.0434566 	-3.71532e-05
0.0122042 	32.6488 	-0.0442244 	-3.83248e-06
0.0124585 	32.6698 	-0.0453202 	1.88591e-10
0.0127127 	32.691 	-0.0464586 	5.92147e-11
0.012967 	32.7125 	-0.0468984 	7.08946e-11
0.0132212 	32.7341 	-0.0467486 	2.01623e-10
0.0134755 	32.756 	-0.0468222 	-8.31971e-06
0.0137297 	32.7791 	-0.0476953 	-4.64066e-05
0.013984 	32.8022 	-0.0485684 	-8.44935e-05
0.0142382 	32.8253 	-0.0494415 	-8.5028e-05
0.0144925 	32.8484 	-0.0503145 	-4.71934e-05
0.0147467 	32.8715 	-0.0511876 	-9.35885e-06
0.015001 	32.8956 	-0.0523877 	2.02064e-10
0.0152553 	32.9202 	-0.0536952 	7.16248e-11
0.0155095 	32.945 	-0.0543176 	5.91843e-11
0.0157638 	32.97 	-0.0541055 	1.90445e-10
0.016018 	32.9953 	-0.0540924 	-7.08723e-06
0.0162723 	33.022 	-0.0550413 	-4.84644e-05
0.0165265 	33.0487 	-0.0559903 	-8.98416e-05
0.0167808 	33.0754 	-0.0569392 	-9.80212e-05
0.017035 	33.1021 	-0.0578881 	-5.69674e-05
0.0172893 	33.1288 	-0.0588371 	-1.59136e-05
0.0175435 	33.1566 	-0.0601042 	2.14764e-10
0.0177978 	33.185 	-0.0615727 	8.38465e-11
0.0180521 	33.2136 	-0.0624068 	4.74264e-11
0.0183063 	33.2424 	-0.0621108 	1.79333e-10
0.0185606 	33.2716 	-0.0619865 	-5.77948e-06
0.0188148 	33.3023 	-0.0629918 	-4.95816e-05
0.0190691 	33.333 	-0.063997 	-9.33838e-05
0.0193233 	33.3637 	-0.0650022 	-0.000110078
0.0195776 	33.3944 	-0.0660075 	-6.66696e-05
0.0198318 	33.4251 	-0.0670127 	-2.32617e-05
0.0200861 	33.4567 	-0.0683055 	2.27737e-10
0.0203403 	33.4892 	-0.0699303 	9.62282e-11
0.0205946 	33.5218 	-0.0710134 	3.55858e-11
0.0208488 	33.5548 	-0.0706189 	1.68231e-10
0.0211031 	33.5881 	-0.0703696 	-4.59242e-06
0.0213574 	33.623 	-0.0714195 	-5.02989e-05
0.0216116 	33.658 	-0.0724694 	-9.60053e-05
0.0218659 	33.6929 	-0.0735193 	-0.000121799
0.0221201 	33.7278 	-0.0745691 	-7.65579e-05
0.0223744 	33.7628 	-0.075619 	-3.13166e-05
0.0226286 	33.7983 	-0.0768934 	2.40976e-10
0.0228829 	33.8351 	-0.0786729 	1.08782e-10
0.0231371 	33.872 	-0.0800482 	2.36397e-11
0.0233914 	33.9094 	-0.0795455 	1.57124e-10
0.0236456 	33.9469 	-0.0791652 	-3.64279e-06
0.0238999 	33.9863 	-0.0802539 	-5.09912e-05
0.0241542 	34.0257 	-0.0813427 	-9.83397e-05
0.0244084 	34.065 	-0.0824315 	-0.000133725
0.0246627 	34.1044 	-0.0835202 	-8.69142e-05
0.0249169 	34.1437 	-0.084609 	-4.01031e-05
0.0251712 	34.1834 	-0.0858191 	2.54517e-10
0.0254254 	34.2247 	-0.087755 	1.21539e-10
0.0256797 	34.2661 	-0.0894709 	1.1563e-11
0.0259339 	34.308 	-0.0888485 	1.45993e-10
0.0261882 	34.35 	-0.0883335 	-3.0055e-06
0.0264424 	34.3939 	-0.0894607 	-5.19641e-05
0.0266967 	34.4379 	-0.0905879 	-0.000100923
0.026951 	34.4819 	-0.0917151 	-0.000146462
0.0272052 	34.5258 	-0.0928423 	-9.81156e-05
0.0274595 	34.5698 	-0.0939695 	-4.97693e-05
0.0277137 	34.6138 	-0.0950967 	-1.42309e-06
0.027968 	34.6597 	-0.0971705 	1.34531e-10
0.0282222 	34.7057 	-0.099273 	6.63796e-13
0.0284765 	34.7523 	-0.0985136 	1.34812e-10
0.0287307 	34.799 	-0.0978446 	-2.72984e-06
0.028985 	34.8477 	-0.0990124 	-5.33716e-05
0.0292392 	34.8965 	-0.10018 	-0.000104013
0.0294935 	34.9452 	-0.101348 	-0.000154655
0.0297477 	34.994 	-0.102516 	-0.000110416
0.030002 	35.0427 	-0.103684 	-6.04655e-05
0.0302563 	35.0914 	-0.104852 	-1.05154e-05
0.0305105 	35.1419 	-0.106915 	1.47787e-10
0.0307648 	35.1927 	-0.109218 	1.29224e-11
0.031019 	35.2441 	-0.108543 	1.24137e-10
0.0312733 	35.2957 	-0.107673 	-2.85292e-06
0.0315275 	35.3494 	-0.108881 	-5.51429e-05
0.0317818 	35.4031 	-0.11009 	-0.000107433
0.032036 	35.4568 	-0.111299 	-0.000159723
0.0322903 	35.5105 	-0.112507 	-0.000123642
0.0325445 	35.5642 	-0.113716 	-7.21253e-05
0.0327988 	35.6179 	-0.114925 	-2.0609e-05
0.0330531 	35.6729 	-0.116948 	1.62097e-10
0.0333073 	35.7288 	-0.119515 	2.54853e-11
0.0335616 	35.7852 	-0.118985 	1.12152e-10
0.0338158 	35.8419 	-0.117901 	-3.41251e-06
0.0340701 	35.9007 	-0.119149 	-5.72122e-05
0.0343243 	35.9596 	-0.120396 	-0.000111012
0.0345786 	36.0184 	-0.121643 	-0.000164812
0.0348328 	36.0773 	-0.12289 	-0.000137553
0.0350871 	36.1361 	-0.124137 	-8.46102e-05
0.0353413 	36.195 	-0.125384 	-3.16669e-05
0.0355956 	36.2547 	-0.127279 	1.75146e-10
0.0358498 	36.3158 	-0.130139 	3.80083e-11
0.0361041 	36.3774 	-0.129844 	1.01163e-10
0.0363584 	36.4394 	-0.128563 	-4.44814e-06
0.0366126 	36.5036 	-0.129846 	-5.96394e-05
0.0368669 	36.5678 	-0.13113 	-0.000114831
0.0371211 	36.632 	-0.132413 	-0.000170022
0.0373754 	36.6961 	-0.133697 	-0.000152168
0.0376296 	36.7603 	-0.13498 	-9.79163e-05
0.0378839 	36.8245 	-0.136264 	-4.36647e-05
0.0381381 	36.8892 	-0.137914 	1.90306e-10
0.0383924 	36.9557 	-0.141077 	5.11537e-11
0.0386466 	37.0227 	-0.141131 	8.98717e-11
0.0389009 	37.0902 	-0.139703 	-5.9955e-06
0.0391552 	37.1599 	-0.14102 	-6.24847e-05
0.0394094 	37.2297 	-0.142338 	-0.000118974
0.0396637 	37.2994 	-0.143656 	-0.000175463
0.0399179 	37.3691 	-0.144974 	-0.000167526
0.0401722 	37.4389 	-0.146292 	-0.00011206
0.0404264 	37.5086 	-0.147609 	-5.6594e-05
0.0406807 	37.5784 	-0.148927 	-1.12815e-06
0.0409349 	37.6505 	-0.152332 	6.46829e-11
0.0411892 	37.7231 	-0.152829 	7.83494e-11
0.0414434 	37.7963 	-0.151303 	-8.09075e-06
0.0416977 	37.8718 	-0.152654 	-6.58345e-05
0.041952 	37.9473 	-0.154006 	-0.000123578
0.0422062 	38.0228 	-0.155357 	-0.000181322
0.0424605 	38.0983 	-0.156709 	-0.000183766
0.0427147 	38.1738 	-0.15806 	-0.00012713
0.042969 	38.2494 	-0.159412 	-7.0494e-05
0.0432232 	38.3249 	-0.160763 	-1.3858e-05
0.0434775 	38.4023 	-0.163906 	7.87122e-11
0.0437317 	38.4806 	-0.164937 	6.61079e-11
0.043986 	38.5599 	-0.163365 	-1.07716e-05
0.0442402 	38.6414 	-0.16475 	-6.97621e-05
0.0444945 	38.7229 	-0.166135 	-0.000128753
0.0447487 	38.8044 	-0.167521 	-0.000187743
0.045003 	38.8859 	-0.168906 	-0.000201016
0.0452573 	38.9674 	-0.170291 	-0.000143219
0.0455115 	39.0489 	-0.171676 	-8.54215e-05
0.0457658 	39.1304 	-0.173061 	-2.76242e-05
0.04602 	39.2133 	-0.175809 	9.2719e-11
0.0462743 	39.2977 	-0.177465 	5.33272e-11
0.0465285 	39.3833 	-0.175902 	-1.40621e-05
0.0467828 	39.471 	-0.17732 	-7.42441e-05
0.047037 	39.5587 	-0.178739 	-0.000134426
0.0472913 	39.6465 	-0.180157 	-0.000194608
0.0475455 	39.7342 	-0.181575 	-0.000219133
0.0477998 	39.8219 	-0.182993 	-0.00016023
0.0480541 	39.9096 	-0.184411 	-0.000101326
0.0483083 	39.9974 	-0.185829 	-4.24228e-05
0.0485626 	40.0859 	-0.188043 	1.06515e-10
0.0488168 	40.1765 	-0.190411 	4.04345e-11
0.0490711 	40.2687 	-0.188921 	-1.79728e-05
0.0493253 	40.3629 	-0.19037 	-7.92441e-05
0.0495796 	40.4571 	-0.191819 	-0.000140515
0.0498338 	40.5513 	-0.193268 	-0.000201787
0.0500881 	40.6455 	-0.194717 	-0.00023793
0.0503423 	40.7397 	-0.196165 	-0.000178021
0.0505966 	40.8339 	-0.197614 	-0.000118112
0.0508509 	40.9281 	-0.199063 	-5.82026e-05
0.0511051 	41.0224 	-0.2006 	1.20643e-10
0.0513594 	41.1196 	-0.203769 	2.7478e-11
0.0516136 	41.2186 	-0.202417 	-2.24971e-05
0.0518679 	41.3195 	-0.203894 	-8.47051e-05
0.0521221 	41.4204 	-0.20537 	-0.000146913
0.0523764 	41.5214 	-0.206847 	-0.000209121
0.0526306 	41.6223 	-0.208323 	-0.000257154
0.0528849 	41.7232 	-0.2098 	-0.000196388
0.0531391 	41.8242 	-0.211277 	-0.000135622
0.0533934 	41.9251 	-0.212753 	-7.48566e-05
0.0536476 	42.026 	-0.21423 	-1.40909e-05
0.0539019 	42.1293 	-0.217517 	1.41142e-11
0.0541562 	42.2355 	-0.216377 	-2.7598e-05
0.0544104 	42.3434 	-0.217876 	-9.05214e-05
0.0546647 	42.4513 	-0.219376 	-0.000153445
0.0549189 	42.5592 	-0.220875 	-0.000216368
0.0551732 	42.6671 	-0.222375 	-0.000276413
0.0554274 	42.7751 	-0.223874 	-0.000215006
0.0556817 	42.883 	-0.225374 	-0.000153599
0.0559359 	42.9909 	-0.226873 	-9.21917e-05
0.0561902 	43.0988 	-0.228373 	-3.07845e-05
0.0564444 	43.2082 	-0.231624 	5.18625e-13
0.0566987 	43.3219 	-0.23077 	-3.31963e-05
0.056953 	43.437 	-0.232286 	-9.65283e-05
0.0572072 	43.5522 	-0.233802 	-0.00015986
0.0574615 	43.6673 	-0.235317 	-0.000223192
0.0577157 	43.7825 	-0.236833 	-0.000286524
0.05797 	43.8977 	-0.238349 	-0.000233403
0.0582242 	44.0128 	-0.239865 	-0.000171652
0.0584785 	44.128 	-0.241381 	-0.000109901
0.0587327 	44.2431 	-0.242897 	-4.81505e-05
0.058987 	44.359 	-0.245255 	1.31583e-11
0.0592412 	44.4803 	-0.24555 	-3.92511e-05
0.0594955 	44.6029 	-0.247077 	-0.000102735
0.0597497 	44.7256 	-0.248604 	-0.00016622
0.060004 	44.8482 	-0.250131 	-0.000229704
0.0602583 	44.9709 	-0.251658 	-0.000293188
0.0605125 	45.0936 	-0.253185 	-0.00025154
0.0607668 	45.2162 	-0.254712 	-0.000189692
0.061021 	45.3389 	-0.256239 	-0.000127844
0.0612753 	45.4615 	-0.257766 	-6.59967e-05
0.0615295 	45.5842 	-0.259293 	-4.14903e-06
0.0617838 	45.7132 	-0.260687 	-4.57035e-05
0.062038 	45.8436 	-0.26222 	-0.000109107
0.0622923 	45.974 	-0.263753 	-0.00017251
0.0625465 	46.1044 	-0.265286 	-0.000235913
0.0628008 	46.2348 	-0.266819 	-0.000299316
0.0630551 	46.3651 	-0.268256 	-0.000268208
0.0633093 	46.4954 	-0.269608 	-0.000204445
0.0635636 	46.6257 	-0.270961 	-0.000140683
0.0638178 	46.756 	-0.272313 	-7.69208e-05
0.0640721 	46.8863 	-0.273665 	-1.31584e-05
0.0643263 	47.0224 	-0.275083 	-4.12194e-05
0.0645806 	47.1606 	-0.27642 	-0.000102128
0.0648348 	47.2989 	-0.277757 	-0.000163037
0.0650891 	47.4371 	-0.279094 	-0.000223946
0.0653433 	47.5753 	-0.280431 	-0.000284855
0.0655976 	47.7136 	-0.281768 	-0.000264005
0.0658519 	47.8518 	-0.283105 	-0.000200696
0.0661061 	47.99 	-0.284442 	-0.000137387
0.0663604 	48.1283 	-0.28578 	-7.40781e-05
0.0666146 	48.2665 	-0.287117 	-1.07692e-05
0.0668689 	48.41 	-0.28869 	-2.78231e-05
0.0671231 	48.5564 	-0.290017 	-8.84453e-05
0.0673774 	48.7029 	-0.291344 	-0.000149067
0.0676316 	48.8493 	-0.29267 	-0.00020969
0.0678859 	48.9957 	-0.293997 	-0.000270312
0.0681401 	49.1421 	-0.295324 	-0.000260412
0.0683944 	49.2885 	-0.296651 	-0.000197345
0.0686486 	49.4349 	-0.297978 	-0.000134278
0.0689029 	49.5814 	-0.299304 	-7.12107e-05
0.0691572 	49.7278 	-0.300631 	-8.14364e-06
0.0694114 	49.8788 	-0.302398 	-1.45019e-05
0.0696657 	50.0337 	-0.303739 	-7.5851e-05
0.0699199 	50.1885 	-0.30508 	-0.0001372
0.0701742 	50.3434 	-0.306421 	-0.000198549
0.0704284 	50.4982 	-0.307762 	-0.000259898
0.0706827 	50.653 	-0.309103 	-0.000260837
0.0709369 	50.8079 	-0.310444 	-0.000196964
0.0711912 	50.9627 	-0.311785 	-0.000133091
0.0714454 	51.1176 	-0.313126 	-6.92176e-05
0.0716997 	51.2724 	-0.314467 	-5.34469e-06
0.071954 	51.4313 	-0.316533 	-5.44887e-07
0.0722082 	51.5948 	-0.317818 	-5.94038e-05
0.0724625 	51.7583 	-0.319102 	-0.000118263
0.0727167 	51.9218 	-0.320387 	-0.000177122
0.072971 	52.0853 	-0.321671 	-0.000235981
0.0732252 	52.2488 	-0.322956 	-0.000247368
0.0734795 	52.4123 	-0.32424 	-0.000186048
0.0737337 	52.5758 	-0.325524 	-0.000124728
0.073988 	52.7393 	-0.326809 	-6.34086e-05
0.0742422 	52.9028 	-0.328093 	-2.0888e-06
0.0744965 	53.0704 	-0.330235 	6.35627e-05
0.0747508 	53.2419 	-0.33161 	-4.31227e-05
0.075005 	53.4142 	-0.332819 	-9.85573e-05
0.0752593 	53.5864 	-0.334027 	-0.000153992
0.0755135 	53.7587 	-0.335236 	-0.000209427
0.0757678 	53.9309 	-0.336445 	-0.000230008
0.076022 	54.1032 	-0.337654 	-0.000172227
0.0762763 	54.2754 	-0.338862 	-0.000114445
0.0765305 	54.4477 	-0.340071 	-5.66642e-05
0.0767848 	54.62 	-0.341284 	6.02054e-06
0.077039 	54.7963 	-0.343145 	0.000137974
0.0772933 	54.9756 	-0.34511 	-2.91574e-05
0.0775475 	55.1566 	-0.346287 	-8.28828e-05
0.0778018 	55.3375 	-0.347464 	-0.000136608
0.0780561 	55.5185 	-0.348641 	-0.000190333
0.0783103 	55.6994 	-0.349818 	-0.000219813
0.0785646 	55.8803 	-0.350995 	-0.000163795
0.0788188 	56.0613 	-0.352172 	-0.000107776
0.0790731 	56.2422 	-0.353349 	-5.17581e-05
0.0793273 	56.4234 	-0.354457 	2.51773e-05
0.0795816 	56.6083 	-0.355483 	0.00022313
0.0798358 	56.7954 	-0.358553 	-1.51322e-05
0.0800901 	56.9849 	-0.359647 	-6.48807e-05
0.0803443 	57.1744 	-0.360741 	-0.000114629
0.0805986 	57.3639 	-0.361834 	-0.000164378
0.0808529 	57.5534 	-0.362928 	-0.000200487
0.0811071 	57.7428 	-0.364022 	-0.000148607
0.0813614 	57.9323 	-0.365115 	-9.67276e-05
0.0816156 	58.1218 	-0.366209 	-4.48479e-05
0.0818699 	58.3118 	-0.367011 	4.75827e-05
0.0821241 	58.5049 	-0.366646 	0.000318645
0.0823784 	58.6997 	-0.37136 	-2.77847e-06
0.0826326 	58.8975 	-0.372335 	-4.69715e-05
0.0828869 	59.0953 	-0.373309 	-9.11646e-05
0.0831411 	59.2932 	-0.374283 	-0.000135358
0.0833954 	59.491 	-0.375258 	-0.000175251
0.0836496 	59.6888 	-0.376232 	-0.000129167
0.0839039 	59.8866 	-0.377206 	-8.30829e-05
0.0841582 	60.0845 	-0.378181 	-3.69986e-05
0.0844124 	60.283 	-0.378472 	7.30659e-05
0.0846667 	60.4843 	-0.376205 	0.000423795
0.0849209 	60.6869 	-0.382044 	6.47984e-05
0.0851752 	60.8922 	-0.383736 	-2.90125e-05
0.0854294 	61.0981 	-0.384515 	-6.44154e-05
0.0856837 	61.304 	-0.385294 	-9.98182e-05
0.0859379 	61.5099 	-0.386073 	-0.000135221
0.0861922 	61.7157 	-0.386852 	-0.000101123
0.0864464 	61.9216 	-0.387632 	-6.42154e-05
0.0867007 	62.1275 	-0.388411 	-2.73072e-05
0.086955 	62.3342 	-0.387974 	0.00010017
0.0872092 	62.5435 	-0.384078 	0.000485252
0.0874635 	62.7539 	-0.389801 	0.000158625
0.0877177 	62.9661 	-0.392804 	-1.39823e-05
0.087972 	63.1797 	-0.393332 	-3.83052e-05
0.0882262 	63.3933 	-0.393861 	-6.2628e-05
0.0884805 	63.6068 	-0.394389 	-8.69509e-05
0.0887347 	63.8204 	-0.394917 	-6.78317e-05
0.088989 	64.0339 	-0.395445 	-4.24873e-05
0.0892432 	64.2475 	-0.395973 	-1.71429e-05
0.0894975 	64.4621 	-0.394706 	0.000126533
0.0897518 	64.679 	-0.389684 	0.000517554
0.090006 	64.8966 	-0.394588 	0.000254
0.0902603 	65.1154 	-0.399152 	-4.92245e-06
0.0905145 	65.3361 	-0.399467 	-1.98435e-05
0.0907688 	65.5568 	-0.399783 	-3.47645e-05
0.091023 	65.7775 	-0.400098 	-4.96855e-05
0.0912773 	65.9982 	-0.400414 	-4.0602e-05
0.0915315 	66.2189 	-0.40073 	-2.50661e-05
0.0917858 	66.4396 	-0.401045 	-9.53007e-06
0.09204 	66.6614 	-0.398939 	0.000152534
0.0922943 	66.8852 	-0.392988 	0.000547119
0.0925485 	67.1095 	-0.396766 	0.000349967
0.0928028 	67.3342 	-0.403015 	-3.35043e-07
0.0930571 	67.5612 	-0.40308 	-4.24715e-06
0.0933113 	67.7883 	-0.403146 	-8.15926e-06
0.0935656 	68.0153 	-0.403211 	-1.20714e-05
0.0938198 	68.2423 	-0.403276 	-1.03846e-05
0.0940741 	68.4693 	-0.403341 	-6.31541e-06
0.0943283 	68.6964 	-0.403406 	-2.24624e-06
0.0945826 	68.9246 	-0.400365 	0.000177448
0.0948368 	69.1543 	-0.393494 	0.000573592
0.0950911 	69.3844 	-0.395778 	0.000444853
0.0953453 	69.6147 	-0.402523 	6.02321e-05
0.0955996 	69.8467 	-0.403354 	8.93067e-06
0.0958539 	70.079 	-0.403086 	1.95193e-05
0.0961081 	70.3113 	-0.402819 	3.0108e-05
0.0963624 	70.5435 	-0.402551 	2.74273e-05
0.0966166 	70.7758 	-0.402283 	1.6428e-05
0.0968709 	71.0081 	-0.402016 	5.42874e-06
0.0971251 	71.2415 	-0.397971 	0.000199112
0.0973794 	71.476 	-0.390246 	0.000592253
0.0976336 	71.7106 	-0.390859 	0.00053332
0.0978879 	71.9455 	-0.397433 	0.00015119
0.0981421 	72.1811 	-0.399654 	1.593e-05
0.0983964 	72.4172 	-0.399025 	4.22886e-05
0.0986507 	72.6533 	-0.398395 	6.86472e-05
0.0989049 	72.8894 	-0.397766 	6.66792e-05
0.0991592 	73.1256 	-0.397137 	3.93426e-05
0.0994134 	73.3617 	-0.396508 	1.2006e-05
0.0996677 	73.5986 	-0.391422 	0.000216252
0.0999219 	73.8362 	-0.382845 	0.000601853
0.100176 	74.0738 	-0.381636 	0.000611762
0.10043 	74.3116 	-0.387984 	0.000236456
0.100685 	74.5495 	-0.391606 	1.60459e-05
0.100939 	74.7877 	-0.390587 	5.94165e-05
0.101193 	75.0258 	-0.389569 	0.000102787
0.101447 	75.2639 	-0.388551 	0.000107315
0.101702 	75.5021 	-0.387533 	6.2422e-05
0.101956 	75.7402 	-0.386515 	1.75287e-05
0.10221 	75.9786 	-0.380398 	0.000225732
0.102464 	76.2173 	-0.371015 	0.000596056
0.102719 	76.4559 	-0.367918 	0.000670838
0.102973 	76.6947 	-0.374089 	0.000309828
0.103227 	76.9333 	-0.379198 	8.06307e-06
0.103481 	77.1713 	-0.377874 	6.49336e-05
0.103736 	77.4093 	-0.37655 	0.000121804
0.10399 	77.6473 	-0.375225 	0.000137961
0.104244 	77.8853 	-0.373901 	7.92255e-05
0.104498 	78.1233 	-0.372577 	2.04903e-05
0.104753 	78.3609 	-0.365517 	0.000230608
0.105007 	78.5983 	-0.355383 	0.000584764
0.105261 	78.8357 	-0.350375 	0.000718961
0.105516 	79.0731 	-0.356552 	0.00037308
0.10577 	79.3104 	-0.36273 	2.71996e-05
0.106024 	79.546 	-0.361654 	6.7505e-05
0.106278 	79.7815 	-0.359959 	0.000140771
0.106533 	80.0169 	-0.358265 	0.000174799
0.106787 	80.2523 	-0.35657 	9.93235e-05
0.107041 	80.4878 	-0.354875 	2.38483e-05
0.107295 	80.722 	-0.346718 	0.000226821
0.10755 	80.9557 	-0.335575 	0.000558416
0.107804 	81.1893 	-0.328275 	0.000743029
0.108058 	81.4228 	-0.334292 	0.000418512
0.108312 	81.6563 	-0.340308 	9.39952e-05
0.108567 	81.8876 	-0.340559 	6.4773e-05
0.108821 	82.1179 	-0.338458 	0.000155957
0.109075 	82.3482 	-0.336358 	0.000214808
0.109329 	82.5785 	-0.334257 	0.000121144
0.109584 	82.8088 	-0.332156 	2.74807e-05
0.109838 	83.0369 	-0.323071 	0.000210649
0.110092 	83.2641 	-0.311086 	0.000508763
0.110346 	83.4913 	-0.301511 	0.000728022
0.110601 	83.7182 	-0.307574 	0.0004356
0.110855 	83.9452 	-0.313636 	0.000143178
0.111109 	84.1697 	-0.315406 	5.2252e-05
0.111363 	84.3921 	-0.313056 	0.000154631
0.111618 	84.6144 	-0.310706 	0.000239299
0.111872 	84.8368 	-0.308357 	0.000134467
0.112126 	85.0591 	-0.306007 	2.96355e-05
0.11238 	85.2783 	-0.29612 	0.000191879
0.112635 	85.4962 	-0.283263 	0.000459377
0.112889 	85.7141 	-0.271221 	0.000704194
0.113143 	85.9315 	-0.277425 	0.000441143
0.113397 	86.1488 	-0.28363 	0.000178091
0.113652 	86.3643 	-0.286971 	3.75362e-05
0.113906 	86.5755 	-0.28431 	0.000153753
0.11416 	86.7868 	-0.28165 	0.00026997
0.114414 	86.9981 	-0.278989 	0.000152435
0.114669 	87.2094 	-0.276329 	3.38425e-05
0.114923 	87.4164 	-0.265581 	0.000170118
0.115177 	87.6217 	-0.251605 	0.000408167
0.115431 	87.827 	-0.237628 	0.000646216
0.115686 	88.0316 	-0.243033 	0.000434331
0.11594 	88.2362 	-0.249422 	0.000199602
0.116194 	88.4396 	-0.254407 	1.96121e-05
0.116448 	88.6365 	-0.25141 	0.000150667
0.116703 	88.8334 	-0.248414 	0.000281721
0.116957 	89.0302 	-0.245418 	0.000173588
0.117211 	89.2271 	-0.242422 	4.03454e-05
0.117465 	89.4187 	-0.230901 	0.000146603
0.11772 	89.608 	-0.215679 	0.000356876
0.117974 	89.7972 	-0.200457 	0.000567149
0.118228 	89.9857 	-0.204012 	0.000417609
0.118482 	90.174 	-0.210615 	0.000209671
0.118737 	90.3624 	-0.217219 	1.73167e-06
0.118991 	90.5415 	-0.214077 	0.000139882
0.119245 	90.7205 	-0.210854 	0.000280938
0.119499 	90.8995 	-0.207631 	0.000190882
0.119754 	91.0785 	-0.204407 	4.80272e-05
0.120008 	91.2513 	-0.192546 	0.000124684
0.120262 	91.4211 	-0.176309 	0.000312516
0.120517 	91.5909 	-0.160072 	0.000500348
0.120771 	91.7598 	-0.161662 	0.000400538
0.121025 	91.9284 	-0.168614 	0.000214227
0.121279 	92.097 	-0.175565 	2.79165e-05
0.121534 	92.2564 	-0.173753 	0.000124847
0.121788 	92.4142 	-0.170397 	0.000271697
0.122042 	92.5719 	-0.167041 	0.000205379
0.122296 	92.7297 	-0.163685 	5.72571e-05
0.122551 	92.8808 	-0.15197 	0.000101939
0.122805 	93.0277 	-0.134987 	0.000268112
0.123059 	93.1747 	-0.118005 	0.000434285
0.123313 	93.3208 	-0.117543 	0.000376003
0.123568 	93.4664 	-0.124961 	0.000210661
0.123822 	93.6121 	-0.132379 	4.53194e-05
0.124076 	93.749 	-0.132002 	0.000105372
0.12433 	93.8825 	-0.128683 	0.000250532
0.124585 	94.016 	-0.125364 	0.00021208
0.124839 	94.1495 	-0.122044 	6.62648e-05
0.125093 	94.2763 	-0.111066 	8.02799e-05
0.125347 	94.3977 	-0.0937075 	0.000227431
0.125602 	94.519 	-0.0763492 	0.000374583
0.125856 	94.6396 	-0.073882 	0.000349692
0.12611 	94.7596 	-0.081971 	0.000202842
0.126364 	94.8796 	-0.0900599 	5.59931e-05
0.126619 	94.9916 	-0.0912271 	8.37373e-05
0.126873 	95.0985 	-0.0881286 	0.000219079
0.127127 	95.2055 	-0.0850301 	0.000208411
0.127381 	95.3125 	-0.0819315 	7.2952e-05
0.127636 	95.4134 	-0.0722151 	6.18285e-05
0.12789 	95.5072 	-0.054775 	0.000195815
0.128144 	95.6011 	-0.0373349 	0.000329802
0.128398 	95.6943 	-0.0328823 	0.000331611
0.128653 	95.7869 	-0.041775 	0.000197605
0.128907 	95.8795 	-0.0506676 	6.3598e-05
0.129161 	95.965 	-0.0534329 	6.34744e-05
0.129415 	96.0442 	-0.0506636 	0.000184282
0.12967 	96.1233 	-0.0478943 	0.000197098
0.129924 	96.2025 	-0.0451249 	7.64435e-05
0.130178 	96.2767 	-0.037038 	4.56338e-05
0.130432 	96.3424 	-0.0197568 	0.000170169
0.130687 	96.408 	-0.00247557 	0.000294703
0.130941 	96.4732 	0.00395776 	0.000319231
0.131195 	96.5378 	-0.00579849 	0.000194507
0.131449 	96.6023 	-0.0155547 	6.97823e-05
0.131704 	96.661 	-0.0199678 	4.55312e-05
0.131958 	96.7123 	-0.0175944 	0.00014889
0.132212 	96.7635 	-0.015221 	0.000178909
0.132466 	96.8148 	-0.0128476 	7.58318e-05
0.132721 	96.8626 	-0.00662049 	3.10673e-05
0.132975 	96.9005 	0.0103326 	0.000148601
0.133229 	96.9385 	0.0272856 	0.000266135
0.133483 	96.9761 	0.0357328 	0.000310888
0.133738 	97.0131 	0.0251775 	0.000193047
0.133992 	97.0501 	0.0146222 	7.52062e-05
0.134246 	97.0826 	0.00860331 	3.1164e-05
0.134501 	97.1069 	0.0105865 	0.000117299
0.134755 	97.1313 	0.0125697 	0.000158166
0.135009 	97.1556 	0.0145529 	7.2385e-05
0.135263 	97.178 	0.018803 	1.70932e-05
0.135518 	97.1896 	0.0353016 	0.000126546
0.135772 	97.2012 	0.0518002 	0.000235998
0.136026 	97.2127 	0.0622507 	0.000297816
0.13628 	97.2236 	0.0509039 	0.000187963
0.136535 	97.2345 	0.0395571 	7.81103e-05
0.136789 	97.242 	0.031961 	2.04126e-05
0.137043 	97.241 	0.0335945 	9.10534e-05
0.137297 	97.2401 	0.035228 	0.000137548
0.137552 	97.2392 	0.0368614 	6.72925e-05
0.137806 	97.2378 	0.0391078 	4.23279e-06
0.13806 	97.225 	0.0552712 	0.000104577
0.138314 	97.2123 	0.0714347 	0.000204922
0.138569 	97.1995 	0.0840744 	0.000280081
0.138823 	97.1862 	0.0720941 	0.000179266
0.139077 	97.1729 	0.0601137 	7.84522e-05
0.139331 	97.1572 	0.05109 	1.28598e-05
0.139586 	97.133 	0.0524389 	7.08329e-05
0.13984 	97.1089 	0.0537878 	0.000119623
0.140094 	97.0848 	0.0551367 	6.20415e-05
0.140348 	97.0606 	0.0564857 	4.46036e-06
0.140603 	97.0265 	0.0713124 	8.66517e-05
0.140857 	96.9915 	0.0872708 	0.000180578
0.141111 	96.9566 	0.102287 	0.000268248
0.141365 	96.9212 	0.0898753 	0.000173789
0.14162 	96.8858 	0.0774638 	7.93295e-05
0.141874 	96.8489 	0.0672305 	8.12397e-06
0.142128 	96.8037 	0.0684187 	5.88412e-05
0.142382 	96.7585 	0.0696069 	0.000109558
0.142637 	96.7133 	0.0707951 	6.0499e-05
0.142891 	96.6681 	0.0719832 	1.01886e-05
0.143145 	96.6151 	0.0849008 	7.05267e-05
0.143399 	96.5601 	0.100797 	0.000158962
0.143654 	96.5051 	0.116693 	0.000247397
0.143908 	96.4499 	0.105705 	0.000168804
0.144162 	96.3946 	0.0930399 	7.97826e-05
0.144416 	96.3384 	0.0818037 	4.86836e-06
0.144671 	96.2743 	0.0829097 	5.17745e-05
0.144925 	96.2102 	0.0840157 	9.86806e-05
0.145179 	96.146 	0.0851217 	6.19359e-05
0.145433 	96.0819 	0.0862277 	1.54625e-05
0.145688 	96.012 	0.0971942 	5.5424e-05
0.145942 	95.9391 	0.113077 	0.000138482
0.146196 	95.8662 	0.12896 	0.000221539
0.14645 	95.7931 	0.120435 	0.000162986
0.146705 	95.72 	0.107579 	7.93023e-05
0.146959 	95.6465 	0.0954511 	2.31621e-06
0.147213 	95.5655 	0.0965009 	4.65493e-05
0.147467 	95.4845 	0.0975507 	9.07824e-05
0.147722 	95.4035 	0.0986005 	6.42506e-05
0.147976 	95.3225 	0.0996503 	2.0476e-05
0.14823 	95.2374 	0.108601 	4.15484e-05
0.148484 	95.1486 	0.124495 	0.00011961
0.148739 	95.0597 	0.140388 	0.000197672
0.148993 	94.9708 	0.134396 	0.000156994
0.149247 	94.8818 	0.121393 	7.82777e-05
0.149502 	94.7928 	0.108467 	2.3502e-07
0.149756 	94.6968 	0.109472 	4.229e-05
0.15001 	94.6008 	0.110477 	8.4345e-05
0.150264 	94.5048 	0.111481 	6.68222e-05
0.150519 	94.4088 	0.112486 	2.52484e-05
0.150773 	94.3101 	0.119331 	2.85178e-05
0.151027 	94.2072 	0.13521 	0.000101138
0.151281 	94.1043 	0.151088 	0.000173758
0.151536 	94.0013 	0.14764 	0.00014928
0.15179 	93.8982 	0.134479 	7.59917e-05
0.152044 	93.7952 	0.121317 	2.70376e-06
0.152298 	93.6863 	0.121737 	3.7599e-05
0.152553 	93.5771 	0.122677 	7.66378e-05
0.152807 	93.468 	0.123618 	6.7507e-05
0.153061 	93.3588 	0.124558 	2.89539e-05
0.153315 	93.2481 	0.129202 	1.66155e-05
0.15357 	93.1329 	0.145016 	8.33446e-05
0.153824 	93.0176 	0.160831 	0.000150074
0.154078 	92.9024 	0.159914 	0.000139868
0.154332 	92.7871 	0.146561 	7.24753e-05
0.154587 	92.6718 	0.133208 	5.08249e-06
0.154841 	92.5517 	0.132986 	3.21807e-05
0.155095 	92.4312 	0.133834 	6.69857e-05
0.155349 	92.3106 	0.134682 	6.51938e-05
0.155604 	92.1901 	0.135531 	3.08539e-05
0.155858 	92.0691 	0.137888 	6.17489e-06
0.156112 	91.9433 	0.153595 	6.69925e-05
0.156366 	91.8176 	0.169303 	0.00012781
0.156621 	91.6918 	0.170904 	0.000129713
0.156875 	91.5661 	0.157332 	6.82486e-05
0.157129 	91.4404 	0.14376 	6.78419e-06
0.157383 	91.3109 	0.142916 	2.63685e-05
0.157638 	91.1808 	0.143651 	5.6008e-05
0.157892 	91.0508 	0.144386 	5.98782e-05
0.158146 	90.9207 	0.145121 	3.06597e-05
0.1584 	90.7907 	0.145856 	1.44124e-06
0.158655 	90.6565 	0.160696 	5.25631e-05
0.158909 	90.5221 	0.176269 	0.000107852
0.159163 	90.3878 	0.180385 	0.000119772
0.159417 	90.2536 	0.166584 	6.38605e-05
0.159672 	90.1193 	0.152783 	7.94857e-06
0.159926 	89.9821 	0.151345 	2.06279e-05
0.16018 	89.8444 	0.151957 	4.46737e-05
0.160434 	89.7068 	0.152568 	5.21838e-05
0.160689 	89.5691 	0.15318 	2.84977e-05
0.160943 	89.4314 	0.153791 	4.81162e-06
0.161197 	89.291 	0.166206 	4.01589e-05
0.161451 	89.1499 	0.181629 	9.05543e-05
0.161706 	89.0088 	0.18827 	0.00011071
0.16196 	88.8679 	0.174248 	5.97192e-05
0.162214 	88.727 	0.160226 	8.72829e-06
0.162468 	88.584 	0.158231 	1.5312e-05
0.162723 	88.4406 	0.158719 	3.37858e-05
0.162977 	88.2972 	0.159207 	4.29079e-05
0.163231 	88.1537 	0.159696 	2.47229e-05
0.163485 	88.0103 	0.160184 	6.53789e-06
0.16374 	87.8653 	0.17014 	2.96007e-05
0.163994 	87.7193 	0.185409 	7.58154e-05
0.164248 	87.5734 	0.194588 	0.000102822
0.164503 	87.4277 	0.180366 	5.60379e-05
0.164757 	87.282 	0.166144 	9.25413e-06
0.165011 	87.1349 	0.163628 	1.05739e-05
0.165265 	86.9876 	0.163999 	2.37546e-05
0.16552 	86.8402 	0.164371 	3.26515e-05
0.165774 	86.6928 	0.164742 	1.96846e-05
0.166028 	86.5455 	0.165113 	6.71766e-06
0.166282 	86.3973 	0.172589 	2.05782e-05
0.166537 	86.2482 	0.187702 	6.32743e-05
0.166791 	86.0992 	0.199426 	9.6099e-05
0.167045 	85.9505 	0.185032 	5.2859e-05
0.167299 	85.8017 	0.170638 	9.61905e-06
0.167554 	85.6523 	0.16764 	6.40005e-06
0.167808 	85.5027 	0.167901 	1.46307e-05
0.168062 	85.353 	0.168162 	2.16762e-05
0.168316 	85.2034 	0.168424 	1.35831e-05
0.168571 	85.0538 	0.168685 	5.49003e-06
0.168825 	84.9039 	0.173671 	1.27744e-05
0.169079 	84.7533 	0.18862 	5.24859e-05
0.169333 	84.6028 	0.202885 	9.03406e-05
0.169588 	84.4526 	0.188351 	5.0109e-05
0.169842 	84.3024 	0.173817 	9.87748e-06
0.170096 	84.1521 	0.170369 	2.76638e-06
0.17035 	84.0017 	0.170529 	6.43257e-06
0.170605 	83.8514 	0.170688 	1.00988e-05
0.170859 	83.701 	0.170848 	6.63041e-06
0.171113 	83.5506 	0.171008 	3.02703e-06
0.171367 	83.4002 	0.173507 	5.94349e-06
0.171622 	83.2496 	0.188286 	4.3084e-05
0.171876 	83.099 	0.203065 	8.02244e-05
0.17213 	82.9487 	0.19044 	4.77005e-05
0.172384 	82.7985 	0.175803 	1.00629e-05
0.172639 	82.6486 	0.171938 	-3.98181e-07
0.172893 	82.4988 	0.172004 	-9.42026e-07
0.173147 	82.349 	0.17207 	-1.48587e-06
0.173401 	82.1992 	0.172136 	-1.06983e-06
0.173656 	82.0494 	0.172201 	-5.35483e-07
0.17391 	81.8995 	0.172267 	-1.13534e-09
0.174164 	81.7501 	0.186822 	3.47848e-05
0.174418 	81.6006 	0.201415 	6.96605e-05
0.174673 	81.4515 	0.191398 	4.55441e-05
0.174927 	81.3025 	0.176694 	1.01937e-05
0.175181 	81.1541 	0.172441 	-3.07158e-06
0.175435 	81.0059 	0.172422 	-7.38811e-06
0.17569 	80.8578 	0.172403 	-1.17046e-05
0.175944 	80.7097 	0.172385 	-9.18319e-06
0.176198 	80.5615 	0.172366 	-4.94311e-06
0.176452 	80.4134 	0.172347 	-7.03016e-07
0.176707 	80.2659 	0.184353 	2.73174e-05
0.176961 	80.1186 	0.19875 	6.00664e-05
0.177215 	79.9716 	0.191356 	4.34545e-05
0.177469 	79.8248 	0.176637 	1.02545e-05
0.177724 	79.6788 	0.172026 	-5.29334e-06
0.177978 	79.5333 	0.171932 	-1.29526e-05
0.178232 	79.3877 	0.171837 	-2.06118e-05
0.178486 	79.2421 	0.171743 	-1.75221e-05