/*--------------------------------*- C++ -*----------------------------------*\
| =========                 |                                                 |
| \\      /  F ield         | OpenFOAM: The Open Source CFD Toolbox           |
|  \\    /   O peration     | Version:  v3.0+                                 |
|   \\  /    A nd           | Web:      www.OpenFOAM.com                      |
|    \\/     M anipulation  |                                                 |
\*---------------------------------------------------------------------------*/
FoamFile
{
    version     2.0;
    format      ascii;
    class       volVectorField;
    location    "3000";
    object      D;
}
// * * * * * * * * * * * * * * * * * * * * * * * * * * * * * * * * * * * * * //

dimensions      [0 1 0 0 0 0 0];

internalField   nonuniform List<vector> 
27023
(
(5.69582e-07 1.7448e-07 0)
(-5.70508e-07 1.74628e-07 0)
(-4.58007e-07 1.30343e-07 0)
(4.57276e-07 1.30166e-07 0)
(5.61635e-07 1.68544e-07 0)
(-5.62553e-07 1.68701e-07 0)
(-2.04005e-06 1.56938e-06 0)
(2.03744e-06 1.56917e-06 0)
(-2.66552e-07 7.85286e-08 0)
(2.6612e-07 7.82719e-08 0)
(-1.46366e-06 9.03118e-07 0)
(1.46141e-06 9.03012e-07 0)
(-6.27783e-08 5.57906e-08 0)
(6.2688e-08 5.54812e-08 0)
(1.07625e-06 3.66702e-06 0)
(-4.6589e-08 4.248e-07 0)
(-5.7312e-08 4.01812e-07 0)
(2.10799e-06 3.27154e-06 0)
(-2.11143e-06 3.27174e-06 0)
(-1.48948e-06 2.86356e-06 0)
(1.4861e-06 2.86341e-06 0)
(-2.05829e-06 1.59156e-06 0)
(2.05567e-06 1.59134e-06 0)
(-1.30409e-06 1.33175e-06 0)
(1.30139e-06 1.33162e-06 0)
(-2.85099e-07 2.49863e-06 0)
(8.87569e-07 9.11071e-07 0)
(-7.8983e-07 6.17947e-05 0)
(9.07705e-07 9.32071e-07 0)
(-3.01624e-06 1.64906e-05 0)
(-5.37925e-07 2.66951e-06 0)
(-1.52172e-06 2.89556e-06 0)
(1.51833e-06 2.89541e-06 0)
(2.05825e-06 5.38979e-06 0)
(1.09013e-06 3.7245e-06 0)
(-2.0521e-06 8.34646e-06 0)
(-1.24679e-06 2.21273e-06 0)
(1.24364e-06 2.21258e-06 0)
(-2.74059e-07 8.02786e-08 0)
(2.7364e-07 8.00428e-08 0)
(4.48738e-07 1.27393e-07 0)
(-4.49454e-07 1.27572e-07 0)
(1.8671e-06 1.62312e-05 0)
(5.72853e-07 1.73915e-07 0)
(-5.73789e-07 1.74069e-07 0)
(-2.14056e-06 3.30996e-06 0)
(2.13711e-06 3.30976e-06 0)
(-1.34637e-06 1.83428e-06 0)
(1.34345e-06 1.8341e-06 0)
(-1.94589e-06 8.36528e-06 0)
(-1.31768e-06 1.81866e-06 0)
(1.31476e-06 1.81849e-06 0)
(2.11198e-06 5.46003e-06 0)
(-5.42169e-08 2.87648e-08 0)
(5.41132e-08 2.85273e-08 0)
(-2.28315e-06 5.3205e-06 0)
(-2.3684e-06 2.16289e-05 0)
(-9.6915e-06 8.60364e-05 0)
(1.09483e-06 8.48859e-06 0)
(-4.54e-07 1.2952e-07 0)
(4.5328e-07 1.29358e-07 0)
(-2.78242e-06 1.64054e-05 0)
(-1.52836e-07 3.35693e-06 0)
(-1.12649e-06 5.89337e-05 0)
(2.05102e-06 1.64131e-05 0)
(-5.03523e-07 2.66279e-06 0)
(-1.42399e-06 3.28976e-06 0)
(-3.14466e-07 2.4913e-06 0)
(8.71509e-07 5.79851e-07 0)
(1.20672e-06 8.4849e-06 0)
(-1.22031e-06 2.21765e-06 0)
(1.21715e-06 2.21751e-06 0)
(-1.75631e-06 1.72116e-06 0)
(1.75352e-06 1.72097e-06 0)
(-2.98776e-06 3.13887e-06 0)
(2.98449e-06 3.13855e-06 0)
(-3.5485e-08 4.02733e-08 0)
(3.54391e-08 4.0011e-08 0)
(2.48057e-06 2.10292e-06 0)
(-2.48343e-06 2.10321e-06 0)
(7.75953e-07 1.64659e-06 0)
(-1.45246e-06 8.97015e-07 0)
(1.45021e-06 8.96912e-07 0)
(-1.73968e-06 1.72805e-06 0)
(1.73689e-06 1.72786e-06 0)
(3.26581e-06 3.33747e-06 0)
(-3.26913e-06 3.33781e-06 0)
(1.42184e-06 3.28508e-06 0)
(-1.0822e-07 6.2565e-05 0)
(1.33104e-05 0.000194088 0)
(-1.29259e-05 0.000193977 0)
(-6.26309e-07 1.88839e-07 0)
(6.25264e-07 1.88677e-07 0)
(-5.16662e-07 4.47779e-07 0)
(1.01715e-07 4.20599e-08 0)
(1.25679e-06 1.20035e-06 0)
(-1.25942e-06 1.20046e-06 0)
(7.92043e-07 1.62942e-06 0)
(1.42007e-06 1.26326e-05 0)
(-2.82165e-08 1.01337e-05 0)
(2.80896e-06 1.7936e-05 0)
(1.33785e-05 0.000196881 0)
(-1.2744e-05 0.000196956 0)
(-1.82773e-06 1.45955e-06 0)
(1.82512e-06 1.45937e-06 0)
(-1.62806e-07 1.00672e-05 0)
(-2.04448e-06 1.684e-06 0)
(2.04178e-06 1.68378e-06 0)
(-2.29609e-06 5.26047e-06 0)
(-1.03668e-05 8.71522e-05 0)
(-2.10855e-06 2.18907e-05 0)
(-2.03773e-06 1.69282e-06 0)
(2.03503e-06 1.6926e-06 0)
(-1.27773e-06 1.30853e-06 0)
(1.27505e-06 1.3084e-06 0)
(-3.00073e-06 3.18045e-06 0)
(2.99745e-06 3.18013e-06 0)
(-4.85937e-07 3.05075e-08 0)
(8.15567e-07 2.85593e-07 0)
(8.95052e-07 2.48319e-06 0)
(-8.77183e-07 4.33281e-06 0)
(-1.12868e-07 3.34815e-06 0)
(1.40576e-06 8.11883e-07 0)
(-1.40777e-06 8.12014e-07 0)
(-2.19939e-06 1.71203e-06 0)
(2.19673e-06 1.71178e-06 0)
(-6.2844e-07 1.8664e-07 0)
(6.27384e-07 1.86474e-07 0)
(-1.80743e-06 1.43484e-06 0)
(1.80483e-06 1.43466e-06 0)
(1.24532e-06 1.25174e-05 0)
(9.64858e-09 1.97445e-08 0)
(-9.53012e-09 1.93177e-08 0)
(5.26517e-07 2.7534e-06 0)
(-8.23801e-07 4.34382e-06 0)
(3.28868e-06 3.37899e-06 0)
(-3.29202e-06 3.37933e-06 0)
(-2.71919e-07 1.4146e-06 0)
(-2.05764e-06 2.95642e-06 0)
(2.05433e-06 2.95622e-06 0)
(1.85298e-06 1.3483e-06 0)
(-1.85548e-06 1.34848e-06 0)
(1.8264e-07 1.55602e-06 0)
(-1.97551e-06 1.50641e-06 0)
(1.97293e-06 1.50621e-06 0)
(5.2839e-07 2.79357e-06 0)
(1.97788e-06 2.2884e-05 0)
(-1.06242e-06 7.40921e-07 0)
(-1.45996e-06 3.31455e-06 0)
(-8.77009e-07 3.44959e-07 0)
(8.75589e-07 3.44841e-07 0)
(-1.02921e-06 4.33798e-07 0)
(1.02752e-06 4.33682e-07 0)
(2.1883e-06 1.30849e-05 0)
(9.29631e-07 2.47734e-06 0)
(9.88508e-06 0.000115731 0)
(-9.82284e-06 0.000115687 0)
(-1.12882e-06 3.7576e-06 0)
(-2.06015e-06 2.92455e-06 0)
(2.05686e-06 2.92434e-06 0)
(3.88293e-06 1.07089e-05 0)
(2.34212e-06 2.29368e-05 0)
(7.37613e-06 3.68529e-05 0)
(-2.73976e-07 9.29104e-06 0)
(1.18187e-06 5.74193e-07 0)
(-1.18374e-06 5.74308e-07 0)
(1.7234e-06 1.2116e-06 0)
(-1.72583e-06 1.21176e-06 0)
(5.75461e-07 1.70227e-06 0)
(-5.98759e-08 1.66673e-06 0)
(-1.15371e-06 5.80267e-05 0)
(2.45951e-06 2.07663e-06 0)
(-2.46236e-06 2.07691e-06 0)
(8.10643e-06 0.000116078 0)
(-8.05542e-06 0.000116008 0)
(5.84818e-06 6.31077e-05 0)
(-1.80163e-07 9.22217e-06 0)
(1.89748e-07 1.53303e-06 0)
(4.91115e-06 6.3214e-05 0)
(-2.9522e-07 1.39811e-06 0)
(1.45897e-06 3.30981e-06 0)
(1.83397e-06 1.33701e-06 0)
(-1.83647e-06 1.33718e-06 0)
(2.67986e-06 1.81995e-05 0)
(2.47554e-06 4.89233e-06 0)
(2.54528e-06 4.89673e-06 0)
(1.23189e-06 1.19832e-06 0)
(-1.23453e-06 1.19843e-06 0)
(7.15676e-06 3.72987e-05 0)
(2.10852e-06 3.07829e-05 0)
(1.7098e-06 1.19297e-06 0)
(-1.71222e-06 1.19312e-06 0)
(7.10339e-07 1.36186e-06 0)
(-2.58983e-07 5.81206e-06 0)
(-2.19694e-06 1.72049e-06 0)
(2.19427e-06 1.72025e-06 0)
(5.82794e-06 1.80549e-05 0)
(1.62342e-06 1.07717e-06 0)
(-1.62576e-06 1.0773e-06 0)
(7.97161e-07 2.79709e-07 0)
(-1.17576e-06 3.78195e-06 0)
(8.56585e-07 5.9232e-07 0)
(-3.39345e-06 3.9613e-06 0)
(3.3899e-06 3.96097e-06 0)
(5.61242e-07 1.66653e-07 0)
(-5.62164e-07 1.66815e-07 0)
(7.48864e-07 2.36067e-06 0)
(4.21572e-06 1.03394e-05 0)
(-3.33775e-06 3.92406e-06 0)
(3.33422e-06 3.92373e-06 0)
(-3.86954e-10 8.55685e-09 0)
(3.83549e-10 8.49855e-09 0)
(-4.85898e-07 4.30846e-07 0)
(7.81613e-07 2.3752e-06 0)
(2.86839e-07 8.59771e-08 0)
(-2.87313e-07 8.63244e-08 0)
(8.14685e-07 1.32135e-06 0)
(-8.17365e-08 1.65017e-06 0)
(-7.57515e-07 3.7646e-05 0)
(2.67878e-06 2.56539e-06 0)
(-2.68184e-06 2.5657e-06 0)
(2.27107e-06 3.13068e-05 0)
(1.41913e-06 8.24962e-07 0)
(-1.42116e-06 8.25093e-07 0)
(2.16741e-06 1.32753e-05 0)
(-2.40366e-06 2.50409e-06 0)
(2.4006e-06 2.50381e-06 0)
(-1.70982e-06 1.55926e-06 0)
(1.70711e-06 1.55908e-06 0)
(-1.5361e-07 5.94908e-08 0)
(1.53383e-07 5.92161e-08 0)
(-2.18018e-06 8.82792e-05 0)
(-2.48683e-06 2.55353e-06 0)
(2.48375e-06 2.55325e-06 0)
(3.75615e-06 1.05564e-05 0)
(-2.72333e-06 3.05629e-06 0)
(2.72006e-06 3.056e-06 0)
(-4.66573e-06 6.60969e-06 0)
(-1.55227e-06 4.796e-06 0)
(2.08683e-06 1.58703e-06 0)
(-2.08943e-06 1.58726e-06 0)
(-8.98923e-07 7.0427e-07 0)
(-6.65597e-06 2.59426e-05 0)
(-3.31518e-06 7.55855e-06 0)
(1.82328e-06 4.08846e-06 0)
(-5.11349e-07 2.77162e-07 0)
(6.52595e-08 2.17133e-05 0)
(8.14066e-07 8.14821e-07 0)
(-4.13426e-06 1.54945e-05 0)
(1.854e-06 4.14701e-06 0)
(2.28968e-06 1.95563e-06 0)
(-2.29249e-06 1.9559e-06 0)
(1.65082e-06 1.19782e-05 0)
(4.31408e-07 7.16365e-07 0)
(5.86597e-06 1.88005e-05 0)
(4.20607e-06 1.04817e-05 0)
(-3.92842e-06 6.70658e-06 0)
(4.35683e-06 1.27541e-05 0)
(-1.69753e-06 2.98887e-06 0)
(1.69414e-06 2.98871e-06 0)
(-4.30869e-07 3.32945e-09 0)
(-1.09369e-07 1.17608e-06 0)
(-9.25018e-06 4.82494e-05 0)
(-2.75807e-06 3.04774e-06 0)
(2.75482e-06 3.04745e-06 0)
(-1.99429e-06 1.52624e-06 0)
(1.99169e-06 1.52603e-06 0)
(-3.07032e-07 3.87426e-06 0)
(3.41212e-07 7.10648e-07 0)
(-1.39231e-06 7.90434e-07 0)
(1.39027e-06 7.90309e-07 0)
(-4.92509e-06 3.42669e-05 0)
(7.94052e-07 3.19098e-06 0)
(2.27738e-06 7.47284e-06 0)
(-8.0509e-07 1.46247e-05 0)
(-2.22545e-07 5.88942e-06 0)
(1.19446e-06 5.86303e-07 0)
(-1.19634e-06 5.86417e-07 0)
(1.76667e-06 3.26766e-06 0)
(-1.77016e-06 3.26781e-06 0)
(-5.29768e-06 2.64204e-05 0)
(2.89116e-06 7.69797e-06 0)
(-9.94023e-06 0.000209676 0)
(9.8356e-06 0.00020946 0)
(4.21521e-09 3.47303e-08 0)
(-4.19326e-09 3.49703e-08 0)
(1.05343e-06 6.61477e-06 0)
(1.71799e-06 8.77792e-06 0)
(-2.8407e-07 2.56031e-07 0)
(-9.42352e-07 3.69166e-07 0)
(-2.78024e-06 0.000173573 0)
(1.14566e-06 6.72161e-06 0)
(2.25534e-06 2.28851e-06 0)
(-2.25832e-06 2.28877e-06 0)
(3.03585e-06 3.0408e-06 0)
(-3.03908e-06 3.04113e-06 0)
(3.71213e-06 1.52477e-05 0)
(-3.29776e-06 6.90539e-06 0)
(3.24584e-06 3.67396e-06 0)
(-3.24929e-06 3.67428e-06 0)
(-5.6696e-08 6.20337e-08 0)
(-1.87372e-07 4.64666e-07 0)
(1.77689e-06 1.31764e-06 0)
(-1.7794e-06 1.31781e-06 0)
(2.35032e-07 -3.57013e-09 0)
(-4.09484e-07 1.0142e-07 0)
(4.08782e-07 1.01157e-07 0)
(-8.34314e-07 1.31561e-06 0)
(-1.21647e-06 4.11484e-06 0)
(5.00934e-07 2.09252e-05 0)
(-5.89946e-07 5.28448e-05 0)
(-7.73393e-09 3.27669e-08 0)
(7.76043e-09 3.25254e-08 0)
(-1.88682e-07 4.84533e-08 0)
(1.88405e-07 4.82335e-08 0)
(-3.16344e-06 1.38039e-05 0)
(1.45772e-06 2.36612e-06 0)
(-1.46088e-06 2.36628e-06 0)
(-5.14913e-08 2.47536e-06 0)
(-1.36034e-06 5.09372e-06 0)
(-9.24598e-08 6.76178e-08 0)
(9.23036e-08 6.72426e-08 0)
(9.79074e-07 9.86653e-07 0)
(6.07589e-07 1.56566e-07 0)
(4.81373e-07 3.1056e-08 0)
(-1.62105e-06 6.65034e-06 0)
(5.38151e-06 1.20991e-05 0)
(-3.63598e-07 3.88997e-06 0)
(-1.03324e-06 7.2414e-07 0)
(1.16257e-06 6.86901e-07 0)
(4.72316e-07 1.06997e-06 0)
(-1.16466e-06 6.87375e-07 0)
(6.21858e-06 1.30471e-05 0)
(-9.84104e-08 4.24652e-08 0)
(-2.91626e-06 1.37649e-05 0)
(7.60723e-07 2.77833e-07 0)
(-7.61958e-07 2.77957e-07 0)
(5.3608e-07 2.54356e-06 0)
(-2.53721e-07 4.88459e-07 0)
(-1.8768e-06 1.61844e-06 0)
(1.8741e-06 1.61825e-06 0)
(8.55174e-06 3.26868e-05 0)
(-8.59259e-06 3.26943e-05 0)
(-6.23694e-10 8.3676e-09 0)
(6.18821e-10 8.31048e-09 0)
(8.21413e-07 5.77495e-07 0)
(-5.94688e-07 1.92785e-07 0)
(5.93732e-07 1.92659e-07 0)
(3.07444e-06 3.0196e-05 0)
(-4.52428e-07 3.54191e-06 0)
(6.045e-06 2.8986e-05 0)
(-6.05072e-06 2.89862e-05 0)
(-2.52804e-06 2.57006e-06 0)
(2.52497e-06 2.56977e-06 0)
(-4.06265e-08 2.59508e-08 0)
(4.05614e-08 2.57276e-08 0)
(-1.50894e-07 9.80017e-08 0)
(2.41537e-06 2.08712e-06 0)
(-2.41823e-06 2.0874e-06 0)
(3.00036e-07 7.79224e-06 0)
(9.17328e-07 4.05722e-07 0)
(3.14854e-06 3.70969e-06 0)
(-3.15201e-06 3.70999e-06 0)
(1.7547e-06 1.19552e-06 0)
(-1.75707e-06 1.19568e-06 0)
(-3.82425e-06 8.54779e-05 0)
(2.84829e-06 1.3498e-05 0)
(1.55269e-07 5.49716e-07 0)
(7.06791e-07 2.33777e-07 0)
(-7.07961e-07 2.3392e-07 0)
(2.49142e-06 2.17534e-06 0)
(-2.49432e-06 2.17563e-06 0)
(4.26612e-07 2.56158e-07 0)
(2.41069e-06 4.48044e-06 0)
(4.7016e-07 2.29105e-08 0)
(3.11955e-06 6.74405e-06 0)
(2.40893e-06 4.54019e-06 0)
(9.92323e-07 1.46277e-06 0)
(7.15661e-06 5.02532e-05 0)
(-1.13908e-06 1.97447e-06 0)
(-1.29988e-06 5.05134e-06 0)
(1.13604e-06 1.9743e-06 0)
(-2.09402e-06 1.63642e-06 0)
(2.09137e-06 1.63619e-06 0)
(8.1206e-07 8.6344e-07 0)
(-3.69876e-07 1.63026e-06 0)
(-2.44265e-06 3.01441e-05 0)
(4.57219e-06 1.29117e-05 0)
(1.10473e-06 7.50222e-07 0)
(6.05436e-08 -9.37058e-08 0)
(7.5408e-07 6.58038e-07 0)
(-5.32901e-06 0.000173782 0)
(-9.19591e-07 4.05944e-07 0)
(-4.2937e-06 0.000192877 0)
(-2.76012e-08 3.78383e-07 0)
(4.98232e-07 8.44885e-06 0)
(-1.57051e-06 4.60249e-06 0)
(-2.08369e-06 1.96824e-05 0)
(5.23567e-06 8.88714e-06 0)
(1.70976e-06 4.6118e-06 0)
(-1.69591e-06 1.56742e-06 0)
(1.69319e-06 1.56725e-06 0)
(-5.94512e-07 3.30131e-07 0)
(7.19781e-07 1.33867e-06 0)
(-1.72571e-06 5.27943e-05 0)
(7.31303e-07 2.42051e-07 0)
(-7.32522e-07 2.42194e-07 0)
(-1.70539e-08 2.00822e-06 0)
(-7.66096e-07 3.66812e-06 0)
(1.1345e-06 1.03551e-06 0)
(-7.87404e-08 2.48328e-06 0)
(-1.13537e-06 1.03549e-06 0)
(-1.51489e-09 2.50231e-08 0)
(1.51641e-09 2.4863e-08 0)
(3.21866e-06 4.64335e-05 0)
(-2.38526e-06 5.98981e-06 0)
(-8.2621e-07 2.50042e-07 0)
(-2.47187e-06 4.286e-06 0)
(-1.71757e-06 6.58749e-06 0)
(1.89707e-06 4.97427e-06 0)
(-5.28893e-07 1.4127e-06 0)
(2.80521e-06 6.64129e-06 0)
(-3.71001e-07 -2.37596e-08 0)
(-1.8655e-07 1.52998e-06 0)
(-8.51949e-07 3.82157e-05 0)
(4.50868e-06 7.741e-06 0)
(3.11131e-06 3.65081e-06 0)
(-3.11477e-06 3.65111e-06 0)
(5.93059e-06 1.40211e-05 0)
(-6.14411e-07 1.47598e-05 0)
(-1.00468e-05 4.85715e-05 0)
(8.25441e-07 1.29885e-06 0)
(-2.86262e-06 3.30826e-06 0)
(2.85928e-06 3.30797e-06 0)
(1.63637e-06 1.81104e-06 0)
(-1.63923e-06 1.81123e-06 0)
(-2.88778e-06 5.92751e-06 0)
(-1.01825e-07 -8.69103e-08 0)
(-3.26514e-07 8.66657e-08 0)
(3.26018e-07 8.64854e-08 0)
(9.2887e-06 2.9376e-05 0)
(-9.29486e-06 2.93762e-05 0)
(-1.72741e-06 2.60615e-06 0)
(1.72419e-06 2.60596e-06 0)
(-4.9604e-10 1.42622e-08 0)
(4.98661e-10 1.43582e-08 0)
(5.20546e-07 1.36612e-06 0)
(7.67545e-07 7.13125e-06 0)
(2.07132e-06 4.62875e-06 0)
(7.90197e-08 -6.47066e-08 0)
(2.97639e-07 -3.35873e-09 0)
(1.60344e-06 1.03373e-06 0)
(-1.60572e-06 1.03386e-06 0)
(1.62456e-06 1.05582e-06 0)
(-1.62686e-06 1.05596e-06 0)
(-2.01695e-06 3.75286e-06 0)
(2.01331e-06 3.75267e-06 0)
(-9.74323e-07 4.11066e-07 0)
(9.72759e-07 4.1095e-07 0)
(3.40483e-07 1.30391e-06 0)
(-2.45937e-08 1.50209e-06 0)
(4.15897e-07 3.13369e-06 0)
(2.45849e-06 6.85626e-06 0)
(-5.97793e-07 1.09758e-06 0)
(-6.82763e-06 2.63383e-05 0)
(9.11763e-07 5.13373e-06 0)
(2.11034e-06 1.61661e-06 0)
(-2.11296e-06 1.61684e-06 0)
(2.68994e-06 7.03056e-06 0)
(-2.99762e-06 3.01234e-05 0)
(-3.4854e-06 6.71711e-05 0)
(-3.93405e-06 7.95169e-06 0)
(-2.80686e-06 5.70529e-06 0)
(9.86996e-07 9.30214e-07 0)
(4.72834e-07 2.47106e-06 0)
(-2.1804e-06 2.1306e-06 0)
(2.17748e-06 2.13035e-06 0)
(4.91869e-06 6.69094e-05 0)
(-4.76712e-06 6.69156e-05 0)
(-4.26574e-07 1.18769e-07 0)
(4.25882e-07 1.18543e-07 0)
(-2.47108e-06 2.56414e-06 0)
(2.468e-06 2.56386e-06 0)
(-8.85415e-08 2.84828e-06 0)
(-3.6153e-07 1.11613e-06 0)
(4.88708e-07 2.44802e-06 0)
(-4.5737e-07 1.73098e-08 0)
(-7.57934e-06 1.86903e-05 0)
(-4.96675e-06 0.000140296 0)
(1.4286e-06 8.51703e-07 0)
(-1.43079e-06 8.51809e-07 0)
(1.49739e-06 4.9032e-06 0)
(-9.42864e-07 3.63571e-07 0)
(-8.49104e-08 2.89201e-06 0)
(1.46133e-06 2.39798e-06 0)
(-1.46451e-06 2.39814e-06 0)
(-6.60472e-07 2.2e-07 0)
(6.59398e-07 2.19867e-07 0)
(-7.56255e-07 6.48899e-07 0)
(5.73619e-06 1.40234e-05 0)
(1.83549e-06 4.99659e-06 0)
(6.88299e-07 1.75664e-07 0)
(-6.89583e-07 1.7585e-07 0)
(5.15465e-06 2.69607e-05 0)
(1.94071e-07 5.14623e-07 0)
(-1.20136e-06 1.87085e-06 0)
(1.19839e-06 1.87068e-06 0)
(9.70287e-07 1.43611e-06 0)
(-1.783e-06 1.20872e-06 0)
(1.78065e-06 1.20855e-06 0)
(-1.49908e-06 9.41474e-07 0)
(1.49681e-06 9.41362e-07 0)
(1.11418e-06 8.3687e-07 0)
(1.26381e-06 6.68904e-07 0)
(-1.2657e-06 6.69028e-07 0)
(1.06228e-06 4.83323e-06 0)
(2.4975e-06 1.17355e-05 0)
(-2.70509e-06 3.29126e-06 0)
(2.70173e-06 3.29098e-06 0)
(2.4687e-06 4.28709e-06 0)
(3.06094e-06 3.47375e-06 0)
(-3.06434e-06 3.47406e-06 0)
(-5.78091e-06 2.63383e-05 0)
(2.04517e-06 1.9603e-06 0)
(-2.04802e-06 1.96053e-06 0)
(1.80501e-06 3.29417e-06 0)
(-1.80851e-06 3.29433e-06 0)
(4.45234e-07 2.80826e-06 0)
(-1.06485e-06 5.14466e-07 0)
(1.06322e-06 5.14347e-07 0)
(9.13643e-06 6.13825e-05 0)
(5.10126e-07 8.58618e-06 0)
(3.28259e-07 2.79127e-06 0)
(3.87867e-07 1.64085e-06 0)
(-1.41973e-06 1.22505e-06 0)
(1.41713e-06 1.22493e-06 0)
(2.38996e-06 2.08925e-06 0)
(-2.39282e-06 2.08953e-06 0)
(1.58676e-06 4.9169e-06 0)
(5.83458e-06 1.78089e-05 0)
(-9.95154e-07 1.46304e-06 0)
(-3.23347e-07 3.10025e-05 0)
(1.01436e-06 7.44426e-07 0)
(9.95582e-07 9.08433e-07 0)
(-4.94311e-06 6.55701e-05 0)
(3.19602e-07 8.42058e-08 0)
(-3.20088e-07 8.43862e-08 0)
(6.89165e-06 1.82451e-05 0)
(3.05445e-06 3.0811e-06 0)
(-3.05769e-06 3.08144e-06 0)
(-5.41153e-06 3.46993e-05 0)
(-1.12501e-07 2.76242e-06 0)
(1.87813e-06 1.64063e-06 0)
(-1.88084e-06 1.64083e-06 0)
(9.1046e-07 3.90434e-07 0)
(5.95749e-06 2.93681e-05 0)
(-5.96323e-06 2.93683e-05 0)
(-3.31403e-08 2.0313e-06 0)
(-8.20748e-08 -1.03152e-07 0)
(1.32447e-06 1.41397e-05 0)
(8.43031e-07 8.75373e-07 0)
(1.35268e-06 4.74407e-06 0)
(-1.20903e-06 1.84344e-06 0)
(1.20608e-06 1.84327e-06 0)
(3.8721e-06 1.54508e-05 0)
(1.24624e-08 3.29882e-07 0)
(-2.1615e-06 2.64216e-06 0)
(2.15834e-06 2.64193e-06 0)
(-6.49002e-07 4.23346e-06 0)
(1.49848e-06 2.97037e-06 0)
(-1.5019e-06 2.9705e-06 0)
(5.3026e-07 4.05805e-06 0)
(-7.16252e-07 2.59858e-07 0)
(7.151e-07 2.5974e-07 0)
(1.61318e-06 1.07466e-06 0)
(-1.61553e-06 1.0748e-06 0)
(8.01086e-07 3.2086e-07 0)
(-8.02361e-07 3.2097e-07 0)
(-3.52545e-06 1.22627e-05 0)
(8.85091e-07 1.30354e-06 0)
(-8.90027e-07 1.30407e-06 0)
(-4.11357e-06 1.52457e-05 0)
(9.06581e-07 3.68921e-07 0)
(-9.08042e-07 3.69037e-07 0)
(2.00112e-06 8.76951e-06 0)
(-4.07701e-07 6.11589e-07 0)
(5.53038e-07 1.71898e-06 0)
(2.51194e-06 6.00851e-06 0)
(-7.78408e-08 2.65283e-07 0)
(1.25657e-07 3.03608e-08 0)
(4.27964e-07 2.79525e-07 0)
(4.55881e-06 7.65962e-06 0)
(-1.2493e-06 1.31091e-06 0)
(1.2466e-06 1.31078e-06 0)
(-7.5146e-06 5.73918e-05 0)
(-1.24514e-06 1.34309e-06 0)
(1.24243e-06 1.34296e-06 0)
(1.037e-05 9.222e-05 0)
(1.68722e-06 1.68215e-06 0)
(-1.69e-06 1.68234e-06 0)
(4.56985e-07 3.15536e-06 0)
(2.12275e-07 7.83842e-06 0)
(1.52753e-06 2.94279e-06 0)
(-1.53094e-06 2.94294e-06 0)
(-2.76406e-06 3.22189e-06 0)
(2.76073e-06 3.2216e-06 0)
(-3.29772e-06 6.9993e-06 0)
(-6.54439e-07 1.29495e-06 0)
(-9.37599e-07 7.60515e-07 0)
(-1.9144e-06 2.15485e-06 0)
(1.91143e-06 2.15463e-06 0)
(-2.67006e-06 2.65283e-06 0)
(2.66696e-06 2.65253e-06 0)
(-3.12456e-06 2.18458e-05 0)
(1.0046e-06 4.87372e-06 0)
(-9.52258e-06 0.00021329 0)
(9.35426e-06 0.00021301 0)
(-1.01692e-06 1.93178e-06 0)
(1.0138e-06 1.93156e-06 0)
(1.04861e-05 8.62864e-05 0)
(2.5657e-09 2.82301e-09 0)
(7.99405e-10 1.16089e-09 0)
(-8.0476e-10 1.16893e-09 0)
(-2.58263e-09 2.84232e-09 0)
(1.58654e-06 1.2171e-05 0)
(-6.07826e-08 5.72512e-08 0)
(6.06768e-08 5.69374e-08 0)
(8.93953e-07 3.46099e-07 0)
(-8.9542e-07 3.4622e-07 0)
(6.13932e-07 1.85727e-07 0)
(-6.14952e-07 1.85887e-07 0)
(-7.21561e-07 2.64477e-07 0)
(7.20403e-07 2.6436e-07 0)
(-1.8156e-07 9.06323e-07 0)
(-1.53874e-06 1.49915e-06 0)
(1.53601e-06 1.49899e-06 0)
(2.15921e-06 5.27262e-06 0)
(5.57479e-06 7.17959e-05 0)
(1.45456e-06 1.44531e-06 0)
(-1.45728e-06 1.44546e-06 0)
(1.28667e-06 4.72732e-06 0)
(-1.78651e-06 2.00708e-06 0)
(1.78358e-06 2.00687e-06 0)
(1.74233e-06 5.44985e-06 0)
(1.0108e-06 3.0298e-06 0)
(-2.81022e-06 5.78406e-06 0)
(7.68727e-07 2.99586e-07 0)
(-7.69954e-07 2.99696e-07 0)
(-2.50791e-06 4.8665e-06 0)
(-2.04953e-07 6.04312e-06 0)
(5.91338e-09 1.68418e-06 0)
(3.58116e-06 3.0635e-05 0)
(2.06396e-06 1.95637e-06 0)
(-2.06681e-06 1.9566e-06 0)
(1.90968e-07 1.07365e-08 0)
(-1.09388e-06 7.95543e-07 0)
(2.4588e-06 2.1496e-06 0)
(-2.46169e-06 2.14989e-06 0)
(-1.36882e-10 1.21999e-08 0)
(1.37412e-10 1.22809e-08 0)
(-1.9808e-06 3.78032e-06 0)
(1.97714e-06 3.78014e-06 0)
(-5.09219e-06 2.69476e-05 0)
(8.39069e-07 2.05982e-05 0)
(-2.82321e-06 2.54924e-06 0)
(2.82017e-06 2.54891e-06 0)
(8.58207e-07 1.46472e-06 0)
(1.11156e-06 7.35585e-07 0)
(-1.48607e-07 -9.78399e-08 0)
(-1.0501e-05 0.000162125 0)
(-9.14374e-07 3.92014e-07 0)
(-1.28793e-06 3.59618e-06 0)
(-1.13639e-06 8.21975e-06 0)
(6.23952e-08 6.45941e-08 0)
(4.09436e-07 1.6238e-06 0)
(2.91291e-06 6.69367e-06 0)
(-8.45277e-07 2.82821e-07 0)
(-2.38545e-06 5.26733e-06 0)
(2.95497e-06 7.83416e-06 0)
(5.91966e-07 1.6068e-07 0)
(5.11621e-06 6.56406e-05 0)
(-9.08737e-09 3.44032e-08 0)
(9.11133e-09 3.41554e-08 0)
(-1.71178e-06 1.70845e-06 0)
(1.70899e-06 1.70827e-06 0)
(-8.92649e-07 4.11862e-07 0)
(1.08359e-07 2.23247e-06 0)
(9.93953e-07 5.14043e-06 0)
(1.88738e-06 6.14034e-05 0)
(-1.01801e-05 6.11188e-05 0)
(-2.25036e-06 5.07803e-06 0)
(1.12137e-06 8.2346e-07 0)
(2.15951e-07 4.49952e-06 0)
(-9.64214e-06 9.38862e-05 0)
(1.03178e-05 9.37187e-05 0)
(3.48638e-07 1.48186e-06 0)
(-5.96029e-07 1.67604e-07 0)
(5.95015e-07 1.67422e-07 0)
(-1.03575e-06 9.03296e-07 0)
(-5.99329e-06 1.67258e-05 0)
(2.85168e-07 4.54074e-06 0)
(4.3357e-06 3.49757e-05 0)
(-2.20527e-06 2.15092e-06 0)
(2.20235e-06 2.15067e-06 0)
(3.26076e-06 3.73213e-06 0)
(-3.26423e-06 3.73245e-06 0)
(8.72886e-10 2.87884e-08 0)
(-8.48272e-10 2.85874e-08 0)
(3.11831e-07 2.41663e-05 0)
(1.55271e-07 5.25365e-07 0)
(9.8593e-07 3.43234e-06 0)
(1.04944e-07 1.22694e-06 0)
(1.1537e-06 1.44576e-06 0)
(-1.15647e-06 1.4459e-06 0)
(-5.74478e-06 5.3436e-05 0)
(-2.7944e-07 7.48024e-08 0)
(2.79017e-07 7.46e-08 0)
(2.69881e-06 2.59789e-06 0)
(-2.70188e-06 2.5982e-06 0)
(6.11142e-06 1.4216e-05 0)
(-1.93999e-06 1.90359e-06 0)
(1.93714e-06 1.90337e-06 0)
(3.37257e-07 2.91942e-08 0)
(-2.945e-06 5.99767e-06 0)
(1.76651e-06 5.91102e-06 0)
(2.08566e-06 1.75314e-05 0)
(-3.8234e-06 9.73909e-06 0)
(-3.35811e-07 6.29962e-06 0)
(-2.68113e-06 3.30805e-06 0)
(2.67776e-06 3.30778e-06 0)
(-6.76519e-06 7.22483e-05 0)
(2.97227e-07 1.98896e-06 0)
(-1.77594e-06 1.21824e-06 0)
(1.77355e-06 1.21808e-06 0)
(2.24904e-06 1.10154e-05 0)
(3.80091e-06 5.36677e-06 0)
(6.7587e-07 9.35155e-07 0)
(-3.80487e-06 5.36697e-06 0)
(-5.14244e-07 6.24731e-08 0)
(5.12973e-07 6.20237e-08 0)
(-2.22812e-06 7.07236e-06 0)
(-6.96757e-07 1.92318e-07 0)
(3.11749e-06 1.06758e-05 0)
(2.02009e-08 -2.59097e-08 0)
(2.08554e-06 5.28512e-06 0)
(5.96984e-07 1.53926e-06 0)
(-8.53912e-06 2.41803e-05 0)
(4.74274e-07 2.50442e-06 0)
(-6.76286e-07 1.65504e-07 0)
(6.75006e-07 1.65313e-07 0)
(3.09569e-06 3.45977e-06 0)
(-3.09908e-06 3.46009e-06 0)
(-1.02904e-06 5.26906e-06 0)
(-4.45369e-07 2.01009e-05 0)
(2.09027e-06 2.03496e-06 0)
(-2.09315e-06 2.0352e-06 0)
(2.06346e-06 4.68782e-06 0)
(-2.9362e-06 1.24628e-05 0)
(-9.40663e-06 9.22288e-05 0)
(-5.32573e-07 2.77446e-06 0)
(-3.24425e-06 1.69564e-05 0)
(-5.82992e-07 1.86982e-07 0)
(5.82055e-07 1.86855e-07 0)
(5.49256e-07 4.17511e-06 0)
(-1.22136e-06 1.52758e-06 0)
(1.21857e-06 1.52743e-06 0)
(2.91502e-06 3.16903e-06 0)
(-2.91831e-06 3.16934e-06 0)
(-4.69629e-08 2.89823e-06 0)
(1.66732e-06 5.92e-06 0)
(1.026e-07 6.15809e-08 0)
(8.53345e-06 2.41811e-05 0)
(-1.34124e-06 7.57041e-07 0)
(1.33911e-06 7.56945e-07 0)
(-1.8728e-06 7.03764e-06 0)
(-9.82222e-08 1.14797e-06 0)
(1.45141e-06 9.46021e-06 0)
(3.40509e-06 9.97698e-06 0)
(1.8003e-06 1.28442e-05 0)
(8.11062e-07 7.89979e-07 0)
(3.52918e-07 1.38719e-06 0)
(7.41064e-07 3.3754e-07 0)
(-1.61551e-06 4.82267e-06 0)
(-2.91845e-06 3.05788e-06 0)
(2.91521e-06 3.05757e-06 0)
(-1.47729e-06 9.03402e-07 0)
(1.47506e-06 9.0329e-07 0)
(-8.53905e-06 3.83474e-05 0)
(8.39545e-06 3.83088e-05 0)
(4.16874e-07 2.7743e-06 0)
(-9.78736e-08 -9.79807e-08 0)
(-2.81878e-06 3.02041e-06 0)
(2.81554e-06 3.0201e-06 0)
(2.99844e-06 5.84506e-06 0)
(2.90769e-06 6.89345e-06 0)
(-5.883e-08 3.61043e-06 0)
(2.01729e-06 1.67577e-05 0)
(-3.47062e-06 0.000196322 0)
(-1.28931e-07 7.74362e-08 0)
(1.28746e-07 7.70691e-08 0)
(8.30947e-07 3.19334e-06 0)
(3.9531e-07 3.93697e-06 0)
(-1.95968e-06 1.46135e-06 0)
(1.95713e-06 1.46115e-06 0)
(8.42255e-08 1.64247e-06 0)
(-3.45771e-06 3.05993e-05 0)
(6.28216e-08 -1.02965e-07 0)
(-2.60341e-06 2.27668e-06 0)
(2.60048e-06 2.27637e-06 0)
(7.21007e-07 1.7722e-07 0)
(-7.22433e-07 1.77408e-07 0)
(9.83418e-07 1.15578e-06 0)
(5.67397e-07 1.59462e-07 0)
(-5.68354e-07 1.59646e-07 0)
(1.61474e-06 3.82778e-05 0)
(2.5323e-07 7.14081e-06 0)
(-8.15969e-07 6.07833e-05 0)
(-7.43708e-07 3.13251e-05 0)
(-2.74617e-06 3.24799e-06 0)
(2.74284e-06 3.2477e-06 0)
(1.15943e-06 2.07406e-05 0)
(1.44277e-06 2.47704e-06 0)
(-1.44599e-06 2.4772e-06 0)
(-3.43717e-06 3.84292e-06 0)
(3.43367e-06 3.84259e-06 0)
(8.56747e-07 1.29135e-06 0)
(-8.59383e-07 1.29178e-06 0)
(-9.84721e-07 4.23052e-07 0)
(9.83151e-07 4.22936e-07 0)
(1.82315e-06 1.28958e-06 0)
(-1.82559e-06 1.28975e-06 0)
(-3.45694e-07 2.51293e-06 0)
(4.32286e-06 1.2037e-05 0)
(-1.90151e-06 1.37992e-06 0)
(1.89901e-06 1.37973e-06 0)
(5.65115e-06 1.72909e-05 0)
(1.38137e-07 1.73623e-06 0)
(-9.86397e-07 4.01401e-07 0)
(9.84772e-07 4.01284e-07 0)
(-2.56112e-06 3.50253e-06 0)
(2.55766e-06 3.50228e-06 0)
(1.15825e-06 6.29055e-07 0)
(2.11595e-06 2.04717e-06 0)
(-2.11883e-06 2.04742e-06 0)
(2.93286e-06 2.7123e-06 0)
(-2.93597e-06 2.71264e-06 0)
(-1.16038e-06 6.29116e-07 0)
(-1.24967e-06 6.47707e-06 0)
(-1.62661e-06 5.11644e-06 0)
(-3.12729e-06 6.81639e-05 0)
(-2.17209e-06 3.07822e-06 0)
(2.16874e-06 3.078e-06 0)
(3.71382e-06 5.35051e-06 0)
(-1.3152e-07 1.48036e-06 0)
(-1.0347e-07 6.20524e-08 0)
(-3.71775e-06 5.3507e-06 0)
(-7.71659e-07 1.68308e-06 0)
(-1.03201e-06 8.78862e-07 0)
(1.66978e-06 5.49006e-06 0)
(-1.23082e-06 1.55392e-06 0)
(1.22802e-06 1.55377e-06 0)
(-1.39034e-08 1.47062e-06 0)
(-3.53604e-07 1.42086e-06 0)
(2.31415e-06 6.61274e-06 0)
(-8.32142e-06 2.92313e-05 0)
(8.3154e-06 2.92311e-05 0)
(-1.80269e-06 1.17265e-05 0)
(8.62966e-08 2.24561e-06 0)
(-2.36294e-08 3.78581e-08 0)
(2.36232e-08 3.75981e-08 0)
(8.06642e-07 7.3281e-07 0)
(9.52496e-07 9.67562e-07 0)
(1.84862e-06 8.83943e-06 0)
(-1.94783e-06 1.45989e-06 0)
(1.94528e-06 1.4597e-06 0)
(1.18599e-06 6.9964e-07 0)
(8.75879e-06 6.23794e-05 0)
(1.15986e-06 6.39934e-07 0)
(-2.77688e-06 2.15924e-05 0)
(-9.4833e-07 4.06517e-07 0)
(9.46825e-07 4.06404e-07 0)
(4.60915e-06 1.36e-05 0)
(-5.7962e-07 1.0699e-06 0)
(-1.18787e-06 6.99783e-07 0)
(1.55838e-05 0.000151207 0)
(-1.55519e-05 0.000151201 0)
(-1.162e-06 6.39995e-07 0)
(3.35269e-06 9.6489e-06 0)
(-9.99249e-07 4.10427e-07 0)
(9.97603e-07 4.1031e-07 0)
(2.95213e-06 3.6988e-06 0)
(-2.95562e-06 3.69908e-06 0)
(-2.79941e-06 7.31636e-06 0)
(5.54163e-07 1.75059e-06 0)
(-1.78776e-06 6.93939e-06 0)
(-1.53927e-06 9.83066e-07 0)
(1.53698e-06 9.82947e-07 0)
(2.14293e-06 2.47257e-06 0)
(-2.14601e-06 2.47281e-06 0)
(6.62981e-09 5.82746e-07 0)
(2.39535e-06 1.743e-05 0)
(-2.15525e-06 3.10135e-06 0)
(2.15189e-06 3.10114e-06 0)
(2.05527e-06 7.37032e-06 0)
(-2.6832e-07 9.19197e-08 0)
(2.67903e-07 9.1614e-08 0)
(1.2647e-06 4.44592e-06 0)
(7.14465e-07 1.66384e-07 0)
(-4.04735e-06 6.43117e-06 0)
(3.238e-06 1.00102e-05 0)
(2.79634e-06 7.1233e-06 0)
(5.87201e-06 1.8512e-05 0)
(-1.24162e-06 3.56756e-06 0)
(1.2928e-06 3.48557e-06 0)
(5.67554e-07 5.91336e-06 0)
(-2.70481e-06 2.68048e-06 0)
(2.70171e-06 2.68017e-06 0)
(3.76233e-07 3.88826e-05 0)
(-5.03352e-08 8.36014e-07 0)
(-5.61085e-07 2.74982e-06 0)
(1.84953e-06 6.17739e-06 0)
(1.12423e-06 1.43734e-05 0)
(2.03031e-07 3.27205e-07 0)
(1.58888e-07 1.75854e-06 0)
(-2.82642e-06 1.50209e-05 0)
(2.56862e-06 2.00255e-05 0)
(-7.49787e-08 6.0567e-07 0)
(-3.86791e-07 1.19132e-06 0)
(8.1335e-07 7.54015e-07 0)
(-7.69657e-07 1.71077e-06 0)
(6.87935e-06 1.85341e-05 0)
(-1.06144e-06 8.31173e-06 0)
(9.27494e-07 5.42963e-06 0)
(3.27945e-07 8.57883e-08 0)
(-3.28445e-07 8.59615e-08 0)
(-7.71982e-07 7.06445e-07 0)
(2.68467e-07 8.57555e-08 0)
(-2.68913e-07 8.61112e-08 0)
(9.46237e-07 3.46213e-06 0)
(4.93924e-07 2.53216e-06 0)
(-1.4376e-06 1.21993e-06 0)
(1.43502e-06 1.21981e-06 0)
(-7.27298e-07 2.33301e-07 0)
(-1.84397e-07 8.10566e-08 0)
(1.84083e-07 8.06768e-08 0)
(6.66088e-07 6.17204e-07 0)
(2.4306e-06 3.02841e-05 0)
(-7.1594e-07 1.66586e-07 0)
(9.10178e-07 3.22408e-07 0)
(-1.09022e-06 7.74546e-07 0)
(-7.2204e-07 5.71264e-07 0)
(5.24856e-06 9.02742e-06 0)
(-9.73057e-07 1.43643e-06 0)
(-2.24844e-06 1.25127e-05 0)
(-2.909e-06 8.16066e-06 0)
(-6.1019e-07 1.93369e-07 0)
(6.09197e-07 1.93228e-07 0)
(-4.60074e-07 3.49675e-06 0)
(3.28127e-07 1.27844e-06 0)
(-1.14637e-07 4.12309e-08 0)
(1.14457e-07 4.09718e-08 0)
(-1.07604e-06 6.35434e-07 0)
(7.5765e-06 0.000286352 0)
(-6.66513e-06 5.67981e-05 0)
(-1.22348e-06 5.06427e-06 0)
(1.17059e-06 2.68472e-06 0)
(-1.17393e-06 2.68485e-06 0)
(3.10227e-06 6.83856e-06 0)
(3.25994e-07 1.98726e-06 0)
(-5.38485e-06 5.40973e-05 0)
(8.60271e-08 3.10426e-08 0)
(-8.6177e-08 3.12948e-08 0)
(6.05009e-06 4.87658e-05 0)
(4.41596e-06 6.46368e-05 0)
(3.31715e-08 -6.51245e-08 0)
(-2.1609e-07 6.14007e-06 0)
(4.32352e-07 8.55724e-07 0)
(-3.40819e-06 8.17807e-06 0)
(-7.54858e-07 6.21383e-07 0)
(4.30395e-06 2.02923e-05 0)
(1.20127e-06 2.66933e-06 0)
(-1.20464e-06 2.66946e-06 0)
(4.38946e-06 9.62526e-06 0)
(2.41419e-06 5.14685e-06 0)
(-5.08409e-08 8.9934e-07 0)
(-1.62737e-07 8.83726e-07 0)
(6.84677e-06 4.92358e-05 0)
(1.30763e-06 7.1388e-07 0)
(-1.30971e-06 7.13978e-07 0)
(-9.42844e-08 1.47286e-06 0)
(9.39645e-07 2.76217e-06 0)
(4.54028e-06 1.11614e-05 0)
(3.36149e-07 8.78541e-08 0)
(-3.36663e-07 8.80224e-08 0)
(2.42609e-06 1.15115e-05 0)
(-4.07993e-07 4.2611e-07 0)
(-2.70637e-06 1.2565e-05 0)
(2.26431e-06 2.31949e-06 0)
(-2.2673e-06 2.31975e-06 0)
(4.98302e-07 2.71993e-06 0)
(1.10623e-06 1.14168e-06 0)
(-1.10854e-06 1.14134e-06 0)
(-1.17212e-06 5.62219e-07 0)
(1.17019e-06 5.62114e-07 0)
(-5.80727e-06 5.69287e-05 0)
(1.34982e-06 3.5373e-06 0)
(-2.6024e-08 4.04899e-08 0)
(2.60124e-08 4.02219e-08 0)
(8.25753e-07 1.44697e-06 0)
(-5.3465e-08 6.20699e-08 0)
(-9.53354e-06 0.000220472 0)
(-2.77369e-06 2.90693e-06 0)
(2.7705e-06 2.90662e-06 0)
(5.88891e-06 0.000139039 0)
(-1.83479e-06 1.26396e-06 0)
(1.83241e-06 1.26378e-06 0)
(-1.93203e-06 0.00011533 0)
(-4.26775e-06 2.02907e-05 0)
(5.02627e-07 2.60717e-06 0)
(1.36331e-06 8.12801e-07 0)
(7.58239e-07 1.4137e-06 0)
(4.6448e-07 5.96164e-06 0)
(-1.36553e-06 8.1289e-07 0)
(-4.54032e-06 1.13498e-05 0)
(-2.3655e-07 2.3543e-06 0)
(9.49364e-07 2.8457e-06 0)
(1.27875e-06 2.66226e-06 0)
(-1.28211e-06 2.6624e-06 0)
(-8.62712e-07 4.06992e-07 0)
(8.92335e-07 4.5204e-07 0)
(-2.53623e-06 4.94887e-06 0)
(-8.02303e-07 1.301e-06 0)