/*--------------------------------*- C++ -*----------------------------------*\
| =========                 |                                                 |
| \\      /  F ield         | OpenFOAM: The Open Source CFD Toolbox           |
|  \\    /   O peration     | Version:  v3.0+                                 |
|   \\  /    A nd           | Web:      www.OpenFOAM.com                      |
|    \\/     M anipulation  |                                                 |
\*---------------------------------------------------------------------------*/
FoamFile
{
    version     2.0;
    format      ascii;
    class       volScalarField;
    location    "3000";
    object      sigmayz;
}
// * * * * * * * * * * * * * * * * * * * * * * * * * * * * * * * * * * * * * //

dimensions      [1 -1 -2 0 0 0 0];

internalField   nonuniform List<scalar> 
27023
(
-1.99573e-14
-1.48707e-13
-1.65355e-13
1.28205e-13
0
1.30821e-13
-3.3703e-12
-8.12909e-13
5.5154e-14
-1.11836e-13
9.54524e-13
-4.32076e-13
-1.06931e-13
-2.84251e-14
2.64789e-12
-6.01933e-13
-3.06127e-13
0
-1.49414e-12
0
8.04341e-13
-8.39223e-13
-2.49474e-12
-1.15882e-12
-1.94511e-13
-4.29919e-13
2.21923e-13
1.68355e-11
5.74335e-13
5.02062e-12
-4.15191e-12
-1.64428e-12
3.25978e-12
1.78305e-12
3.24329e-12
1.61423e-12
-1.15454e-12
2.30888e-12
-1.39162e-13
-1.02045e-13
-6.16727e-14
1.3861e-14
-4.28173e-12
-1.17028e-13
-1.16772e-13
-1.14375e-12
-1.74447e-12
1.43931e-12
1.43904e-12
9.53601e-13
-8.59686e-13
-1.45441e-13
8.49865e-13
1.92146e-14
6.85379e-14
2.80589e-12
6.05398e-12
2.59534e-12
1.57175e-12
2.94227e-13
-1.83586e-13
5.54841e-12
-1.37553e-12
1.76389e-11
-1.36039e-11
8.19968e-13
-4.38167e-12
1.53839e-13
-7.40317e-13
-1.92026e-12
0
-3.99601e-12
2.1852e-12
2.91526e-12
5.74506e-12
2.81064e-12
5.36755e-14
4.69794e-14
5.48014e-12
3.63635e-12
1.47086e-12
-2.25829e-12
-1.77258e-12
9.14029e-13
3.06345e-12
-1.33822e-12
1.136e-12
-4.49757e-13
-3.31783e-13
2.1363e-12
3.55367e-11
1.09203e-13
-1.29667e-13
5.55007e-13
-9.03212e-14
-2.42106e-12
4.8545e-13
5.75996e-13
-3.02001e-12
5.49277e-12
-5.83859e-12
1.46959e-11
2.71835e-11
1.19959e-12
9.02844e-13
-1.98676e-13
1.36086e-14
-9.65421e-13
-1.31192e-12
-6.8456e-12
-3.3913e-12
1.28765e-12
3.03381e-13
4.09321e-12
1.73752e-12
2.25144e-12
3.5509e-12
1.56233e-13
5.80707e-14
-5.84325e-13
-4.45881e-13
-1.1533e-12
-6.01953e-13
-1.85193e-12
2.51388e-12
4.97143e-13
1.97406e-13
2.20241e-13
3.99712e-13
2.262e-12
7.11099e-12
5.04305e-14
2.74769e-14
-1.16472e-13
-3.39707e-12
-8.55734e-12
1.94933e-12
1.35242e-12
-4.49298e-12
-2.86664e-12
-1.11686e-12
2.79855e-12
-1.81513e-12
1.94797e-12
-4.51239e-13
3.43627e-12
-1.03602e-12
2.87359e-12
2.49744e-12
3.37575e-13
-1.21037e-13
-9.61829e-13
-3.22406e-13
-4.1902e-12
-4.87691e-13
7.47921e-13
6.63552e-12
-4.14501e-12
-7.18064e-12
-1.96647e-12
3.19095e-12
-1.14263e-12
2.74791e-12
-8.8619e-12
-3.78191e-13
3.47537e-13
-6.40066e-13
-1.79072e-12
-1.32575e-12
2.4509e-12
3.74905e-11
4.77037e-12
3.58649e-13
3.22924e-11
0
2.65297e-12
-7.56687e-12
-1.35849e-12
5.41303e-12
1.21522e-13
2.57932e-12
-2.76422e-12
2.16322e-12
-5.27939e-12
1.80311e-12
-3.29435e-14
1.78426e-12
2.38409e-12
1.05259e-11
-5.57788e-12
-2.73793e-12
-7.88331e-13
2.00927e-12
-9.17851e-12
-9.73095e-13
2.29419e-12
6.55015e-14
7.32696e-13
-5.84797e-13
2.26534e-13
3.10757e-12
1.36347e-13
-5.84053e-13
5.493e-12
0
1.87744e-13
9.7544e-13
-2.7084e-12
-4.96792e-12
4.11056e-12
0
1.18816e-15
4.29211e-14
-5.63605e-13
1.45684e-14
6.71463e-14
-1.66524e-12
-3.13543e-13
2.47395e-12
1.46484e-12
-4.36691e-12
-4.32294e-12
9.54927e-13
-6.52785e-14
-1.10876e-11
-1.41493e-12
3.13103e-12
-2.10612e-12
-2.46466e-12
-1.10307e-13
1.05396e-13
-1.24604e-11
-4.28985e-12
-7.62831e-13
-2.03434e-12
3.21849e-12
2.76036e-12
-9.35055e-12
-3.67916e-12
3.94918e-12
3.94996e-12
-1.06905e-12
1.69569e-12
7.85548e-12
1.35786e-12
-3.76493e-13
-9.40905e-12
-5.14926e-13
7.33147e-12
-2.58903e-12
-1.87208e-12
-3.93424e-12
2.93614e-13
2.39141e-13
8.76652e-13
-2.31054e-12
0
-3.50137e-12
-2.72591e-13
-1.75164e-12
-2.92779e-13
7.93345e-13
5.02044e-12
-3.1547e-13
-3.80236e-12
5.24438e-12
-1.21061e-12
2.99129e-12
-5.81263e-13
1.356e-13
-1.56172e-13
-9.04753e-13
2.59291e-12
2.76398e-12
1.24307e-12
-8.04416e-12
-1.16218e-13
8.98229e-14
-5.5661e-12
-7.03926e-12
-3.01255e-12
3.8085e-12
-2.09395e-11
-5.76413e-13
-1.82909e-14
1.80307e-14
-3.64379e-12
8.33462e-12
1.04983e-13
-1.95571e-13
-7.01908e-12
-3.97305e-13
-3.27464e-12
-1.16006e-12
0
2.60343e-12
5.30216e-12
9.64335e-13
-2.69528e-13
0
3.66527e-14
-1.85103e-15
2.42116e-13
0
1.45991e-14
-2.12005e-14
1.31512e-13
1.79166e-12
-5.43128e-13
-8.46129e-12
6.631e-12
-5.24487e-14
-5.22505e-14
1.32381e-13
1.59937e-13
-1.8082e-12
-5.27913e-12
7.05558e-14
-3.53842e-12
-3.89361e-12
-2.10012e-14
-5.79814e-14
-1.63305e-12
5.96272e-13
-3.44565e-13
1.13633e-12
-5.76313e-13
-5.90512e-12
3.01997e-12
6.56001e-13
3.938e-13
1.56755e-12
-1.37172e-13
1.49187e-13
-2.49323e-12
-1.38546e-13
4.2718e-13
2.20268e-12
6.60929e-14
5.69519e-13
-6.32681e-13
1.43254e-12
1.59263e-11
0
1.37787e-14
-1.39363e-12
2.05263e-13
6.51491e-13
1.21394e-11
5.33214e-12
-5.1567e-12
6.00519e-12
-1.49365e-12
-8.4699e-13
-1.00566e-13
-3.65998e-14
-3.49556e-13
1.00231e-12
7.48927e-12
-3.19162e-12
7.06248e-13
2.32357e-12
5.80852e-12
-8.87664e-14
-1.04783e-12
1.66993e-11
2.08802e-12
-4.17183e-13
-2.67633e-13
-2.67536e-13
-2.24804e-12
4.87488e-13
-2.71407e-13
0
-8.831e-14
-2.94504e-12
-6.80115e-12
-1.20406e-12
-4.27092e-12
-2.21816e-12
-4.1995e-12
1.04548e-12
-1.62469e-12
4.78759e-13
1.29709e-12
9.74807e-13
1.73524e-11
-2.62757e-12
-6.54227e-13
-6.96184e-14
-3.21456e-13
-1.77234e-11
-1.04655e-12
-1.6089e-11
4.28922e-13
-9.70356e-12
3.05911e-12
-2.21526e-13
-1.00496e-11
0
-1.35765e-12
-1.17516e-12
5.04178e-13
3.58524e-12
-1.97402e-13
7.99591e-14
3.04897e-13
-9.66265e-14
-4.68381e-13
2.86498e-12
-8.53984e-13
-6.92355e-13
8.95634e-15
-2.24501e-14
-1.09901e-11
-4.9598e-12
3.75372e-13
1.25989e-12
-5.2186e-12
-3.55316e-12
0
-3.51678e-12
-1.16836e-13
2.5346e-12
1.28768e-11
-1.88715e-12
0
2.57388e-12
-3.64259e-12
-8.67976e-14
-4.885e-13
0
-2.92176e-12
6.95443e-12
-1.45826e-12
-1.75738e-12
7.68331e-12
-1.71676e-14
-1.48982e-13
-1.60449e-13
-9.00974e-12
-3.58804e-13
6.31065e-13
-4.11408e-12
-1.08974e-14
-1.52885e-15
-1.59044e-12
3.50243e-12
-6.10848e-13
-2.31198e-13
-1.91283e-13
-3.08232e-13
-3.08071e-13
-9.08475e-13
-7.77174e-13
-2.69814e-12
2.3444e-12
-8.36525e-13
7.98709e-13
2.30588e-13
-7.58338e-14
1.90484e-13
-5.62182e-12
2.45683e-12
9.89032e-12
-5.60282e-13
-3.30111e-12
-1.13512e-12
3.60804e-12
7.12693e-12
1.56026e-11
0
-1.73884e-12
-1.30575e-12
-6.09739e-12
0
-1.96071e-13
1.53443e-11
-9.53803e-12
3.73365e-14
1.2418e-13
4.51728e-12
3.19932e-12
2.58927e-14
-3.32575e-12
-2.80351e-12
3.47585e-13
2.18436e-12
1.01825e-11
-4.48342e-12
-1.63153e-12
4.80263e-13
-3.71675e-13
2.8794e-12
3.71827e-12
9.81082e-13
8.87294e-13
-6.98722e-14
-2.14034e-13
3.81007e-12
3.69546e-13
1.34414e-13
2.60645e-14
7.01962e-12
-4.6268e-13
-2.65088e-13
2.79666e-12
1.23992e-12
-1.66197e-12
1.6729e-12
1.20372e-12
-1.19912e-12
-1.44185e-12
-3.29468e-13
-1.42193e-12
-1.69244e-12
1.77128e-12
3.81459e-12
1.21744e-12
-1.83621e-12
2.0004e-12
9.99851e-13
-1.95031e-12
-2.68233e-12
-1.66182e-12
-2.15732e-12
5.25036e-14
1.04231e-12
1.39714e-12
6.68676e-14
-1.63573e-11
-1.56375e-12
-2.53244e-12
-2.27011e-13
-8.93554e-13
-8.05795e-13
-2.37193e-12
2.12313e-12
4.55752e-12
-7.32961e-13
-8.21378e-13
7.50949e-12
6.00977e-13
-4.25576e-14
-2.44489e-11
1.25426e-13
-2.6764e-13
4.93828e-12
-1.79401e-12
4.0639e-12
8.75323e-14
-3.20823e-12
1.34539e-12
1.52132e-12
-5.79217e-13
8.89022e-12
1.25074e-11
2.80954e-12
3.95037e-14
1.88754e-12
4.87257e-13
-5.64418e-13
-7.59249e-14
1.47899e-12
-4.86757e-12
-1.97866e-13
0
0
-3.57346e-13
4.32675e-14
-1.02776e-12
-9.39102e-12
1.22469e-13
0
1.17676e-12
-1.94804e-12
-1.2222e-13
4.2241e-13
6.50792e-12
-3.6451e-12
1.09478e-12
6.0015e-12
1.1295e-12
0
6.3403e-12
5.82741e-13
1.79467e-12
-9.52544e-12
1.67066e-12
-4.56577e-14
0
8.27697e-12
-2.08735e-12
-2.81259e-12
-4.9695e-12
6.67608e-13
-2.85197e-13
-1.88782e-11
-2.86862e-12
-1.6272e-12
1.98389e-12
2.27899e-12
4.09049e-12
-2.65345e-12
1.33692e-12
2.96662e-13
3.3648e-12
7.20127e-13
1.47069e-12
-1.63532e-14
-1.60222e-14
1.58758e-12
1.27255e-12
4.7676e-12
-1.39855e-12
-2.45403e-11
-2.52705e-11
1.22141e-12
1.81198e-12
-3.97581e-12
-7.55998e-16
-1.09496e-14
1.74929e-15
1.2529e-15
2.54994e-12
-2.55464e-14
5.22533e-14
0
1.68694e-13
-1.3021e-13
-1.29983e-13
2.55892e-14
-2.54521e-13
1.2072e-12
-7.75865e-13
-6.59628e-13
-4.12575e-13
-2.78514e-11
1.29991e-12
1.22584e-13
-6.06152e-12
-9.00928e-13
-2.71156e-12
1.07045e-12
1.82261e-12
3.76579e-12
-6.92402e-13
2.50371e-13
-8.30852e-13
0
-3.97156e-12
-2.13974e-12
2.51366e-12
0
3.98697e-13
-1.06008e-12
-2.29509e-12
2.20463e-13
6.13376e-15
1.6174e-14
3.14775e-12
-4.58439e-12
2.97119e-12
-2.53812e-12
4.10748e-12
3.83625e-12
-1.0363e-12
-1.4557e-12
0
-1.06425e-11
1.55101e-14
-1.68452e-12
2.5418e-12
-6.562e-15
1.31595e-12
-6.95906e-12
1.14615e-12
6.38118e-12
4.45288e-12
0
-1.38924e-11
-2.31442e-14
-1.23768e-14
-2.94851e-13
1.8199e-12
-3.22434e-13
-1.21375e-12
-6.03089e-12
-8.00584e-12
-9.2411e-12
-3.84477e-12
7.95091e-14
-2.41987e-12
1.32588e-11
6.15402e-12
-1.82874e-13
2.17452e-13
7.29171e-15
1.95621e-12
-1.70165e-13
4.91389e-13
-7.35244e-12
-3.75972e-12
1.87976e-12
8.81141e-14
5.8884e-13
5.15035e-16
9.41826e-15
-4.48267e-12
-9.01326e-13
-3.71346e-12
-9.52546e-13
-3.74506e-13
6.05655e-13
2.46778e-11
-5.68096e-14
-9.15583e-14
0
-3.84729e-12
-6.10044e-12
4.57243e-13
3.43621e-13
7.52505e-14
4.92804e-12
3.72901e-12
-3.84112e-12
-1.16127e-11
-2.46639e-12
0
-1.67711e-12
-6.65783e-12
-7.06206e-13
3.35541e-12
2.0647e-12
1.37208e-12
1.55535e-12
5.28408e-15
1.55626e-12
1.18472e-13
-8.3874e-15
4.35428e-12
-7.63785e-13
-3.3514e-12
-1.81069e-14
-1.05101e-12
-1.20043e-13
8.40533e-12
1.52585e-12
-3.32016e-13
-5.12678e-13
-6.92019e-13
1.91503e-12
4.0231e-12
7.90659e-12
3.38158e-12
0
-5.06153e-12
1.78605e-12
-1.5173e-11
1.89446e-12
-6.59016e-12
1.91339e-13
-2.71784e-13
-4.22076e-12
3.04711e-12
-1.07455e-12
2.35681e-13
2.98472e-12
-1.34211e-12
-5.38928e-12
-2.58636e-15
-5.47579e-12
-1.06454e-12
2.59888e-13
5.07796e-13
2.09759e-12
-5.76791e-12
4.0955e-12
3.31706e-12
0
2.16683e-12
-8.0987e-13
1.64124e-13
0
3.5927e-12
-1.73879e-13
-3.25186e-12
-2.64387e-12
7.32912e-12
1.68397e-12
1.35159e-13
0
0
6.25188e-12
3.5214e-12
2.41364e-12
-1.61223e-12
-2.40449e-11
-9.05611e-15
0
2.2349e-12
-3.57826e-12
-1.03274e-12
-1.84342e-12
3.59925e-12
-1.45663e-11
1.98538e-14
-2.67574e-12
2.49771e-12
2.67275e-13
-3.25118e-13
-1.41695e-12
2.74089e-13
4.24153e-14
-7.81828e-12
4.40416e-12
2.1083e-13
2.35856e-12
5.74653e-13
1.47257e-12
-1.29185e-12
-3.95167e-12
-4.08909e-12
0
-5.08536e-12
2.31233e-12
7.60534e-13
-2.25729e-13
-4.26405e-13
-4.72147e-12
4.13016e-13
4.94505e-12
4.33173e-12
7.71916e-13
2.71212e-12
1.29168e-11
-1.27312e-12
-8.52604e-14
5.12662e-13
-1.56857e-12
-7.07418e-13
2.35479e-12
5.2529e-12
0
-3.63425e-13
3.18647e-13
2.13332e-12
-7.13941e-13
3.17201e-12
2.36958e-12
-2.24125e-12
-6.03442e-13
-1.51307e-13
-7.97684e-13
3.61089e-14
5.05622e-12
6.84762e-13
-5.31277e-13
-6.78293e-12
3.5188e-12
-3.289e-12
-2.753e-12
0
4.56262e-13
2.17604e-12
1.35219e-11
-6.93724e-12
-2.6689e-12
-7.7366e-15
-2.33582e-14
-7.47695e-13
2.37479e-12
-3.00954e-12
8.79866e-14
1.74735e-12
2.90202e-13
-3.68263e-11
1.37127e-12
-5.18774e-13
6.89452e-13
1.44088e-13
3.56773e-12
1.55573e-12
-9.46668e-13
1.43961e-12
6.41313e-12
-2.08007e-14
-9.3141e-12
-2.88208e-14
-8.49946e-13
0
-5.29901e-12
5.13151e-12
-6.88409e-13
1.28135e-12
-7.81694e-13
7.34082e-13
2.47537e-12
5.5905e-13
5.09356e-13
2.84799e-12
-5.02463e-12
1.29789e-12
-6.44528e-13
-1.75436e-14
-1.64285e-14
8.63502e-13
-1.64255e-13
-2.39646e-12
7.16494e-13
3.19355e-12
1.94506e-12
9.34432e-12
1.33214e-12
-8.85404e-12
-2.27493e-12
2.28287e-13
2.32298e-11
7.84154e-13
2.78637e-12
0
-2.87869e-12
8.95419e-14
-4.65466e-13
2.18087e-12
-6.03355e-12
-3.15174e-13
-5.68455e-14
-4.10388e-13
-2.60505e-12
-8.21937e-12
-7.43128e-12
-1.29081e-12
0
-6.44615e-14
-6.58454e-13
-3.20654e-14
-6.72579e-15
-1.18908e-12
4.44595e-12
-2.64376e-12
-8.94172e-13
0
-3.06768e-14
5.4958e-15
1.90202e-12
7.0821e-12
-1.12475e-13
0
-2.17698e-12
-4.34404e-13
-7.57201e-12
-2.7686e-12
-6.33655e-13
-1.08185e-12
-7.04778e-13
-5.46963e-13
9.55515e-12
-1.59954e-13
6.96827e-14
6.98381e-14
-6.6958e-13
6.08357e-12
-5.48148e-12
-2.89746e-12
3.55026e-12
3.4636e-12
-2.45006e-12
-2.31746e-12
-9.58762e-12
6.76823e-14
1.60067e-13
0
-8.79768e-12
-1.30055e-13
2.58348e-12
9.56932e-13
-1.59772e-12
-8.53863e-13
-1.04102e-11
-3.49626e-12
-8.46265e-13
5.77286e-15
6.83161e-12
-1.08849e-13
-1.06866e-12
-1.27769e-11
-6.94582e-13
5.39316e-13
-8.92518e-13
-2.31319e-12
2.00523e-12
-3.33345e-13
9.18603e-14
7.28557e-12
-1.2006e-13
5.2369e-12
0
-2.48424e-12
-1.72111e-12
4.404e-13
2.56602e-12
-7.62521e-13
1.38119e-13
-1.35658e-11
-1.93483e-12
1.21632e-14
6.9061e-15
6.95454e-13
-1.0258e-14
-7.29739e-12
2.55659e-13
6.87006e-13
-1.19906e-12
1.96387e-13
1.13123e-12
-8.25995e-12
1.53579e-12
4.0652e-12
0
8.6423e-15
9.45755e-15
-8.16747e-14
3.62496e-12
4.65315e-12
1.23704e-13
-1.81118e-12
-3.76083e-12
-2.17405e-13
-2.97119e-13
-4.68794e-12
2.93403e-13
1.89724e-12
1.61925e-14
2.1682e-12
-4.76599e-12
-1.84875e-12
1.73099e-12
-3.63634e-12
-1.60967e-13
-2.28784e-12
1.07163e-12
1.29487e-11
5.47431e-12
3.19928e-12
-8.41522e-12
1.39944e-12
3.7542e-12
-4.10947e-12
1.84984e-13
-7.95251e-13
7.74355e-13
2.61077e-12
-4.44455e-13
1.16791e-12
2.70313e-12
1.71049e-12
-2.66147e-11
-9.11996e-12
7.30234e-12
3.49064e-15
9.2646e-15
4.70767e-12
3.04688e-12
-2.48884e-12
2.63793e-14
-6.78021e-12
4.08918e-13
3.03031e-12
-3.82225e-13
-1.32952e-12
2.83588e-14
-4.4741e-12
8.01303e-13
8.74643e-13
-4.65926e-14
-3.8826e-12
2.77384e-12
2.41839e-12
-3.31741e-12
-5.2327e-12
4.62222e-13
-3.11882e-12
-2.3588e-12
-1.37072e-13
1.17061e-12
3.52594e-12
-6.31254e-12
2.30165e-12
9.54641e-13
-3.68179e-12
5.87581e-13
-9.56502e-12
-1.46635e-12
9.48666e-13
-3.8917e-12
8.76356e-13
-3.57969e-13
-1.4474e-12
-7.94329e-12
1.48961e-12
-1.49144e-12
2.61714e-12
-7.47924e-12
2.30033e-13
2.95222e-16
-1.53758e-13
-1.27078e-13
-4.08585e-13
-4.57624e-12
4.14241e-12
-1.90954e-12
2.68112e-13
-1.17775e-12
-6.6871e-14
-2.39734e-14
2.80673e-14
-8.95295e-13
-2.89687e-12
-6.53913e-12
-1.18725e-12
-1.63311e-12
-8.39523e-15
-5.26586e-15
-4.65419e-13
-1.43212e-12
-1.59465e-11
1.59773e-11
1.48816e-12
3.96123e-12
-1.32905e-13
-3.50506e-12
-2.42302e-11
2.19287e-12
7.94932e-12
-1.53526e-12
2.64203e-12
2.04326e-12
-4.06213e-12
7.58964e-13
-2.80331e-12
8.77729e-13
0
1.42835e-12
7.25191e-14
-2.32203e-12
3.50429e-12
-4.30176e-12
2.15766e-12
-4.17002e-13
6.05933e-13
-8.19221e-14
-7.99703e-14
5.52938e-12
-9.89376e-12
-4.37431e-14
4.38299e-14
8.49183e-12
2.04499e-12
4.85637e-14
1.58486e-12
-3.49845e-13
5.88052e-13
-2.60897e-13
4.00141e-12
1.98667e-11
1.09677e-12
7.50799e-13
1.52802e-12
2.80377e-12
2.24932e-12
3.23838e-12
-5.49682e-13
2.20247e-11
-1.46484e-11
-7.84184e-14
2.22494e-12
-6.0754e-12
2.18223e-11
-1.24168e-12
-2.25748e-12
1.23416e-12
-4.71339e-14
-4.69775e-14
1.25681e-11
3.0584e-15
-9.22681e-14
-5.86587e-13
-2.53004e-13
-3.35104e-12
1.22857e-12
2.73931e-12
-8.5522e-13
-1.31789e-12
-4.04212e-13
2.99528e-13
-4.84365e-12
-3.12285e-12
-5.13201e-13
9.63914e-12
-6.92537e-12
2.98362e-14
1.31942e-12
1.7501e-11
1.16499e-11
4.62306e-12
2.42957e-12
-1.74686e-13
1.39897e-13
-2.84366e-12
2.85278e-12
-4.05113e-12
7.99316e-12
7.23805e-12
-3.30252e-12
-2.81312e-12
-2.58935e-13
-5.35347e-13
-6.38894e-14
1.53871e-14
-3.02761e-12
-1.82985e-12
-4.41966e-12
-1.6841e-12
4.40961e-13
3.73919e-14
4.51279e-13
-1.28098e-12
7.05725e-13
2.12996e-12
2.1093e-11
-1.49859e-12
1.61214e-11
2.86592e-13
-3.93277e-12
-7.23383e-14
-2.14589e-12
-2.91151e-12
4.51034e-14
2.51888e-12
-6.54381e-13
1.55337e-13
-2.3774e-12
3.57686e-13
-8.05114e-13
-9.42849e-12
-1.18347e-12
7.41421e-13
2.5683e-13
-2.16003e-12
3.19405e-12
-4.2996e-12
-9.10957e-13
-4.43166e-12
5.88381e-12
-6.29464e-13
-2.97581e-12
-4.20505e-12
1.44418e-12
-1.05313e-11
0
1.39486e-12
3.52397e-12
-2.18448e-12
7.25562e-13
6.25273e-12
4.91897e-12
-4.34325e-12
4.76087e-12
7.27647e-13
-3.62648e-12
-6.21565e-12
-1.75538e-12
0
6.95144e-12
0
-1.40123e-12
-4.13129e-14
-1.17474e-13
-4.51111e-12
-5.15387e-14
-2.06126e-12
-1.406e-12
1.27257e-12
0
0
-2.72204e-13
-2.90783e-13
-5.1507e-12
6.7901e-13
1.177e-11
-1.83023e-13
2.24115e-12
1.97451e-12
2.98267e-13
2.66081e-13
-5.59567e-14
8.15147e-14
-2.29395e-12
8.66182e-13
0
-1.43266e-12
2.63556e-12
-9.74627e-13
0
2.42921e-14
1.56006e-14
3.20677e-13
-1.23212e-12
1.46355e-13
-1.51962e-13
-5.47696e-14
1.13995e-12
-2.97796e-12
1.12874e-12
-2.05904e-12
-7.80711e-13
-9.81145e-13
3.00456e-12
3.25992e-14
2.82318e-14
0
-2.4745e-12
9.82421e-13
2.58449e-12
0
2.21528e-12
1.34442e-12
7.18865e-13
1.19844e-12
7.73539e-12
1.6392e-11
-2.64769e-12
5.6695e-12
-4.70793e-13
-1.7966e-13
2.45978e-12
1.14702e-12
-1.14158e-12
0
-4.918e-12
-2.48957e-12
-5.63637e-12
1.88803e-12
-1.49326e-12
9.91159e-13
1.41408e-12
-2.00484e-12
4.23879e-12
-4.35985e-14
7.52713e-13
1.60371e-12
-3.79019e-12
3.50267e-12
-4.70368e-12
-1.52029e-12
1.48317e-12
0
4.165e-12
-1.72584e-12
-1.90184e-13
-2.50577e-12
4.07191e-12
-1.82769e-13
2.0425e-12
-1.76479e-13
3.72948e-12
1.23845e-12
-3.15742e-13
2.77496e-12
4.66139e-16
-5.49043e-15
-2.00909e-12
-1.19051e-13
-2.41924e-11
1.00746e-12
-1.27928e-12
-2.87904e-13
-4.23066e-12
-3.9526e-13
-1.52067e-11
-3.97804e-12
-8.065e-13
-6.99796e-13
-1.2594e-12
1.37802e-12
-2.69251e-13
-3.14891e-12
-5.74247e-13
-2.248e-12
-2.31839e-12
1.75399e-12
4.5817e-13
-2.44018e-14
8.25115e-15
-2.77731e-13
-3.67513e-12
7.42299e-12
-4.61344e-12
-2.52847e-12
9.73541e-13
-2.98445e-14
1.55203e-13
9.69764e-12
-7.47247e-12
7.65734e-13
5.43446e-13
5.97484e-13
4.46406e-13
1.01136e-11
-9.55498e-12
-2.6911e-12
1.35668e-12
1.22433e-12
-4.44498e-13
6.70958e-13
3.31093e-12
7.85384e-13
-1.11074e-12
7.69136e-14
-2.99822e-12
2.80682e-12
2.6885e-12
1.2433e-12
-2.98628e-13
1.93866e-13
-2.72822e-12
2.26362e-12
-1.32392e-12
0
6.08433e-12
-4.84773e-13
-4.84854e-13
-2.60333e-12
-4.10558e-13
3.50246e-13
-1.32546e-13
2.20175e-13
3.90582e-12
-2.42529e-13
7.17648e-14
-1.37987e-12
7.94226e-13
-8.94377e-12
-1.97706e-12
-6.43846e-12
6.08006e-14
4.71663e-14
1.76969e-12
-6.4336e-12
0
2.14552e-12
2.89401e-12
4.81085e-14
1.11817e-12
2.1583e-12
3.26753e-12
-1.23062e-12
-1.6168e-12
-3.0956e-14
0
7.17119e-14
1.22692e-12
1.87194e-12
-2.60588e-11
3.26294e-12
4.10392e-12
-1.50716e-13
-1.43472e-13
8.19195e-14
1.13526e-12
-1.56253e-12
-3.39689e-13
1.97378e-12
-1.80193e-12
3.11855e-13
-2.18944e-13
-2.45237e-13
-2.49869e-13
-1.00274e-12
-3.88446e-15
5.51499e-15
6.33924e-12
-3.21558e-13
2.10928e-12
0
1.80276e-14
2.08338e-13
-1.6865e-12
-7.0723e-13
3.02859e-12
5.59882e-13
3.02659e-12
-1.24262e-13
-5.30758e-13
5.30694e-13
0
3.55932e-13
3.27073e-13
-1.79407e-12
-3.62416e-12
3.81838e-12
9.433e-14
1.05934e-12
6.25046e-12
9.87011e-12
-1.86479e-12
-3.34599e-12
-2.11597e-12
2.11569e-12
-1.36146e-11
-1.27784e-12
7.46559e-13
8.75385e-13
-7.41085e-12
-1.71102e-11
5.94163e-12
-5.16797e-12
4.87314e-12
1.75002e-12
4.34701e-13
1.1495e-14
-2.61291e-13
0
-9.15797e-12
-5.6724e-13
1.89114e-12
-3.75553e-14
-1.88883e-12
1.18196e-12
-3.35196e-11
-2.77073e-12
9.56375e-13
-6.0707e-13
-3.43502e-12
-1.93885e-12
1.91298e-12
2.22428e-13
-2.51925e-13
1.63399e-12
-6.08897e-13
6.35917e-14
1.87937e-13
1.61349e-12
8.4288e-13
-2.30284e-12
-8.5903e-13
-1.16712e-12
-4.4083e-13
-3.67115e-13
-1.08934e-12
-3.18073e-12
-5.19856e-12
3.57867e-12
-7.1669e-14
-7.0075e-14
-4.18346e-13
1.04963e-12
-1.06802e-11
1.45023e-11
0
6.23582e-13
-6.23392e-13
3.37695e-12
1.03415e-12
-1.24749e-11
-3.0168e-13
-2.47402e-12
-1.27908e-11
8.97672e-12
5.67015e-15
2.06956e-12
-6.89409e-12
-4.97138e-12
6.18244e-12
-8.29968e-15
8.57505e-14
1.56768e-12
2.27567e-12
8.68758e-13
0
-1.50955e-12
-7.4103e-13
1.84489e-12
5.66006e-14
1.6642e-13
-2.54079e-12
-9.64729e-14
-1.71445e-13
-5.97335e-13
-2.56227e-12
1.39231e-12
7.76225e-12
3.0265e-13
-1.23168e-12
2.1341e-12
5.15237e-12
-5.33863e-12
-1.02214e-12
-1.33555e-12
-1.33555e-12
-2.72145e-14
3.89383e-14
2.55036e-12
-3.56905e-13
9.22944e-13
-3.67036e-13
1.75708e-13
2.36811e-13
6.79737e-13
6.9464e-14
-4.95224e-12
-2.79263e-11
-1.62667e-11
1.95631e-12
8.50808e-12
-1.29719e-12
-8.42642e-12
-6.52593e-12
-2.01681e-12
-5.43549e-12
4.78364e-13
4.78493e-13
2.00277e-11
0
-2.50976e-12
-1.47917e-12
-2.49596e-12
-2.64586e-12
6.33752e-14
-7.59776e-13
-2.70104e-13
-1.03635e-12
-1.34602e-12
-1.64168e-12
-4.0421e-12
-4.04927e-13
4.49412e-13
-1.13135e-12
-8.09799e-13
5.42826e-13
2.36858e-13
1.70458e-13
7.41404e-14
-2.16888e-11
2.32477e-13
-7.39044e-14
1.25782e-12
1.38581e-13
-1.87971e-13
-4.71829e-13
-9.64612e-13
-2.19781e-12
0
5.07531e-12
-7.31275e-12
-1.88995e-13
-4.5055e-13
3.54402e-12
-4.21561e-12
-2.41885e-12
9.37326e-12
-4.46448e-15
-6.2743e-13
-2.31551e-12
1.66832e-12
1.61071e-12
5.58081e-13
8.34583e-15
-1.43772e-12
-1.83223e-14
1.18368e-12
2.73217e-12
-1.18324e-12
7.6346e-13
-9.61516e-13
0
4.32068e-12
-2.90952e-12
-9.55235e-14
-4.13334e-13
2.88418e-12
-7.21187e-12
-2.33792e-13
1.16523e-12
-5.45658e-14
-1.10754e-14
-2.94929e-14
1.03828e-12
-1.99414e-12
5.35072e-14
-1.47187e-12
-3.11413e-12
-2.31108e-12
9.71827e-12
7.80748e-13
2.34709e-11
-2.55215e-12
-2.82938e-13
9.30817e-12
1.24376e-12
3.83071e-13
1.71662e-12
-5.04225e-13
3.85875e-14
-1.51939e-13
-3.20365e-12
6.54484e-14
-4.20439e-12
-3.62334e-13
9.31459e-13
-8.66562e-12
5.11226e-12
6.98629e-12
-9.63144e-14
-6.5763e-14
-7.67531e-13
1.84626e-12
-5.19409e-13
-1.0046e-12
5.94455e-12
-1.21118e-12
-2.68267e-13
1.51821e-12
-5.22359e-12
-1.73996e-13
-2.80632e-13
1.14838e-14
3.52628e-13
-4.6962e-12
-1.17353e-12
3.8204e-13
-1.20745e-12
-2.33019e-12
1.30567e-11
1.04427e-14
3.24314e-14
-2.07135e-11
-1.41642e-13
-2.33045e-12
-1.29819e-12
-1.78333e-12
0
-4.15435e-12
-4.51607e-12
2.14234e-12
2.14265e-12
-6.9607e-14
0
-1.3371e-13
-2.12586e-11
-6.5859e-13
-2.46983e-12
-1.38488e-11
2.38795e-11
2.5257e-14
7.7032e-13
1.87144e-12
-1.41729e-12
1.68012e-12
-9.73442e-14
-3.71944e-14
-7.15713e-13
-2.96704e-12
2.44259e-14
-8.03148e-12
-2.52529e-12
1.49404e-13
-7.66745e-13
2.07077e-12
0
-1.19114e-12
6.24141e-12
-1.63558e-13
1.8581e-12
0
-1.11054e-11
-2.87169e-13
2.75611e-12
8.10203e-13
4.64825e-13
2.59699e-12
-1.86518e-12
-2.50148e-13
-2.25433e-13
1.53899e-12
-1.86287e-11
8.22754e-12
0
-1.9144e-12
-6.99121e-13
-1.736e-12
8.18587e-12
2.76807e-13
-1.14547e-12
4.37125e-12
-3.54018e-15
-8.58365e-15
-1.18958e-12
4.20314e-12
2.93467e-12
5.52259e-13
-6.59577e-12
3.6459e-13
-9.70841e-13
2.49555e-12
3.00026e-12
-4.101e-13
-5.16818e-12
2.61237e-12
1.56844e-12
0
1.23401e-12
-5.78923e-12
-2.15776e-13
-2.80045e-12
-2.39367e-12
6.58337e-12
6.78507e-12
7.14585e-13
-4.87741e-12
1.57152e-12
7.74303e-13
1.95638e-13
8.61529e-13
-4.12389e-13
-4.46093e-14
-4.77684e-12
0
-9.65317e-13
1.10843e-11
-1.03869e-11
-1.59648e-12
9.70832e-13
5.34754e-12
-7.50052e-13
-7.5957e-13
0
0
-1.26451e-12
2.33276e-12
3.30328e-12
-5.77525e-12
2.62354e-12
-5.4468e-14
4.29985e-12
-4.58927e-13
2.83045e-13
9.74521e-13
3.22346e-12
3.31146e-12
3.31221e-12
6.95944e-13
2.73386e-12
-2.50831e-12
-3.22152e-13
3.25762e-12
1.32285e-12
4.43692e-12
6.34813e-12
-4.68899e-12
-4.50704e-12
-2.81959e-12
-2.40718e-12
-3.74374e-12
-5.32074e-13
1.43091e-13
3.81408e-12
8.81373e-13
0
-2.87142e-12
-2.22562e-12
-3.33467e-12
-2.37728e-12
-5.99514e-12
-1.15743e-12
-2.69178e-12
3.86097e-12
3.63992e-13
-7.01266e-13
0
-1.98449e-12
-1.83085e-14
-4.52259e-12
7.01629e-14
1.53761e-12
-4.15347e-12
-5.19673e-12
-1.77196e-12
4.98021e-13
0
7.20252e-13
1.59403e-12
-7.63426e-13
-2.9335e-13
5.59157e-15
4.53517e-14
3.69299e-13
4.86331e-13
-7.1597e-13
1.52316e-11
7.78951e-13
6.56151e-13
-9.97855e-13
1.62011e-11
-4.39082e-12
-5.87149e-13
1.80896e-14
-1.20982e-14
-7.21805e-12
9.27803e-12
-1.65057e-12
-1.18598e-14
2.88647e-14
-1.71726e-13
8.97317e-14
-3.4684e-12
-2.11381e-13
1.27095e-12
-2.75679e-13
2.34746e-13
-1.99974e-12
2.82177e-14
-2.4518e-14
-1.93378e-12
-2.59257e-12
1.50895e-12
7.29551e-12
-1.31758e-13
-1.52015e-12
-2.64888e-12
0
2.34369e-12
4.8737e-13
-9.15042e-12
-6.3484e-13
2.511e-12
3.01829e-12
-8.94811e-12
-4.11114e-13
-1.86883e-12
-2.59018e-12
-9.99044e-13
-1.94089e-12
-1.35418e-12
-1.33879e-11
-1.46276e-12
-3.14957e-12
1.12295e-11
-4.69397e-12
-1.15743e-12
7.27332e-15
-2.10605e-15
-1.26155e-15
-5.04375e-12
-2.64209e-14
-2.75013e-14
1.30642e-13
0
0
-2.71162e-11
-1.9811e-12
-3.62273e-12
0
-8.77998e-12
1.04614e-11
-2.52729e-12
4.09384e-13
-1.10947e-11
-1.37406e-12
9.28304e-13
6.02318e-13
-5.68305e-12
1.40527e-12
1.03979e-11
-1.04256e-11
-1.06474e-12
-2.07546e-12
2.23999e-13
8.74149e-14
9.82463e-13
-1.24548e-11
-1.47652e-11
0
-1.93239e-13
6.7432e-13
1.98292e-12
8.20928e-13
-6.89403e-12
-4.87659e-13
5.70895e-12
1.40665e-14
-5.2996e-12
-9.45799e-13
-1.02181e-12
2.74642e-12
4.71178e-12
-2.55011e-13
-4.92551e-12
6.23869e-12
4.04285e-13
-3.23748e-13
3.29806e-12
-2.58193e-12
1.28886e-12
-9.6676e-13
0
-1.5057e-14
1.06845e-12
-8.046e-13
-3.0793e-12
7.29498e-13
-1.46098e-12
-7.56346e-13
6.6844e-13
3.03494e-13
-3.85849e-12
4.87131e-13
5.72738e-12
-1.4695e-12
-7.37095e-13
-4.50555e-12
-5.17695e-13
1.32346e-13
2.63964e-12
2.42228e-12
-1.36287e-13
7.36604e-15
1.07513e-14
-1.608e-12
-5.2145e-12
-5.70844e-12
3.09296e-12
2.66811e-12
6.62663e-14
-9.9901e-14
0
2.0813e-12
5.42831e-13
-2.22934e-12
2.52383e-12
1.67676e-11
-2.18041e-12
-9.07656e-13
-2.785e-12
-1.66926e-11
3.27783e-12
2.86012e-12
-2.91039e-13
5.68407e-14
-3.58502e-14
2.96104e-12
1.43676e-12
1.3383e-13
-2.26427e-12
-9.23495e-13
3.38924e-12
-1.24723e-12
-3.1703e-12
2.71822e-13
5.33206e-14
-7.0318e-14
-1.40368e-13
0
-3.28259e-12
1.89434e-14
2.63365e-14
-3.37954e-12
-1.85069e-12
0
0
3.34694e-13
-4.01035e-12
-5.58958e-12
-1.29411e-12
7.70291e-13
7.7016e-13
-1.53087e-12
8.66705e-13
1.01989e-12
-1.87374e-12
-1.56303e-11
-5.58894e-13
1.1794e-12
-1.73519e-12
1.99919e-12
-1.27498e-12
2.46825e-14
4.91983e-15
-1.00348e-11
6.6938e-12
-1.5563e-12
-7.63204e-13
7.80575e-12
3.86754e-12
1.12905e-12
2.16027e-12
-2.59741e-12
6.29696e-13
1.86519e-12
1.26536e-12
1.16972e-11
-2.91046e-12
-1.12051e-11
-4.07767e-12
-3.3026e-13
-1.28692e-12
7.00704e-12
-2.41966e-12
1.4701e-12
-1.03056e-12
1.2485e-13
1.37822e-12
3.32087e-12
-3.36631e-12
1.43041e-11
9.57089e-13
1.03059e-12
-3.11048e-12
2.666e-13
-2.51611e-12
-3.14535e-12
-3.65075e-12
-5.55161e-13
4.55186e-12
1.1855e-11
-1.94732e-12
-1.79702e-12
-2.28989e-14
6.41613e-15
3.58178e-15
-7.11222e-14
1.9725e-13
-1.26132e-12
-1.14137e-13
-3.10024e-12
-4.67594e-11
2.03719e-13
1.27979e-12
-1.62773e-12
7.56988e-12
2.10854e-13
1.07358e-13
-2.28545e-14
-5.14838e-12
-6.64432e-12
5.12778e-12
-7.02796e-12
3.44983e-13
-8.67306e-12
-1.85087e-12
-1.98511e-12
9.5818e-13
1.31827e-12
1.54295e-12
-1.74245e-12
2.80823e-14
2.84262e-14
-5.39009e-12
-1.53386e-13
5.00961e-13
-1.97567e-12
2.61864e-12
-2.51251e-13
2.3876e-12
2.34125e-12
0
2.50714e-12
-1.37121e-12
7.84898e-14
3.63704e-12
0
-1.30128e-12
6.25866e-12
1.53957e-12
-4.23154e-12
2.44845e-12
2.96056e-12
2.10633e-12
-6.81185e-13
3.00086e-12
1.15379e-13
-2.99572e-14
1.34168e-12
-2.12418e-12
-2.8798e-14
1.27435e-14
2.53262e-12
7.16243e-14
-1.71542e-13
7.81243e-13
2.18214e-12
2.07736e-13
-6.13821e-14
4.3553e-13
-1.83235e-12
1.48388e-12
7.79653e-13
-3.83517e-13
1.77706e-12
-9.4779e-13
-5.64448e-12
-1.84253e-12
6.4653e-12
-8.16804e-13
-2.26182e-12
0
2.7557e-14
2.65518e-12
6.24284e-12
3.64693e-12
5.01744e-12
3.49368e-12
-4.77115e-12
9.25156e-12
-1.06564e-11
-8.44054e-13
-9.58798e-13
1.03595e-13
7.6955e-13
4.50124e-13
-8.65701e-12
-6.15705e-13
8.75326e-13
7.24088e-13
-9.80169e-13
3.2168e-12
1.43269e-11
7.25169e-14
9.24932e-14
5.95678e-13
-6.11229e-13
8.04396e-14
7.24801e-14
3.02848e-12
5.03218e-13
-8.88138e-13
-8.26631e-14
-5.58657e-12
-1.77572e-12
3.76119e-12
-1.88821e-12
7.90227e-14
-1.11283e-11
-5.08935e-13
-1.43603e-12
1.75669e-12
-7.38262e-13
-1.60924e-11
1.58981e-13
-2.89674e-12
-6.65515e-14
-2.68432e-12
3.16321e-12
0
-3.10646e-12
-4.90098e-12
1.74813e-12
7.28547e-12
1.15486e-12
0
-2.81665e-12
2.48771e-12
-7.15094e-12
-3.58034e-12
-1.20344e-13
-1.08848e-11
-3.29461e-12
1.99625e-12
6.36926e-13
-3.48936e-14
-3.87551e-14
-1.56872e-12
-5.67895e-13
-8.10062e-13
-4.00546e-13
-9.35333e-13
-2.0591e-12
-1.30042e-12
1.34224e-12
3.24032e-12
0
1.33134e-14
-1.59282e-11
-1.6673e-13
1.42167e-12
-2.02352e-12
-6.99902e-12
3.15076e-13
3.94962e-14
4.32186e-12
-6.26303e-13
5.14329e-12
3.06813e-12
-2.33844e-12
2.58313e-13
6.37957e-13
1.47812e-12
-3.3375e-13
1.72535e-12
8.2703e-13
1.35622e-12
2.74408e-12
-6.46785e-13
1.44843e-12
1.98879e-13
4.82646e-13
2.28166e-12
-1.65865e-14
8.37003e-12
-2.88453e-13
9.12091e-13
2.53456e-14
2.1849e-14
3.07397e-12
6.26686e-13
-5.11929e-13
-2.22773e-13
-8.60636e-14
9.99256e-15
2.46053e-12
9.34729e-14
2.90744e-14
4.78115e-12
-5.79213e-12
-7.45639e-13
-3.9529e-12
0
1.91165e-13
-2.32791e-12
1.92745e-12
-7.59311e-13
-3.94491e-13
2.8484e-13
6.0219e-14
-5.511e-12
3.5945e-11
-2.55301e-12
-4.26195e-12
-4.013e-12
-4.98997e-12
-3.84184e-12
7.52503e-12
-1.48164e-12
-1.3235e-12
-2.86765e-14
1.97523e-14
1.86982e-12
-1.67086e-13
-2.07568e-12
-4.11693e-12
4.46719e-13
-5.51213e-13
1.15551e-12
-1.21563e-12
7.7514e-13
1.04873e-12
2.84147e-13
2.3303e-12
-2.64134e-12
4.16839e-12
-5.99068e-12
1.10757e-12
-8.41586e-12
4.25585e-12
-2.08776e-12
-3.74995e-12
-8.62138e-13
1.31836e-12
-1.48432e-12
5.76338e-13
-1.26632e-11
2.83404e-12
4.89384e-14
-2.7007e-13
-1.29181e-13
1.21489e-13
-1.21675e-11
1.0698e-12
-1.75e-12
-3.24388e-12
-1.24016e-11
3.19401e-12
-1.50888e-12
-2.18107e-12
-2.34458e-12
-1.32906e-12
0
-5.03062e-12
-7.39879e-12
0
5.98266e-12
2.23645e-12
3.40945e-12
-7.08483e-12
1.09201e-12
1.05252e-11
3.96071e-14
3.8148e-11
1.0667e-13
5.4319e-14
1.95892e-12
-8.75839e-12
-8.47023e-13
-2.02702e-12
1.93472e-12
-1.84254e-12
-3.83302e-13
1.06835e-13
-3.37776e-12
8.02501e-13
7.20155e-12
-2.3275e-12
-4.96607e-12
-2.83852e-12
5.52203e-12
5.3668e-13
4.08473e-12
-6.43422e-12
8.90434e-13
3.2145e-13
9.91487e-14
3.96805e-14
-2.61663e-12
-1.01954e-12
0
-3.94569e-13
9.065e-14
9.03971e-14
-1.41685e-13
-1.41717e-13
-5.13318e-14
-4.71372e-12
7.75065e-13
0
0
2.31227e-12