/*--------------------------------*- C++ -*----------------------------------*\
| =========                 |                                                 |
| \\      /  F ield         | OpenFOAM: The Open Source CFD Toolbox           |
|  \\    /   O peration     | Version:  v3.0+                                 |
|   \\  /    A nd           | Web:      www.OpenFOAM.com                      |
|    \\/     M anipulation  |                                                 |
\*---------------------------------------------------------------------------*/
FoamFile
{
    version     2.0;
    format      ascii;
    class       volScalarField;
    location    "3000";
    object      sigmazz;
}
// * * * * * * * * * * * * * * * * * * * * * * * * * * * * * * * * * * * * * //

dimensions      [1 -1 -2 0 0 0 0];

internalField   nonuniform List<scalar> 
27023
(
-6.90911e+06
6.91614e+06
4.93438e+06
-4.92973e+06
-6.76192e+06
6.76879e+06
2.16961e+07
-2.16823e+07
2.67386e+06
-2.67179e+06
1.66357e+07
-1.66231e+07
639458
-642508
-6.10495e+06
516244
428233
-1.30291e+07
1.30423e+07
9.79248e+06
-9.77834e+06
2.14212e+07
-2.14075e+07
1.18741e+07
-1.18621e+07
1.80989e+06
-8.32325e+06
770288
-8.32207e+06
7.03247e+06
3.62386e+06
9.79696e+06
-9.78376e+06
-9.52642e+06
-6.0592e+06
7.414e+06
9.26914e+06
-9.25393e+06
2.52264e+06
-2.52101e+06
-5.06896e+06
5.07387e+06
-4.8311e+06
-6.5264e+06
6.53319e+06
1.28562e+07
-1.28427e+07
1.09898e+07
-1.09751e+07
6.51012e+06
1.05815e+07
-1.05667e+07
-9.28755e+06
135048
-134191
1.04878e+07
4.40559e+06
7.68944e+06
-3.52518e+06
5.0635e+06
-5.0588e+06
6.42893e+06
1.05162e+06
1.11656e+06
-4.67085e+06
3.25665e+06
8.60965e+06
2.21732e+06
-8.27857e+06
-4.51679e+06
8.94442e+06
-8.92911e+06
1.55947e+07
-1.55816e+07
1.9001e+07
-1.89883e+07
247310
-246371
-2.26913e+07
2.27047e+07
-6.28974e+06
1.60428e+07
-1.60302e+07
1.52994e+07
-1.52864e+07
-2.01286e+07
2.01414e+07
-8.56572e+06
837932
-3.71943e+06
3.6176e+06
7.34284e+06
-7.33516e+06
4.6296e+06
-1.81498e+06
-1.18114e+07
1.18218e+07
-6.3033e+06
-3.75365e+06
174908
-6.08411e+06
-3.83978e+06
3.97443e+06
1.81027e+07
-1.80899e+07
646503
1.9739e+07
-1.97257e+07
1.03987e+07
7.27586e+06
4.38544e+06
1.99845e+07
-1.99712e+07
1.16589e+07
-1.16477e+07
1.91748e+07
-1.91619e+07
4.38362e+06
-8.09369e+06
-6.09973e+06
4.64996e+06
491790
-1.81065e+07
1.81197e+07
2.26652e+07
-2.26514e+07
7.10132e+06
-7.09369e+06
1.8489e+07
-1.8476e+07
-3.44857e+06
-664109
651239
-3.44104e+06
3.99806e+06
-2.02269e+07
2.02397e+07
2.22321e+06
1.35046e+07
-1.34909e+07
-2.06759e+07
2.06896e+07
-1.50961e+06
2.10912e+07
-2.10776e+07
-3.39377e+06
-3.50961e+06
1.07377e+07
8.76441e+06
1.14143e+07
-1.14033e+07
1.25473e+07
-1.25361e+07
-5.73003e+06
-6.51004e+06
-6.32631e+06
6.36975e+06
6.1647e+06
1.33519e+07
-1.33382e+07
-1.16516e+07
-4.83638e+06
-1.00642e+07
782904
-1.4299e+07
1.43111e+07
-1.88936e+07
1.8907e+07
-4.5153e+06
468722
1.16134e+06
-2.28719e+07
2.28853e+07
-4.06712e+06
4.14046e+06
-6.46824e+06
552502
-1.50365e+06
-4.15258e+06
2.41428e+06
-8.78908e+06
-1.9629e+07
1.96423e+07
-6.31596e+06
-1.16843e+07
-1.24624e+07
-1.12876e+07
1.12983e+07
-1.05676e+07
-3.76717e+06
-1.90788e+07
1.90921e+07
-6.05227e+06
902442
2.30649e+07
-2.3051e+07
-1.3103e+07
-1.847e+07
1.84832e+07
-7.65635e+06
6.50062e+06
-8.43602e+06
1.85987e+07
-1.85854e+07
-6.18849e+06
6.19492e+06
-5.17908e+06
-1.29567e+07
1.85876e+07
-1.85744e+07
28626.3
-28423.4
4.39049e+06
-5.5365e+06
-2.55735e+06
2.56057e+06
-7.06829e+06
592346
1.33525e+06
-1.99741e+07
1.99869e+07
-3.44139e+06
-1.79234e+07
1.79364e+07
-5.96505e+06
1.79607e+07
-1.79475e+07
1.57989e+07
-1.57861e+07
1.33837e+06
-1.33808e+06
849493
1.84027e+07
-1.83895e+07
-1.19477e+07
1.75894e+07
-1.75764e+07
1.92534e+07
7.27515e+06
-2.25331e+07
2.25469e+07
8.74351e+06
1.23038e+07
1.22633e+07
-9.85919e+06
4.81808e+06
162922
-7.5741e+06
1.01508e+07
-9.62822e+06
-2.14557e+07
2.14693e+07
-4.39628e+06
-3.79211e+06
-1.29864e+07
-1.31935e+07
1.58613e+07
-1.20849e+07
1.09261e+07
-1.09125e+07
3.83327e+06
878890
1.1166e+07
1.80771e+07
-1.80641e+07
2.07896e+07
-2.07762e+07
1.54099e+06
-3.15716e+06
1.77969e+07
-1.77838e+07
7.82952e+06
-4.68087e+06
-8.36904e+06
2.00416e+06
1.13564e+06
-1.43071e+07
1.43191e+07
-1.07711e+07
1.07829e+07
8.73863e+06
-1.08725e+07
2.13375e+06
-2.11182e+06
-178661
179643
-4.51526e+06
-5.6443e+06
2.69088e+06
9.94424e+06
445877
-4.36454e+06
-1.79012e+07
1.79145e+07
-1.98401e+07
1.98527e+07
-9.57992e+06
1.28389e+07
-1.85592e+07
1.85724e+07
771968
1.78796e+06
-1.8544e+07
1.85569e+07
-2.12013e+06
3.52967e+06
-3.526e+06
7.25461e+06
6.52544e+06
-1.16321e+06
72121.2
107219
-106578
1.53411e+06
-1.53404e+06
8.70645e+06
-1.04549e+07
1.04694e+07
308384
6.33867e+06
968383
-969066
-9.09249e+06
-5.31174e+06
-3.77474e+06
6.54099e+06
-1.50938e+07
2.02038e+06
9.9036e+06
-1.18262e+07
-4.24311e+06
1.18155e+07
-1.7059e+07
1.91478e+06
7.37907e+06
-9.99053e+06
1.00005e+07
-3.69778e+06
2.39492e+06
1.76046e+07
-1.75918e+07
-1.24558e+07
1.25168e+07
40993.8
-40714.2
-7.67065e+06
7.26148e+06
-7.25397e+06
-5.28505e+06
2.60366e+06
-9.78053e+06
9.77974e+06
1.88992e+07
-1.8886e+07
36694.6
-36254.2
1.20396e+06
-2.22053e+07
2.22189e+07
-1.136e+06
-9.20149e+06
-1.80366e+07
1.80499e+07
-2.06021e+07
2.0616e+07
3.56198e+06
-7.77308e+06
-1.41161e+06
-8.26163e+06
8.27039e+06
-2.17373e+07
2.17505e+07
-3.78681e+06
-1.21199e+07
-4.18729e+06
-1.21724e+07
-1.2233e+07
-8.31058e+06
-7.92948e+06
8.85987e+06
6.11851e+06
-8.84363e+06
2.20299e+07
-2.20161e+07
-7.35728e+06
2.92337e+06
3.47494e+06
-1.24256e+07
-1.13187e+07
-478046
-7.07123e+06
2.36822e+06
9.26666e+06
925340
408945
-1.83337e+06
7.86393e+06
4.28771e+06
-1.77104e+07
-8.41771e+06
1.57605e+07
-1.57477e+07
5.75628e+06
-6.02332e+06
2.39761e+06
-8.30051e+06
8.3094e+06
188324
4.3249e+06
-1.0852e+07
594086
1.08486e+07
199152
-198053
-3.68182e+06
1.03283e+07
8.56708e+06
1.27639e+07
6.78137e+06
-9.06921e+06
4.46296e+06
-1.12068e+07
2.64846e+06
1.53548e+06
957321
-1.68415e+07
-1.81078e+07
1.81207e+07
-1.57326e+07
1.47499e+06
1.18263e+07
-7.06653e+06
1.7528e+07
-1.75149e+07
-1.37007e+07
1.3714e+07
1.25717e+07
791868
3.42726e+06
-3.425e+06
-1.57723e+07
1.57686e+07
1.18042e+07
-1.17902e+07
-60015
60399.9
-4.43072e+06
-2.76841e+06
-1.01111e+07
-979455
-2.51196e+06
-1.90997e+07
1.91132e+07
-1.8507e+07
1.85203e+07
1.12333e+07
-1.12193e+07
1.23851e+07
-1.23737e+07
-2.79324e+06
168499
-2.54231e+06
-9.69668e+06
5.12976e+06
1.17936e+07
-4.06647e+06
-2.22554e+07
2.22695e+07
-1.06403e+07
5.38907e+06
2.74356e+06
1.42052e+07
1.22679e+07
-9.44119e+06
-3.26065e+06
1.82368e+07
-1.82234e+07
-4.7826e+06
4.8555e+06
4.54458e+06
-4.54008e+06
1.82015e+07
-1.81883e+07
480362
2.99729e+06
-3.313e+06
3.48605e+06
1.71334e+07
1.72184e+06
-1.67126e+07
1.67253e+07
-6.96494e+06
9.50428e+06
579456
-1.05022e+07
1.05168e+07
8.35316e+06
-8.34456e+06
7.09474e+06
-1.48217e+07
-8.63944e+06
-7.11849e+06
7.12715e+06
-9.45494e+06
-1.72758e+06
9.579e+06
-9.56317e+06
-8.29154e+06
2.13503e+07
-2.13357e+07
1.66594e+07
-1.66467e+07
-1.1144e+07
-1.63635e+07
1.63762e+07
-5.02551e+06
-7.10891e+06
1.65826e+07
-1.65693e+07
-1.27472e+07
-1.8193e+07
1.82059e+07
1.04136e+07
-1.76255e+07
1.76385e+07
-1.07846e+07
1.07979e+07
-2.6914e+06
1.42714e+07
-1.42594e+07
-8.49914e+06
-1.70302e+06
-2.14679e+06
-3.10356e+06
1.36827e+07
-1.36704e+07
-2.11894e+07
2.12026e+07
-7.73318e+06
-1.29092e+07
8.32437e+06
777838
-9.98655e+06
-9.19414e+06
4.36982e+06
-3.45295e+06
3.45532e+06
-1.49854e+07
-2.00102e+07
2.00228e+07
7.62746e+06
785816
-1.79205e+07
1.79336e+07
-9.17479e+06
-1.0191e+07
1.01939e+07
161909
1.04154e+06
-2.95166e+06
-7.91005e+06
-6.60435e+06
9.52925e+06
-9.51333e+06
-9.13388e+06
-187837
1.50436e+07
-1.50301e+07
3.39358e+06
-9.57423e+06
9.58712e+06
-2.74406e+06
9.4442e+06
-9.43473e+06
-1.79841e+07
1.79971e+07
-1.06555e+07
1.06657e+07
1.01148e+07
-7.80224e+06
7.79305e+06
1.0045e+07
-1.15688e+07
1.15798e+07
-7.07869e+06
3.78443e+06
-4.33596e+06
-1.06362e+07
775279
-1.97391e+06
-3.88886e+06
-1.68649e+07
1.11963e+07
-1.11842e+07
7.72606e+06
1.13652e+07
-1.13533e+07
-7.25494e+06
-1.50209e+07
1.5034e+07
-2.75619e+06
-695106
-9.74487e+06
9.7578e+06
1.72299e+07
-1.72167e+07
1.30814e+07
5.51311e+06
8.91788e+06
1.52728e+07
-1.52591e+07
1.96335e+07
-1.96205e+07
6.09575e+06
-4.882e+06
2.51611e+06
-2.56141e+06
7.72135e+06
-7.70379e+06
-7.9196e+06
-48005.9
-107415
108137
48332.7
-4.90116e+06
575970
-575818
-1.09966e+07
1.10073e+07
-6.73735e+06
6.74459e+06
9.38797e+06
-9.37859e+06
1.51076e+06
1.37641e+07
-1.37516e+07
-1.01042e+07
-4.74027e+06
-1.31216e+07
1.3134e+07
-6.0655e+06
1.46333e+07
-1.46196e+07
-7.86749e+06
-6.24179e+06
1.23269e+07
-1.02035e+07
1.02135e+07
1.21184e+07
892642
-29652.5
-5.69899e+06
-1.80585e+07
1.80718e+07
-1.53041e+06
1.0806e+07
-2.21795e+07
2.2193e+07
-55270.6
55601.8
1.10379e+07
-1.1026e+07
9.48541e+06
-1.46707e+06
2.1641e+07
-2.16284e+07
-7.22831e+06
-1.08562e+07
1.56634e+06
4.11744e+06
9.12375e+06
7.28054e+06
3.90515e+06
-779148
-3.15653e+06
-1.17567e+07
8.18956e+06
1.11668e+07
-1.06793e+07
-5.57228e+06
-4.33142e+06
147845
-147254
1.49923e+07
-1.49792e+07
8.77891e+06
-746574
-4.76467e+06
-1.67092e+06
9.68847e+06
1.04127e+07
-1.09417e+07
-1.09263e+06
6.8341e+06
-7.36876e+06
-2.84572e+06
6.25954e+06
-6.25275e+06
9.83296e+06
1.36607e+07
-1.29817e+06
-6.78731e+06
1.82126e+07
-1.81994e+07
-1.87878e+07
1.88012e+07
110665
-109987
-885698
-1.42148e+06
-5.57291e+06
-796068
-1.01549e+07
1.01689e+07
5.95249e+06
2.71506e+06
-2.71379e+06
-2.00632e+07
2.00761e+07
-1.56391e+07
1.65044e+07
-1.64914e+07
-2.498e+06
1.23782e+07
-7.77925e+06
-4.4561e+06
1.22729e+07
1.39135e+06
1.6472e+07
-1.64589e+07
6.52165e+06
-2.16913e+06
2.03162e+07
-2.03022e+07
-6.57596e+06
-1.7605e+07
-5.95321e+06
1.76183e+07
4.51521e+06
-4.48827e+06
8.91537e+06
6.74531e+06
-9.29033e+06
-365567
-9.33379e+06
-4.92239e+06
1.62575e+07
-3.24811e+06
6.57688e+06
-6.56806e+06
-1.87142e+07
1.87273e+07
4.727e+06
1.3828e+06
-1.75537e+07
1.75669e+07
-1.02772e+07
8.36867e+06
6.75369e+06
3.46531e+06
7.59511e+06
7.52382e+06
-7.51613e+06
-2.72366e+06
1.05034e+07
-1.04896e+07
-1.85479e+07
1.85609e+07
251248
-7.06925e+06
-1.52511e+06
-1.62457e+07
1.55405e+07
-1.5528e+07
6.91749e+06
873948
-4.90664e+06
-1.10518e+07
-4.49027e+06
-7.54877e+06
-2.91536e+06
-7.02011e+06
7.91717e+06
1.88565e+07
-1.88438e+07
1.7011e+07
-1.69982e+07
1.22588e+07
-1.20656e+07
-2.83729e+06
1.11465e+06
1.84042e+07
-1.83914e+07
-1.28299e+07
-1.16133e+07
342121
-4.72934e+06
1.52854e+06
1.23902e+06
-1.23728e+06
-5.16731e+06
-2.02648e+06
2.10513e+07
-2.10375e+07
-622574
5.3e+06
-860558
2.24991e+07
-2.24859e+07
-7.4577e+06
7.46812e+06
-8.86377e+06
-5.8125e+06
5.81885e+06
-2.69356e+06
-1.26342e+06
626230
1.13792e+06
1.72238e+07
-1.72108e+07
-2.36809e+06
-1.02901e+07
1.03044e+07
1.91743e+07
-1.91606e+07
-7.33697e+06
7.33359e+06
1.2526e+07
-1.25146e+07
-2.03951e+07
2.0409e+07
2.3853e+06
-1.20831e+07
2.06817e+07
-2.0668e+07
-1.26086e+07
-1.06361e+06
1.18642e+07
-1.18533e+07
1.54041e+07
-1.53909e+07
-1.20973e+07
-1.8105e+07
1.81183e+07
-2.1055e+07
2.10675e+07
1.21064e+07
5.23443e+06
7.49702e+06
3.26585e+06
1.36918e+07
-1.36782e+07
-1.68288e+07
1.13045e+06
1.53192e+06
1.68417e+07
6.14032e+06
9.84124e+06
-7.50557e+06
1.04105e+07
-1.03972e+07
209603
2.90293e+06
-9.05872e+06
1.35183e+07
-1.35231e+07
5.22551e+06
-644631
181180
-180442
-7.65826e+06
-8.82849e+06
-6.28954e+06
2.07479e+07
-2.07345e+07
-1.26846e+07
-9.30394e+06
-1.23775e+07
5.72155e+06
1.22781e+07
-1.22666e+07
-1.19372e+07
5.19996e+06
1.27011e+07
-6.63448e+06
6.70751e+06
1.23891e+07
-1.10481e+07
1.19029e+07
-1.18918e+07
-1.67863e+07
1.67995e+07
1.08814e+07
-4.32734e+06
7.06032e+06
1.7146e+07
-1.71331e+07
-1.59466e+07
1.59602e+07
-3476.1
-5.67514e+06
1.37712e+07
-1.37578e+07
-7.79437e+06
2.36188e+06
-2.36004e+06
-6.23334e+06
-6.65644e+06
1.69322e+07
-1.01576e+07
-1.05875e+07
-1.27301e+07
7.08172e+06
-7.59031e+06
-2.44781e+06
1.93919e+07
-1.93791e+07
-1.12723e+06
365745
3.57669e+06
-7.535e+06
-3.1581e+06
-1.88778e+06
-1.20907e+06
7.01692e+06
-5.51188e+06
609124
3.3652e+06
-7.55522e+06
6.17445e+06
-1.54395e+07
3.79136e+06
-3.99958e+06
-3.56791e+06
3.57048e+06
7.42393e+06
-2.54167e+06
2.54369e+06
-5.49616e+06
-3.29499e+06
1.39191e+07
-1.39068e+07
7.06593e+06
1.93826e+06
-1.93628e+06
-6.35446e+06
-3.31689e+06
6.66245e+06
-9.11368e+06
1.06341e+07
6.72032e+06
-1.79664e+07
8.2987e+06
6.09257e+06
1.01559e+07
7.3315e+06
-7.32389e+06
2.54709e+06
-2.82024e+06
684514
-684589
1.12443e+07
-256267
7.44904e+06
5.57928e+06
-7.82724e+06
7.84297e+06
-1.24507e+07
-2.49662e+06
6.20995e+06
-375318
375647
-7.047e+06
-4.79992e+06
-66280.1
845716
-3.98237e+06
1.21715e+07
7.12619e+06
-9.0691e+06
-8.06931e+06
8.08364e+06
-1.42604e+07
-1.11914e+07
355723
1.48461e+06
-8.23538e+06
-1.47343e+07
1.47466e+07
648032
-5.96878e+06
-1.36875e+07
-3.70538e+06
3.7081e+06
-7.28232e+06
3.58542e+06
7.35418e+06
-1.78651e+07
1.78785e+07
-3.41889e+06
-1.02913e+07
1.03134e+07
1.38478e+07
-1.38354e+07
5.53827e+06
-7.66e+06
267928
-267010
-6.9034e+06
714793
2.12617e+06
1.88773e+07
-1.88643e+07
-2.281e+06
2.1635e+07
-2.16206e+07
1.06889e+06
8.87212e+06
-3.2874e+06
-1.4835e+07
-6.41806e+06
-1.91172e+06
1.48473e+07
1.35454e+07
1.69963e+06
-5.97215e+06
-8.53224e+06
8.54679e+06
8.53714e+06
-8.8068e+06
1.21319e+07
6.86057e+06
8.21474e+06
-1.84301e+06
1.36951e+06
-2.85489e+06
-5.1801e+06
489988
1.76512e+06
-2.58638e+06
-2.09484e+06
68666.2
7.75387e+06
4.7422e+06
-1.01908e+07
-7.41589e+06
-3.7322e+06
-1.24373e+07
1.17372e+07
-1.45695e+07
1.45817e+07
2.45148e+06
-1.04118e+06
-7.63823e+06
7.65176e+06
1.52339e+07
-1.52202e+07
-4.97012e+06
-2.0025e+06
1.00735e+07
-1.53136e+06
1.5334e+06
1.83064e+07
-1.82936e+07
1.28438e+06
365318
-6.46685e+06
-2.05693e+06
-1.58918e+06
-421189
-1.81921e+06
-334785
1.24356e+07
1.3478e+07
-1.34656e+07
7.97198e+06
-7.92813e+06
3.58796e+06
3.11348e+06
1.83855e+07
-1.83725e+07
1.8424e+06
3.56135e+06
7.99638e+06
-2.64013e+06
-1.14217e+07
-4.78727e+06
4.42707e+06
-3.7637e+06
1.35486e+07
-2.14327e+06
-4.248e+06
1.60936e+07
1.39859e+07
-1.39733e+07
-1.44054e+07
2.75495e+06
8.69765e+06
-5.96496e+06
6.15734e+06
1.60575e+07
-1.60428e+07
-7.06148e+06
-1.65116e+07
-2.10942e+06
2.1106e+06
2.82903e+06
-2.82731e+06
4.806e+06
6.47464e+06
-5.97582e+06
1.89528e+07
-1.88697e+07
1.88833e+07
3.35616e+06
-3.35283e+06
-2.73646e+06
1.94209e+07
-1.9408e+07
-7.80548e+06
7.64179e+06
-2.28329e+06
48427.2
-48087.3
-7.17232e+06
-3.50485e+06
1.53354e+07
-4.16088e+06
-1.91353e+07
1.91487e+07
7.71071e+06
1.45196e+07
-1.44086e+07
5.49851e+06
3.68975e+06
-522100
8.25579e+06
-8.24205e+06
-1.82362e+07
1.82492e+07
-3.60685e+06
-9.58653e+06
9.6007e+06
-1.7659e+07
1.76723e+07
4.18255e+06
-9.16943e+06
7.7867e+06
-2.98948e+06
7.78836e+06
-7.7786e+06
-6.12121e+06
2.37648e+06
1.31851e+07
-127071
-8.47435e+06
8.4832e+06
-7.8242e+06
3.99624e+06
1.5729e+07
1.64279e+07
-1.64145e+07
1.17155e+07
-1.8111e+06
-5.99013e+06
5.842e+06
2.071e+07
-2.0696e+07
-8.34227e+06
1.44294e+07
-1.44158e+07
8.19043e+06
-1.30646e+07
-1.03524e+07
1.03569e+07
8.02283e+06
4.94361e+06
391830
-663450
-9.74359e+06
3.49976e+06
-2.87225e+06
119349
-118556
1.30832e+07
2.83305e+06
-2.83091e+06
1.74641e+07
-1.74512e+07
-2694.99
2.07747e+07
-2.07608e+07
-1.54434e+07
1.54558e+07
-2.06725e+07
2.06849e+07
5.3432e+06
1.91201e+07
-1.91072e+07
1.43516e+06
-6.22741e+06
-737957
-6.18905e+06
4.08653e+06
-5.56114e+06
1.48054e+07
-1.47929e+07
-4.77102e+06
4.77687e+06
4.11502e+06
-559229
338416
1.20701e+07
2.02966e+06
8.81819e+06
-1.30668e+07
1.90465e+06
-2.59209e+06
1.78496e+06
-1.78439e+06
1.21631e+07
-9.43245e+06
1.19624e+07
-7.7966e+06
-4.35134e+06
1.06275e+06
9.16521e+06
-9.14916e+06
8.93345e+06
4.34728e+06
-7.19645e+06
7.24044e+06
-3.03479e+06
-9.25992e+06
-1.84693e+07
-1.11664e+07
1.11789e+07
1.29898e+07
-6.5998e+06
8.46297e+06
-9.23779e+06
1.10708e+07
1.84822e+07
9.24541e+06
1.02351e+07
8.50292e+06
5.56624e+06
8.38243e+06
-2.89922e+06
6.99226e+06
5.11349e+06
3.86622e+06
-1.21111e+06
-4.1485e+06
7.16158e+06
-8.44591e+06
-4.65677e+06
1.50646e+07
-1.50513e+07
-1.07546e+07
3.26796e+06
-3.13436e+06
-3.6813e+06
1.29005e+07
-1.39894e+07
1.69045e+06
-1.53663e+07
-5.28671e+06
2.3735e+06
1.40017e+07
6.84563e+06
-1.0187e+07
4.44684e+06
-1.8662e+06
1.16504e+07
-1.14686e+07
7.89065e+06
192771
-192358
-1.29288e+07
-1.58158e+07
1.58283e+07
731159
1.79194e+07
-1.79066e+07
2.11976e+06
7.1225e+06
-7.11526e+06
-8.42892e+06
99834.5
1.8521e+06
1.99534e+07
-1.99397e+07
-857118
-1.52311e+07
1.65486e+07
-6.1663e+06
1.75086e+07
-1.74958e+07
-9.72364e+06
2.78292e+06
1.8013e+06
-1.41768e+07
8.06805e+06
-8.05565e+06
126011
-125212
1.16578e+06
4.66036e+06
1.23391e+07
-1.23277e+07
1.80856e+07
-1.80724e+07
-1.39658e+07
3.16752e+06
6.60439e+06
1.69818e+07
-1.69689e+07
728490
-229353
230240
-1.4533e+07
1.45319e+07
-1.79782e+07
1.79913e+07
-1.55086e+07
1.83535e+07
-1.83404e+07
1.3377e+07
-1.33652e+07
8.45473e+06
-4.0056e+06
-1.70904e+07
1.6601e+07
7.86898e+06
612911
-1.65878e+07
3.45598e+06
9.80044e+06
9.15768e+06
1.0202e+07
5.86003e+06
1.74592e+07
-1.74462e+07
-5.0187e+06
-1.58701e+07
1.58826e+07
1.98578e+07
-1.98446e+07
-6.85759e+06
-1.38323e+07
1.38456e+07
7.98734e+06
-7.97315e+06
-7.61154e+06
7.71672e+06
-7.70027e+06
7.40969e+06
-1.8827e+07
1.88402e+07
4.75556e+06
-3.28794e+06
-7.6229e+06
-1.3749e+06
7.44057e+06
-7.43064e+06
2.91212e+06
-7.147e+06
2.98311e+06
-5.73737e+06
-63704.8
64260
-2.13115e+07
2.13249e+07
-2.88089e+06
5.30785e+06
2.14133e+07
-2.1399e+07
-7.93641e+06
7.73715e+06
3.79215e+06
-1.24491e+07
1.24857e+07
8.53478e+06
-541537
-1.28705e+07
1.67633e+06
-2.10197e+07
2.10335e+07
-8.58402e+06
8.59867e+06
-1.22444e+07
1.2258e+07
642093
-641613
3.33365e+06
-1.16441e+07
-2.32938e+06
-6.51624e+06
-7.71933e+06
-1.58362e+06
1.09787e+06
-1.09783e+06
-3.37429e+06
-421197
6.84411e+06
-8.60618e+06
8.6159e+06
6.50109e+06
-326039
-8.95725e+06
1.41406e+07
-1.41271e+07
-9.10958e+06
1.22529e+06
-1.34523e+07
1.34655e+07
-6.16139e+06
-1.45189e+07
1.45317e+07
-1.08702e+07
-6.46161e+06
-8.58369e+06
-3.92792e+06
4.28346e+06
-4.314e+06
1.68003e+07
4.09354e+06
1.18269e+07
-1.18158e+07
439596
1.04003e+07
-1.03898e+07
1.56728e+06
1.55956e+07
-1.55824e+07
-7.86212e+06
7.87023e+06
-822979
-4.73322e+06
4.74014e+06
-1.46474e+07
1.46608e+07
8.91593e+06
-6.0496e+06
-8.80461e+06
1.06e+07
-1.05895e+07
8.77824e+06
-3.02702e+06
-8.87905e+06
8.89147e+06
1.98584e+06
1.91978e+07
-1.9184e+07
2.7686e+06
1.13538e+07
1.83436e+07
-1.83308e+07
-264796
266145
-2.50065e+06
1.75737e+07
-1.75607e+07
2.06152e+06
8.13748e+06
-8.12437e+06
1.57043e+06
-1.56963e+06
-165502
8.20644e+06
1.88356e+07
-1.88221e+07
-2.20766e+07
2.20902e+07
7.27393e+06
841049
-3.32794e+06
3.33003e+06
5.07407e+06
37055.1
-36776.9
-1.95672e+07
1.95798e+07
-5.96926e+06
4.25414e+06
-4.25063e+06
2.47221e+06
-1.79686e+07
1.79819e+07
-4.97977e+06
-2.47963e+06
-1.87881e+07
1.88012e+07
-1.85953e+07
1.86086e+07
-5.51677e+06
542384
-1.22839e+07
6.37922e+06
-3.8276e+06
-2.19973e+06
7.02527e+06
7.94904e+06
-7.93495e+06
7.91378e+06
-1.54904e+07
1.55039e+07
1.85555e+07
-1.85424e+07
1.46921e+07
-7.75081e+06
-1.71849e+06
695746
-1.72355e+07
-7.56212e+06
1.19674e+07
1.11472e+07
-1.20537e+07
1.06494e+07
-1.06351e+07
-9.24395e+06
9.2534e+06
1.71913e+06
-2.10365e+06
-8.18953e+06
322577
-802320
6.45161e+06
-7.25043e+06
-3.0447e+06
8.73922e+06
-8.725e+06
246545
-9.93283e+06
9.94837e+06
-4.15876e+06
-2.06609e+07
2.06752e+07
-1.91835e+07
1.91966e+07
-3.15033e+06
-1.47226e+07
1.47356e+07
2.29774e+07
-2.29639e+07
1.6343e+07
-1.63304e+07
1.1028e+07
-1.10173e+07
1.6323e+07
4.38359e+06
5.40153e+06
-2.49066e+06
-9.04927e+06
9.05881e+06
-1.49531e+07
1.4966e+07
-4.66408e+06
4.48475e+06
-4.38814e+06
2.1274e+07
-2.12613e+07
8.17321e+06
-1.06714e+07
1.06509e+07
-6.59047e+06
-7.81026e+06
1.12293e+07
-3.49882e+06
8.05645e+06
-8.03293e+06
952505
-8.10276e+06
7.55408e+06
799658
-799492
1.38703e+07
2.99193e+06
3.21629e+06
-4.2733e+06
-9.85406e+06
-1.59441e+07
3.82816e+06
5.27967e+06
-5.27455e+06
1.65311e+07
-1.65176e+07
1.06941e+07
-1.06835e+07
-4.47521e+06
3.85293e+06
3.67698e+06
2.60772e+06
-4.56043e+06
-1.35133e+07
4.93369e+06
5.46108e+06
2.60618e+06
-1.5616e+07
1.56106e+07
1.65275e+06
-1.65271e+06
4.37079e+06
3.90769e+06
-1.07351e+07
1.07476e+07
1.14427e+07
-1.14318e+07
1.96664e+07
-1.96526e+07
-5.49634e+06
-2.58648e+06
2.58645e+06
1.41339e+06
-1.4238e+07
1.44193e+07
-1.76956e+07
1.77088e+07
7.97413e+06
-298227
1.48091e+07
-1.47968e+07
-8.50143e+06
8.43314e+06
6.41053e+06
-2.54551e+06
-8.18695e+06
-3.95688e+06
7.68225e+06
-7.674e+06
1.28915e+07
-1.28801e+07
-1.18795e+07
1.79205e+07
-1.79073e+07
1.67693e+07
-1.67566e+07
1.60577e+07
8.02699e+06
-8.01781e+06
-6.49882e+06
6.50581e+06
2.15093e+06
-4.66295e+06
-1.07812e+07
-8.07114e+06
8.08643e+06
-3.13382e+06
3.13578e+06
457976
1.06996e+07
-1.3376e+07
1.33891e+07
9.55122e+06
4.09549e+06
-2.19062e+07
2.19199e+07
4.02504e+06
1.12386e+07
-1.42361e+07
4.54465e+06
-1.40112e+07
-1.58839e+07
1.58972e+07
5.75851e+06
1.68062e+07
-1.67929e+07
3.19363e+06
5.51304e+06
1.40215e+07
-1.24972e+07
1.25108e+07
-6.13732e+06
6.81987e+06
-55455.6
1.84326e+07
-1.84195e+07
1.79461e+06
-2.45144e+06
1.13613e+07
-1.13467e+07
6.51355e+06
-7.19936e+06
7.16377e+06
2.5012e+06
958386
-914646
1.04982e+07
-1.04842e+07
2.39861e+06
-3.30586e+06
-6.82856e+06
1.25868e+07
-915694
-3.89038e+06
-1.29963e+06
450654
7.26468e+06
1.53003e+07
-5.62871e+06
1.69483e+07
-1.69355e+07
-7.76321e+06
1.09666e+06
-1.09667e+06
1.72367e+07
-1.72239e+07
5.49336e+06
-1.83559e+07
1.8369e+07
6.98021e+06
1.52364e+07
-2.09825e+06
-506862
506879
1.23906e+06
-1.43097e+07
1.43233e+07
-9.60601e+06
942798
1.01043e+07
-169981
-1.46664e+07
6.83669e+06
-4.90733e+06
4.91407e+06
1.12551e+07
-1.12442e+07
-7.70458e+06
3.51648e+06
7.26858e+06
-1.6641e+07
1.66537e+07
-1.72459e+06
1.7116e+06
-1.71019e+06
-119446
-1.85104e+07
1.85232e+07
-2.68306e+06
5.14967e+06
-6.2813e+06
5.06099e+06
-5.08558e+06
9.15419e+06
-9.13978e+06
-6.80561e+06
6.73166e+06
-8.7611e+06
8.85518e+06
1.08334e+07
-7.62431e+06
-1.12119e+07
685734
-1.37516e+07
-3.20767e+06
7.77723e+06
-7.76261e+06
-150176
5.31695e+06
-5.3119e+06
1.50986e+07
-1.50862e+07
1.24939e+07
1.68523e+07
1.19807e+06
2.08404e+06
8.34246e+06
613821
-1.40226e+07
-1.35316e+07
9.32306e+06
6.0375e+06
-7.74431e+06
-2.63116e+06
7.67671e+06
-1.01747e+07
1.01875e+07
1.11719e+07
-1.11614e+07
1.25469e+07
-1.25594e+07
6.00193e+06
-9.96429e+06
9.97866e+06
920653
-1.02704e+07
1.02787e+07
-1.66176e+07
1.66306e+07
4.33537e+06
1.05105e+07
-2.31164e+06
-7.66484e+06
-1.3807e+07
-59535.5
60094
6.73903e+06
-3.60986e+06
4.31054e+06
-4.32111e+06
2.16741e+06
8.33736e+06
-8.32738e+06
-1.42097e+07
1.42221e+07
7.57692e+06
-1.46452e+07
1.90699e+07
-1.9057e+07
-1.2811e+07
1.28231e+07
6.04627e+06
4.85216e+06
4.88621e+06
6.54315e+06
1.07706e+07
-1.07336e+07
4.49507e+06
-9.54056e+06
9.53249e+06
-1.08507e+07
1.08611e+07
1.02489e+07
7.43137e+06
-7.42367e+06
7.74594e+06
-7.73201e+06
1.03482e+07
-5.63274e+06
5.59577e+06
-3.82034e+06
3.33142e+06
343241
-4.32478e+06
-7.64543e+06
2.27553e+06
-2.27441e+06
-6.54857e+06
7.66269e+06
-1.25107e+07
1.25248e+07
4.99402e+06
6.06963e+06
6.52236e+06
7.66507e+06
9.41963e+06
-9.40996e+06
8.12771e+06
-1.95596e+07
1.95732e+07
8.74724e+06
7.75147e+06
-4.37303e+06
-1.20449e+07
1.21351e+07
-1.21217e+07
4.09061e+06
9.05832e+06
7.36302e+06
-1.69277e+07
1.69407e+07
1.08973e+07
-1.08949e+07
6.62298e+06
-7.01683e+06
-4.99329e+06
-1.54466e+06
5.37045e+06
4.54412e+06
5.97452e+06
-5.59706e+06
706672
-772415
-1.42727e+07
1.42855e+07
1.52975e+06
1.94007e+07
-1.51662e+07
1.51792e+07
1.24494e+07
-1.01608e+07
7.36492e+06
-6.57381e+06
1.0177e+07
-1.78856e+07
1.78986e+07
2.58351e+06
1.03054e+07
-1.4946e+07
1.49583e+07
8.63657e+06
-6.64657e+06
1.06328e+07
20480.9
-20103.2
6.9884e+06
1.76431e+07
-1.76303e+07
6.30895e+06
-423164
5.43457e+06
1.27648e+07
-1.02777e+07
-523681
-1.93882e+07
327727
-327144
-4.10866e+06
9.00749e+06
3.16632e+06
243971
-243275
9.52756e+06
-1.32404e+07
1.32542e+07
2.12866e+07
-2.12728e+07
-1.04844e+07
1.04946e+07
7.46656e+06
795085
-804880
-7.54135e+06
-3.66366e+06
5.90632e+06
443753
-7.37055e+06
-7.20706e+06
1.4287e+07
-1.42736e+07
-1.44029e+07
1.44167e+07
-1.82086e+06
-7.89454e+06
-1.71572e+07
4.96255e+06
-8.65862e+06
-267198
8.06722e+06
8.49869e+06
2.16447e+07
-2.16301e+07
-1.36298e+07
-4.88483e+06
-1.07624e+07
1.07751e+07
-2.30393e+06
-676994
203851
6.04675e+06
-6317.39
6323.51
-3.21129e+06
2.16825e+06
-2.16597e+06
-175486
-1.91224e+07
1.91357e+07
-3.03543e+06
-8.67668e+06
1.00979e+07
8.69051e+06
-1.4003e+07
1.40013e+07
3.42604e+06
-4.38923e+06
-7.19868e+06
954626
-1.89304e+07
1.89436e+07
9.19927e+06
-9.1887e+06
-1.75901e+07
2.92498e+06
-2.20758e+07
2.20896e+07
7.79872e+06
-7.79076e+06
-7.51848e+06
1.38806e+07
-2.01427e+06
-1.26722e+07
1.2684e+07
1.92048e+07
-1.91913e+07
-215283
-1.1447e+06
9.0453e+06
1.66202e+07
7.53368e+06
4.54837e+06
-1.41944e+07
1.42079e+07
-3.3444e+06
5.333e+06
-8.97313e+06
-1.23482e+07
-3.18958e+06
-8.47322e+06
1.23728e+07
-1.23587e+07
1.544e+07
-1.89621e+07
1.89749e+07
108982
-108399
9.14944e+06
8.3259e+06
1.93624e+07
-1.00066e+07
-1.0526e+07
1.05398e+07
-1.06465e+07
7.78108e+06
-1.44864e+07
7.52871e+06
-3.39648e+06
-2.04701e+07
2.04832e+07
-1.31275e+07
-1.36563e+07
1.36682e+07
-2.2275e+07
2.22891e+07
-1.93488e+07
59516.2
-59077.5
6.26423e+06
-2.08711e+07
2.08838e+07
-1.17822e+07
1.17965e+07
-2.97906e+06
2.98076e+06
1.01973e+07
3.71905e+06
1.553e+07
-1.55166e+07
-2.87182e+06
-4.23238e+06
1.39388e+07
-1.39251e+07
-8.11423e+06
-5.71797e+06
1.74253e+07
-1.74125e+07
-7.23762e+06
3.23084e+06
-3.22813e+06
1.09083e+07
46786.7
-6.01714e+06
2.1969e+07
-2.19543e+07
1.46807e+07
1.06256e+07
-1.06112e+07
-8.96263e+06
8.97309e+06
1.59682e+06
-1.59608e+06
3.92513e+06
1.29467e+07
-1.9642e+06
1.96568e+06
-1.23936e+07
1.24076e+07
-4.37502e+06
1.20518e+06
5.51794e+06
1.06589e+07
3.04327e+06
2.55145e+06
1.68316e+07
-1.68189e+07
1.58435e+07
-1.58301e+07
-2.3111e+07
2.31249e+07
-6.09327e+06
-7.2697e+06
7.17221e+06
1.51099e+07
-1.50961e+07
-6.52202e+06
-192711
193750
-2.96694e+06
-1.1108e+07
7.88128e+06
-7.86516e+06
-1.70708e+07
4.28214e+06
-8.87614e+06
-1.88409e+07
1.88539e+07
-5.90451e+06
-8.35084e+06
8.36282e+06
420127
5.64092e+06
-549132
-1.05968e+07
-1.5107e+07
1.51192e+07
-1.55829e+06
-7.04432e+06
1.87146e+07
-1.13534e+07
1.13643e+07
3.67175e+06
1.58114e+07
-1.57981e+07
168349
-5.15115e+06
-4.66806e+06
1.23235e+06
-3.70247e+06
1.36123e+06
-1.48784e+07
1.48917e+07
1.42461e+07
-1.42329e+07
-2.35402e+06
-1.89375e+07
1.89508e+07
-1.73217e+06
2.40009e+06
1.73242e+06
-6.47435e+06
6.48219e+06
7.07606e+06
-5.92424e+06
3.28149e+06
1.31145e+06
-6.86324e+06
5.29474e+06
1.41767e+07
-1.41641e+07
-3.48396e+06
-7.39398e+06
1.16197e+07
-5.1297e+06
-1.61841e+07
-1.29669e+07
-4.6726e+06
3.26089e+06
1.42024e+06
2.56914e+06
-2.04177e+07
2.0431e+07
-1.9393e+07
1.9406e+07
478021
891621
-890143
-8.24662e+06
-3.97104e+06
6.87789e+06
-845578
1.86804e+06
-1.44988e+07
-1.51476e+06
790524
-1.98985e+07
1.99114e+07
-4.6139e+06
1.30901e+06
1.55169e+07
8.1791e+06
-8.17075e+06
-1.32794e+07
1.61575e+07
3.95232e+06
1.13525e+07
4.7359e+06
-1.03132e+07
1.24492e+06
-1.17402e+06
-4.35836e+06
113134
-2.03862e+07
2.03989e+07
1.00183e+06
-1.00676e+06
5.39875e+06
1.04399e+06
1.16288e+07
-1.1615e+07
5.1316e+06
-3.63594e+06
5.06322e+06
-1.28219e+07
1.28361e+07
1.55519e+07
-1.11795e+06
1.06373e+07
-7.05899e+06
314781
-1.24823e+07
500758
-7.45609e+06
-105236
665479
5.12672e+06
545009
5.20218e+06
-9.17352e+06
1.95834e+07
-1.95699e+07
-9.19538e+06
9.20806e+06
5.49574e+06
-5.48703e+06
2.11852e+06
-1.08354e+07
8.77439e+06
-8.21102e+06
8.22016e+06
-1.52902e+07
6.09948e+06
-505229
8.78701e+06
-8.63099e+06
-5.71848e+06
-2.67314e+06
-706691
710974
-8.42499e+06
8.44048e+06
-2.26477e+06
2.26546e+06
1.15329e+07
-1.1919e+07
5.04997e+06
-3.05896e+06
-6.13249e+06
5.68794e+06
135683
-633316
-962872
-5.40405e+06
1.18745e+07
-499389
2.54127e+06
1.0939e+07
1.39387e+07
-1.39375e+07
8.76164e+06
-603682
-2.47721e+06
1.53162e+07
-1.53027e+07
1.47819e+07
-1.47682e+07
-7.67321e+06
-2.74603e+06
-5.22654e+06
-6.90531e+06
6.96148e+06
6.55623e+06
-5.69512e+06
-1.7326e+06
-5.6245e+06
-3.55515e+06
3.49186e+06
-1.89548e+06
-1.8104e+06
513627
-511635
2.47537e+06
-1.03102e+07
1.18282e+07
-2.79472e+06
-1.06181e+07
1.06291e+07
-1.73312e+07
1.1286e+07
-1.12714e+07
150435
-149996
6.46176e+06
1.57055e+07
-1.5692e+07
12246.6
-7.51685e+06
145193
204385
-4.26817e+06
4.26986e+06
-1.37496e+07
1.37631e+07
-3.91815e+06
1.19851e+06
1.03373e+07
1.85793e+07
-1.85661e+07
1.62381e+07
-1.62253e+07
875010
-1.06684e+07
1.06795e+07
7.69014e+06
5.56291e+06
-1.69965e+07
1.70097e+07
2.10688e+06
-5.84813e+06
-6.72015e+06
2.57658e+06
6931.56
-7017.49
-1.23525e+07
1.23666e+07
-1.02141e+07
1.02286e+07
1.86995e+06
-1.86926e+06
-4.81521e+06
906177
-905975
-1.02861e+07
-1.41975e+07
6.53564e+06
1.14838e+07
-1.14693e+07
1.36802e+06
-1.19074e+07
1.33808e+06
-1.1953e+06
-1.30521e+07
-1.14455e+07
1.14565e+07
-5.95785e+06
-3.37552e+06
-1.30053e+07
-2.00318e+07
2.00457e+07
1.18251e+07
1.38689e+07
-1.38569e+07
1.03719e+07
-1.03572e+07
-2399.56
2424.51
6.79893e+06
7.77955e+06
4.69307e+06
1.85056e+07
7.85206e+06
8.04415e+06
-6.78151e+06
-6.56361e+06
1.86858e+07
-1.86728e+07
934174
1.65252e+07
-1.65119e+07
-7.28451e+06
-9.49789e+06
9.50965e+06
-1.59466e+07
7.08388e+06
-1.72664e+07
1.72797e+07
-1.44848e+07
7.6808e+06
1.16914e+07
5.64558e+06
5.72724e+06
-1.38628e+07
1.38766e+07
6.05204e+06
-6.04061e+06
-3.42509e+06
-529575
1.56055e+07
5.88872e+06
-1.57067e+06
-8.27032e+06
8.30067e+06
-3.12562e+06
-2.11265e+07
2.11394e+07
-1.67276e+07
1.67408e+07
1.3856e+06
-3.40353e+06
3.41108e+06
1.8372e+07
-1.28028e+07
8.91161e+06
-1.58088e+06
-1.65722e+07
6.35214e+06
1.75593e+07
297858
1.65701e+06
-464976
-6.41176e+06
-9.56838e+06
1.14227e+07
-1.1408e+07
1.52829e+06
-2.22443e+07
2.22584e+07
1.14791e+07
-1.14657e+07
-8.3322e+06
-4.98592e+06
-2.97607e+06
-1.87467e+06
1.07917e+07
1.76439e+07
-1.76307e+07
1.13084e+07
-3.94475e+06
2.88887e+06
-2.5893e+06
233431
-232650
-1.78892e+07
-244395
1.41077e+07
-1.40953e+07
-6.50028e+06
6.50695e+06
-4.33938e+06
4.34529e+06
-1.14959e+07
9.78799e+06
-564207
1.15047e+07
-1.59164e+06
8.41446e+06
-8.4053e+06
-9.38945e+06
-7.28916e+06
7.29789e+06
-8.93437e+06
1.3296e+07
-1.32994e+07
-2.44505e+06
4.68767e+06