/*--------------------------------*- C++ -*----------------------------------*\
| =========                 |                                                 |
| \\      /  F ield         | OpenFOAM: The Open Source CFD Toolbox           |
|  \\    /   O peration     | Version:  v3.0+                                 |
|   \\  /    A nd           | Web:      www.OpenFOAM.com                      |
|    \\/     M anipulation  |                                                 |
\*---------------------------------------------------------------------------*/
FoamFile
{
    version     2.0;
    format      ascii;
    class       volScalarField;
    location    "3000";
    object      sigmayy;
}
// * * * * * * * * * * * * * * * * * * * * * * * * * * * * * * * * * * * * * //

dimensions      [1 -1 -2 0 0 0 0];

internalField   nonuniform List<scalar> 
27023
(
-1.24371e+07
1.24498e+07
9.9326e+06
-9.92368e+06
-1.16946e+07
1.17065e+07
4.40498e+06
-4.40159e+06
7.0188e+06
-7.01716e+06
6.87939e+06
-6.87449e+06
1.8932e+06
-1.89099e+06
-643584
104672
381725
-1.12386e+06
1.12232e+06
1.75244e+06
-1.747e+06
3.76869e+06
-3.7656e+06
5.6506e+06
-5.64291e+06
636720
-4.05274e+06
-12735.6
-4.43413e+06
-122771
821659
1.73895e+06
-1.7356e+06
-88677.2
-699794
99457.7
2.97395e+06
-2.97003e+06
6.56197e+06
-6.5593e+06
-1.05103e+07
1.05198e+07
-149398
-1.14698e+07
1.14819e+07
1.05234e+06
-1.05312e+06
4.37689e+06
-4.36747e+06
-135692
4.12447e+06
-4.11529e+06
-67891.1
543781
-540323
146287
218216
-50565.4
29153.7
1.09161e+07
-1.09063e+07
52312.4
206994
-116398
-64457.7
886352
1.13442e+06
692020
-3.44013e+06
-173401
3.12504e+06
-3.12104e+06
5.3442e+06
-5.33687e+06
107172
-107257
852728
-850599
-1.2763e+06
1.27698e+06
-2.97962e+06
6.52464e+06
-6.51966e+06
5.64554e+06
-5.63801e+06
12176.3
-12044.3
-1.1085e+06
161377
44957.4
148668
1.03152e+07
-1.03038e+07
1.87785e+06
-413168
-5.30791e+06
5.31392e+06
-3.0861e+06
-145541
-37427
454.534
-111566
357803
5.55047e+06
-5.54503e+06
-129227
4.20477e+06
-4.20106e+06
331231
293257
-135975
4.96543e+06
-4.96131e+06
5.22433e+06
-5.21811e+06
138021
-137778
-971535
-2.09742e+06
-1.90015e+06
285465
29161.1
-1.02606e+07
1.0268e+07
1.90209e+06
-1.90065e+06
9.68147e+06
-9.6703e+06
6.00059e+06
-5.99463e+06
-133206
-1.00132e+06
920504
-973500
176528
-150839
150872
1.09349e+06
1.64479e+06
-1.64468e+06
-5.69121e+06
5.69607e+06
-638693
4.68505e+06
-4.68118e+06
-713615
14309.3
4.85678e+06
1.14136e+06
1.34685e+07
-1.34553e+07
9.87552e+06
-9.86426e+06
-8847.06
-1.79966e+06
-299102
494616
725111
1.65892e+06
-1.65848e+06
166789
-15653.8
-35212.8
328384
-9.1585e+06
9.1672e+06
-5.63494e+06
5.64045e+06
-2.20322e+06
197664
144598
-1.47625e+06
1.47704e+06
130699
241408
-389201
122149
-980457
120744
1.45394e+06
-1.1579e+06
-4.99744e+06
5.00202e+06
181844
-198131
-297269
-5.42915e+06
5.43674e+06
-26046.3
12722.5
-6.40957e+06
6.41512e+06
-2.90473e+06
4317.29
2.95932e+06
-2.95748e+06
-24350
-6.27784e+06
6.28329e+06
-2.19616e+06
678501
-3.63339e+06
-13058.3
13450
-1.02613e+07
1.02722e+07
-1.66992e+06
-108314
89899.5
-89731
93036.8
-92415.1
1.38439e+06
-1.83418e+06
-1.51942e+06
1.52159e+06
-3.29752e+06
415743
45920.7
-551777
552042
-50718.8
-9.13536e+06
9.14214e+06
-45896.1
1.89573e+06
-1.89427e+06
5.65687e+06
-5.64956e+06
3.85862e+06
-3.85784e+06
-359703
1.57392e+06
-1.57297e+06
-67447.4
515895
-515851
97064.5
237570
-3.50869e+06
3.51089e+06
4.24032e+06
62333.1
124658
-495257
1.21456e+06
424164
-3.61252e+06
-81291.6
-389347
-3.09272e+06
3.0951e+06
111757
-1.99828e+06
-6799.68
-130263
5864.56
-123754
1.69504e+06
-1.69426e+06
-1.32693e+06
662255
353054
508927
-508669
4.15089e+06
-4.14751e+06
184114
-1.29963e+06
9.63944e+06
-9.63255e+06
530526
-789124
52789.5
159703
-94017.5
-8.55475e+06
8.56288e+06
-1.17428e+06
1.16571e+06
-224122
-12594.5
-148107
37205.7
-699658
704025
-56885.9
-144318
386166
3.93756e+06
-250914
-160289
-3.23997e+06
3.24272e+06
10377
-10483
67745.5
75445.4
68512.8
-67374
1.91741e+06
491314
-5.5356e+06
5.54093e+06
2.04915e+06
2.24531e+06
-2.24675e+06
3.78576e+06
245392
325776
462457
432925
-430369
5.42342e+06
-5.42309e+06
124377
-2.94153e+06
2.94599e+06
112079
100494
2.34457e+06
-2.34658e+06
-4.86295e+06
14526.1
1.926e+06
-44517.6
-94205
10137.7
4.24632e+06
-4.8667e+06
-2.10492e+06
4.79357e+06
361756
597397
181450
-1.45956e+07
1.46104e+07
-1.13174e+06
723766
5.33044e+06
-5.32503e+06
395367
-413471
109584
-108857
-3.19458e+06
1.41656e+07
-1.4151e+07
315785
280148
-314953
283336
1.45016e+06
-1.44906e+06
176626
-174820
-108257
-2.43282e+06
2.43462e+06
-57973
-2.88222e+06
-162205
163594
-6.30204e+06
6.30698e+06
-200646
142555
-538784
-1.10629e+07
1.10757e+07
-1.49332e+06
1.49424e+06
-832777
-360454
1.04681e+06
135138
-324017
-4.21828e+06
-47560.4
3.41825e+06
47101.8
-3.41402e+06
4.07498e+06
-4.07188e+06
-3.72665e+06
1.61889e+06
104005
37059.1
-5.11564e+06
925087
-3.06489e+06
22756.4
3.02048e+06
142690
89947.5
60481.2
331585
339701
-17134.3
-286889
5.98028e+06
-5.97266e+06
1.64762e+06
-3.37424e+06
-318710
-1.02105e+07
1.02227e+07
-119098
474023
-5.14137e+06
61741.7
5.15327e+06
718608
-714187
-385509
27760
3.16887e+06
303779
-176626
-378398
2.37501e+06
-26431
-2.35197e+06
519745
59019.8
179057
-165618
166527
-264354
-909.304
-783319
-3.92874e+06
358732
-358107
-5.01186e+06
5.02012e+06
-64245.7
-1.57505e+06
9.46722e+06
-9.46122e+06
140418
-136719
2.46266e+06
-2.45948e+06
-250912
252501
-2.17445e+06
53958.3
-323874
251588
671757
-7.18085e+06
7.18652e+06
-6.20887e+06
6.21418e+06
607999
-602908
1.20877e+07
-1.20755e+07
-1.61238e+06
402473
-423810
-169324
2.87416e+06
212635
-128220
-2.5578e+06
2.56005e+06
-100635
111631
174489
-109566
91999.6
-4.48071e+06
-999549
3.6934e+06
-3.68979e+06
179460
56032.2
6.96743e+06
-6.96213e+06
1.60371e+06
-1.60255e+06
56071.9
1.77364e+06
-1.30099e+06
-1.82048e+06
-22198.9
-551350
-7.44694e+06
7.45198e+06
-254005
3.67302e+06
112434
-2.7537e+06
2.75818e+06
1.40181e+07
-1.40034e+07
3.04656e+06
-271598
-245727
-4.70036e+06
4.71052e+06
36270.8
-757362
3.67285e+06
-3.66405e+06
-3.96495e+06
5.51749e+06
-5.51326e+06
6.1103e+06
-6.10525e+06
-5.17342e+06
-1.12872e+07
1.12961e+07
-226555
-196615
464886
-464223
-296246
137278
-136659
-506896
-4.64074e+06
4.64518e+06
-1.19838e+06
1.19325e+06
-736104
1.4809e+07
-1.47963e+07
-259827
32822.2
-543569
-1.35942e+06
6.16927e+06
-6.16012e+06
-2.493e+06
2.49447e+06
-79477.2
175586
4.23443e+06
-34991.7
-4.77524e+06
-4.47552e+06
-89933.1
-9.80281e+06
9.80927e+06
142888
-164644
164691
28735
-5227.77
-5.4399e+06
5.4458e+06
-3.47803e+06
-168406
163090
220375
-735198
184610
-4.00601e+06
-171264
4.09296e+06
-4.08327e+06
-62939
84544.9
1.81413e+06
-1.8127e+06
166811
-1.56188e+06
1.5657e+06
-249239
1.55191e+07
-1.55034e+07
-6.45709e+06
6.46252e+06
-1.65628e+07
1.65785e+07
-232485
-4.12244e+06
4.09755e+06
134280
-1.336e+07
1.33731e+07
93793.3
1.60638e+06
-1.94845e+06
-20596.5
-53053.6
131437
-796603
-69667.2
5.4869e+06
-5.47976e+06
-136129
5.40537e+06
-5.39775e+06
277626
-5.44975e+06
5.45782e+06
-404370
40405.2
-1.54001e+06
1.54207e+06
428101
-427629
78402
2.8515e+06
4.5064e+06
3.90781e+06
-3.90241e+06
892644
-892138
-299533
-173862
155558
-73754.8
3.15638e+06
-3.15343e+06
-306688
3391.38
-72625.3
73128.3
-3399.89
-233074
1.67176e+06
-1.66566e+06
-1.11707e+07
1.11822e+07
-9.90774e+06
9.91907e+06
1.58382e+07
-1.58224e+07
1.06092e+06
5.61652e+06
-5.60809e+06
-154959
39579.3
-5.86017e+06
5.86883e+06
-144471
4.47633e+06
-4.46955e+06
109811
-1.25906e+06
12073.4
-1.66583e+07
1.66742e+07
30474.8
-64831
-110096
148002
-4.44001e+06
4.44459e+06
633639
4.65576e+06
-2.56496e+06
2.56653e+06
-231876
233244
582576
-580885
338677
135245
122751
-122735
-3.64419e+06
-4.63555e+06
-940819
-620892
3.41558e+06
861730
-72862.1
-1.73348e+06
-1.48201e+06
47417.8
2.46879e+06
155339
-258843
-652503
434536
553048
-550478
5.49657e+06
-5.48901e+06
2.67029e+06
-377743
7083.88
154690
65523.3
-54388.2
-4.90933e+06
-166146
429255
11985.4
-1.32139e+06
7.40571e+06
-7.39699e+06
4.51075e+06
63649.4
-13433.8
-51689
3.71917e+06
-3.71601e+06
-98735.1
99746
459975
-456912
145214
-681131
-639813
-551740
-4.74019e+06
4.75545e+06
277282
7.87624e+06
-7.87264e+06
-631692
631968
-271848
4.71496e+06
-4.70963e+06
1.01082e+06
-42197.6
-42828.3
181062
-2216.89
82706.1
570917
-570630
-76516.8
-1.1166e+06
5.31608e+06
-5.31144e+06
-75898.3
78295.4
-3.17362e+06
-72290.9
-674585
731946
120779
979743
43676.2
31722
-95188.6
-2.37444e+06
-101554
-926828
3.30113e+06
-3.29022e+06
-58664
59453.1
89366.8
390591
-4.11163e+06
4.11554e+06
-102657
-326354
-359515
809116
-134348
1.50563e+07
-1.5041e+07
-298646
4.87647e+06
-4.86489e+06
-209961
210250
148733
-89457.6
-895582
95527.9
7.3492e+06
-7.34464e+06
-183370
281395
200733
65953.5
152538
-3.77084e+06
-1.47356e+06
-1.7504e+06
307670
73703.4
-73783.8
7.28869e+06
-7.28331e+06
112417
-158411
-493338
-453390
377463
-377602
24479
89915
-10355.7
99524.6
286175
2.29921e+06
-2.29925e+06
-829387
-255365
4.34224e+06
-4.33851e+06
-439496
41357.6
680747
1.17305e+06
-1.17246e+06
-3.43449e+06
3.44556e+06
-4.15081e+06
-7.65741e+06
7.66605e+06
137235
-78732.8
-91655.4
-185226
540040
-539785
239775
-2.62118e+06
2.62559e+06
26324.5
-25397.2
-3.67314e+06
3.79326e+06
1.26175e+07
-1.2605e+07
-5.13954e+06
5.14421e+06
698918
-187655
4.23295e+06
-4.2292e+06
-111668
-569954
1.00494e+07
-1.00383e+07
814859
-814651
-5.48797e+06
-4.29777e+06
4.30195e+06
-266332
266192
5.49374e+06
234450
203732
-315057
1.23513e+06
-1.23541e+06
35468
426054
911112
-29575
3.10094e+06
4.89325e+06
-142606
4.66806e+06
-4.65829e+06
54200.6
1.7467e+06
-10991.8
377458
-378184
-60752.9
-224048
676402
-674570
-3.72263e+06
-4.41372e+06
-224101
4.67758e+06
-4.6739e+06
-5.54263e+06
-245602
-5.25986e+06
-175621
1.34574e+07
-1.34443e+07
151967
2.68088e+06
5.54016e+06
-97537.8
128387
5.2716e+06
165733
9.22165e+06
-9.21065e+06
-244855
246147
38036.5
-1.93188e+06
31989.5
6.17234e+06
-6.16699e+06
-2.59617e+06
2.59855e+06
-116617
288655
1.23529e+06
-1.2359e+06
-61084.6
3.62022e+06
-3.61801e+06
-349839
-1.44041e+06
116971
-52538.4
176221
-108636
771144
-994461
55321.7
411158
-410977
-314108
459285
749458
-239392
110314
-460286
-662989
-192783
375383
423515
2.05237e+06
-3.53678e+06
2.75776e+06
-160696
-183916
-170591
-1.01615e+07
1.01685e+07
3.48045e+06
-2.0231e+06
2.02447e+06
-811104
-1.25742e+06
5.88638e+06
-5.87766e+06
1.30751e+06
1.86443e+06
-1.86055e+06
-2.98749e+06
-83845.7
1.4523e+06
-3.58098e+06
4.93723e+06
2.9341e+06
-140757
3.97141e+06
192789
118949
1.29197e+07
-1.29061e+07
414304
-1.3663e+06
2.52792e+06
-2.52775e+06
4.99574e+06
131840
332724
254161
-2.0654e+06
2.07516e+06
-24102.9
-935947
-338375
-1.45032e+06
1.45187e+06
-164915
5386.78
317927
4304.89
-1.86941e+06
-83918.6
3.37904e+06
140131
-1.91614e+06
1.92227e+06
18517.7
-183258
470183
458670
46598.6
-7.03077e+06
7.03566e+06
430668
-1.41107e+06
56302.7
-1.04781e+07
1.04856e+07
-1732.28
995179
-183138
-2.79385e+06
2.79646e+06
-917719
-4.97613e+06
5.01832e+06
7.93319e+06
-7.92516e+06
-5934.88
-930586
892551
-890695
-3.45804e+06
1.67636e+06
-232731
525655
-525463
-467393
5.30166e+06
-5.29808e+06
-292069
-257152
-1.10574e+06
-6.26652e+06
-3.36148e+06
-66820.9
6.27014e+06
358925
470021
-1.40204e+06
-2.19676e+06
2.20369e+06
3.16557e+06
-3.38943e+06
289406
3.59452e+06
205007
-98157.5
-27222.4
-196962
-2.61664e+06
-165938
29771.1
860078
-968078
-117319
-212562
627336
-158769
117553
-1.41494e+06
141281
175668
-1.4374e+07
1.43866e+07
607121
-479090
-1.86894e+06
1.87361e+06
2.19919e+06
-2.19754e+06
-81510.8
-226900
66307.8
-1.43742e+06
1.44259e+06
356788
-356746
145268
366391
-21996.6
-952468
-397091
-269721
-867287
260929
2636.32
5.65415e+06
-5.64548e+06
3.85944e+06
-3.75886e+06
1.77965e+06
439592
470967
-470444
973553
1.43034e+06
3.59107e+06
60453.5
-127775
165989
24734.2
-226520
-114121
-238105
-101031
-143691
5.84115e+06
-5.83252e+06
-194097
1.17552e+06
2.96836e+06
-70691.6
-66143.6
710777
-709755
-3.19448e+06
12794.2
-5.6726e+06
5.67468e+06
6.32704e+06
-6.32412e+06
813410
-316838
179465
487754
-6.69392e+06
6.69945e+06
2.74149e+06
-2.74206e+06
1.27062e+06
445482
-445309
-415511
152938
-774612
211708
-210279
-3.28044e+06
-1.97117e+06
229478
-367353
-5.75263e+06
5.75821e+06
3.6049e+06
-96926.4
92918.9
8496.63
306932
-106833
4.08154e+06
-4.06555e+06
-455316
455351
-889393
-4.55779e+06
4.57865e+06
-2.5329e+06
2.53508e+06
1.68583e+06
28808.4
350143
167123
4.25748e+06
-4.24894e+06
-762349
-1.50486e+06
-33980.9
-3469.64
-1.21373e+07
1.21507e+07
157427
812470
52009.6
2.35329e+06
-2.35152e+06
-170683
-1.05917e+06
-46939.1
-63231.6
4.61114e+06
-4.60721e+06
99349.5
4.59707e+06
-4.5898e+06
158681
-62622
190579
-170490
4.0273e+06
486562
58831.4
-377677
-81433.1
1.66564e+06
-1.55233e+06
450759
-447390
100083
5.01441e+06
-5.01165e+06
7.12442e+06
-7.11903e+06
-76557.4
6.47522e+06
-6.47014e+06
-1.03153e+07
1.03242e+07
-145557
145471
12019.3
355963
-355826
-396351
615525
-1.86791e+06
-1.09942e+06
-137012
74047.3
39014.9
-37091.7
-3.39895e+06
3.40278e+06
844837
-114576
134579
155956
-299612
116458
-112756
-393163
53088.7
4.84737e+06
-4.84598e+06
75096.1
-4.22237e+06
-47809.6
-79715.9
-2.29108e+06
-1.94194e+06
4.35621e+06
-4.35054e+06
4.01745e+06
-147688
-701093
777943
-242889
212791
-76685.2
-5.22847e+06
5.23786e+06
99875.6
-1.27781e+06
3.25584e+06
-4.58442e+06
5.12206e+06
79616.7
4.58374e+06
-137879
302731
2.501e+06
2.54687e+06
-1.59733e+06
932685
160945
9705.82
-40139.4
-15145.3
325042
-3.2515e+06
82452.6
250966
-250294
75169.2
1.0418e+06
-1.56423e+06
-1.84536e+06
338747
-6.18497e+06
781712
-225282
118023
166846
6.18616e+06
331367
-704978
700606
-120642
34688.6
-31076.1
-143399
728826
-726333
142124
-6.49567e+06
6.50052e+06
215112
6.51674e+06
-6.51096e+06
682487
1.47062e+07
-1.46913e+07
187901
127045
-485386
208077
-207686
355577
-12238.7
-182820
-330254
7.03292e+06
-7.02766e+06
-4.10027e+06
1.37021e+06
1.1519e+06
-127827
2.3316e+06
-2.32891e+06
498776
-495498
672295
30927.4
1.3596e+07
-1.35828e+07
5.12049e+06
-5.11508e+06
-6001.44
354913
1.52305e+06
5.91396e+06
-5.90709e+06
-142088
-798765
803141
84108.5
-78017.3
-4.72658e+06
4.73085e+06
126413
640383
-640262
6.96747e+06
-6.9611e+06
-469616
-103607
-742387
36289.4
3.25937e+06
570928
-30635.6
1.745e+06
4.3834e+06
-106482
705052
-95155.3
407410
-407017
-2.17127e+06
-1.0331e+07
1.03394e+07
4.40958e+06
-4.40613e+06
-1.20331e+06
-5.31034e+06
5.31954e+06
2.02715e+06
-2.0174e+06
-746559
2.21246e+06
-2.19912e+06
78617.3
-185027
186170
44018
-90831.1
-373373
177757
3.90809e+06
-3.96087e+06
202287
127765
-1.95446e+06
-164194
-253802
256051
-3.08829e+06
3.09048e+06
46139.8
292798
6.17511e+06
-6.17051e+06
-89284.3
3.40967e+06
102972
-956247
803914
4.2586e+06
-307472
-290164
-6989.38
-5.45521e+06
5.45939e+06
-1.88462e+06
1.89115e+06
-1.49654e+06
1.49608e+06
1.33967e+06
-1.32707e+06
-25758.4
178625
45222.9
176275
-3.40847e+06
-684285
3.55802e+06
-3.55756e+06
-33900.1
70194.9
1.52207e+06
-4.6869e+06
4.69455e+06
2.7293e+06
418491
-2747.88
4.48194e+06
-4.47528e+06
-4.70308e+06
-149703
-1.04301e+06
1.04194e+06
-2.65112e+06
-5.6018e+06
5.61035e+06
-243503
-2.03312e+06
-4.55577e+06
-118014
-733032
658036
47374.2
1.32342e+06
8.43719e+06
-8.42614e+06
-46715.2
1.04003e+07
-1.03892e+07
991723
4.73996e+06
-4.73396e+06
-1.29135e+07
1.29273e+07
-81261.8
-1.39468e+06
1.39804e+06
-756545
756582
62614.7
-3.2234e+06
148370
1.17856e+07
-1.17736e+07
-96615.2
-311466
-3.97754e+06
3.97239e+06
122170
9.25302e+06
-9.24615e+06
1.64526e+06
-78991.7
-8095.26
8299.38
-906298
910324
-7.05981e+06
5.25796e+06
-5.25258e+06
173737
2.29598e+06
-2.29725e+06
3.1945e+06
-3.19327e+06
245348
3.20675e+06
8.16944e+06
-8.16319e+06
-3.10478e+06
3.10684e+06
1.62954e+06
150699
-9.3879e+06
9.39342e+06
567883
168366
-167155
134796
-134861
-2.8284e+06
1.07024e+07
-1.06939e+07
476431
-4.7325e+06
4.7374e+06
-2.42575e+06
-769913
-1.18379e+06
1.18439e+06
-7.03948e+06
7.04513e+06
-1.47135e+06
304190
-144846
2.50177e+06
-173169
-1.00326e+06
2.70203e+06
3.74552e+06
68530.3
-238333
-1.875e+06
1.87601e+06
483384
-483076
171878
-51454
5908.77
217051
157382
-15110.7
-28556.2
66999.5
61112.8
2.17626e+06
-2.17143e+06
-1.27226e+07
1.27361e+07
865391
20809
-3.20367e+06
-155324
-166344
1.101e+06
-1.82733e+06
-781340
2.55927e+06
-2.55577e+06
249284
-3.54651e+06
3.5532e+06
-1.67801e+06
-6.65905e+06
6.66386e+06
-5.63953e+06
5.64462e+06
-1.85493e+06
-5.6168e+06
5.62499e+06
1.82058e+06
-1.81956e+06
5.8958e+06
-5.88914e+06
1.52375e+07
-1.52228e+07
-46809.3
1.64656e+06
915401
-311968
-1.08866e+07
1.08991e+07
-5.67417e+06
5.68208e+06
-44883.8
-338498
-1.70037e+06
200890
-200824
1.05285e+06
178545
-271037
-1.53915e+06
-337684
-82263.8
-332797
3.43827e+06
-3.43371e+06
-313621
-441132
737728
2.57155e+06
-2.57055e+06
85686.5
526426
1.52008e+06
-866737
-158121
102225
-57075.4
1.11368e+07
-1.11266e+07
2.14128e+06
-2.13956e+06
9.99542e+06
-9.98474e+06
-39750.8
86759.4
-151256
1.77262e+06
-2.51812e+06
90684.8
-56322.7
196949
879737
-1.03044e+06
1.02964e+06
5.57063e+06
-5.57037e+06
581160
2.05132e+06
-842484
840643
1.64584e+07
-1.64428e+07
52285.7
-51883.6
-1.86301e+06
-84860.6
129486
561648
-180861
176199
-508842
509180
166552
-1095.55
6.42472e+06
-6.42063e+06
-311752
207241
511820
-220977
-240318
153906
3.86731e+06
-3.91539e+06
1.02801e+07
-1.02691e+07
-209703
1.76014e+06
-1.75905e+06
6.96894e+06
-6.96392e+06
-115277
4.23718e+06
-4.26202e+06
-8.26636e+06
8.27538e+06
-1.50968e+06
-189442
-5.25073e+06
-2.79834e+06
2.80209e+06
-9.09275e+06
9.09828e+06
120496
5.35592e+06
-5.27481e+06
5.28362e+06
134035
-198474
-3.35759e+06
3.36014e+06
-37737.5
115492
-139099
502623
-5.72139e+06
-5.24706e+06
5.25435e+06
2.86703e+06
5.05189e+06
-5.04568e+06
1.02664e+06
1.87275e+06
5.72303e+06
-4.95326e+06
4.9624e+06
-1.41979e+06
2.66111e+06
39247
1.24732e+06
-1.24671e+06
737311
1.19482e+06
3.71005e+06
-3.70381e+06
64449.8
-1.70604e+06
1.70653e+06
7.0551e+06
1.82657e+06
-1.78102e+06
2.03007e+06
-2.02639e+06
1.21038e+06
-965561
-180807
-179154
155060
-1.74286e+06
-485727
-105068
2.88622e+06
129076
-1.39092e+06
9.06286e+06
-9.05615e+06
-3.23909e+06
3.47575e+06
-3.47575e+06
5.97166e+06
-5.96572e+06
658153
-6.48105e+06
6.48662e+06
887626
533596
149745
-1.97136e+06
1.97159e+06
656671
-3.10254e+06
3.10618e+06
-3.52746e+06
14366.7
4.40585e+06
-260810
-119037
-284069
-944057
946986
1.22323e+07
-1.222e+07
52100.7
128671
2.20176e+06
-5.86792e+06
5.87448e+06
-25525.4
2.77893e+06
-2.77659e+06
246658
-217854
217827
-310528
2.50677e+06
-592728
-1.05502e+06
961380
2.51397e+06
-2.5101e+06
-2.65805e+06
162253
289505
-12863.6
-177539
-618282
-22041.7
-653904
328765
-1.10789e+06
2.52094e+06
-2.51946e+06
226043
1.01078e+07
-1.00989e+07
277172
-271358
336358
-253151
281308
-2.4019e+06
4.34912e+06
73006
118796
30458.9
-27701
836023
-12736.5
-290669
32386.5
-1.7499e+06
1.75089e+06
5.10836e+06
-5.10604e+06
1.28364e+06
-818560
1.91411e+06
-2.81516e+06
2.81878e+06
-214619
-15763.4
70932
-5.21892e+06
5.22479e+06
1.86916e+06
219153
-245502
106159
-75436.4
-246471
248778
222655
-3099.4
-332885
-1.93849e+06
435714
4.38727e+06
-4.37923e+06
-5.99388e+06
6.00195e+06
2.6467e+06
59095.3
426387
-426250
-5.95213e+06
5.9604e+06
9588.13
2.32032e+06
123119
1.06858e+06
152154
84665.7
556210
299710
-359137
-1.65959e+07
1.66117e+07
-77290.6
1.24491e+07
-1.24358e+07
2.36039e+06
-2.36331e+06
4.166e+06
-522192
417307
-1.73869e+06
1.37662e+06
-22931.4
-1.83427e+06
-3.05916e+06
6.24496e+06
-6.24482e+06
-3.1503e+06
3.06152e+06
-2.57805e+06
2.58171e+06
1.32678e+06
-251199
-13886.6
338634
1.14677e+07
-1.14554e+07
342502
-5.31267e+06
5.31759e+06
3.2853e+06
125257
-2.14714e+06
158957
5.3321e+06
-5.32223e+06
1.14039e+06
160645
20826.1
-171753
172428
-346436
344543
3.66781e+06
-3.90906e+06
-108036
-843953
902665
250442
5369.02
-119931
206625
-9189.02
-5.85976e+06
5.86841e+06
-167670
275801
-5.15477e+06
5.16174e+06
105529
-5.2521e+06
-30738.8
-1.71779e+06
5.2637e+06
-29927.4
30836
94106.7
4.28274e+06
-6.32451e+06
6.33226e+06
3.91104e+06
-237643
-13686
76124
-74678.9
1.58895e+06
6.44625e+06
-6.4407e+06
-108374
65582.9
23995.8
228607
-64820.3
-263784
-275819
1.27371e+06
-1.27106e+06
229387
-93995.3
748733
912377
-910875
4.52928e+06
-4.57424e+06
4.5825e+06
5.30505e+06
-5.30077e+06
-1.63196e+07
1.63352e+07
234247
1.68435e+06
-1.73678e+06
-144665
95215
2.48671e+06
-484115
-2.55349e+06
-3.5698e+06
225041
-204317
-3.33604e+06
3.34006e+06
-305794
-3.65156e+06
361568
1.66284e+06
-162170
-62845.6
-112217
172907
6.69075e+06
-6.68608e+06
-201972
22793.7
-1.31789e+06
1.31216e+06
-277819
-217256
-14431.1
-4989.63
-35355.5
35309.3
363930
1.81632e+06
-1.81251e+06
-201398
-6.13014e+06
6.13615e+06
-281026
-4.16577e+06
82725.7
4.16056e+06
137501
-125531
511493
-1.7686e+06
-585966
-20789.2
-6.00226e+06
6.00812e+06
352406
-276295
-67778.2
373303
-3.92774e+06
3.93043e+06
1.56823e+07
-1.56664e+07
-3.08743e+06
-490242
-437226
-5.53585e+06
5.54363e+06
112329
-111280
-106829
-245383
3.35875e+06
118157
3.08807e+06
1.28077e+06
-4.97065e+06
4.9791e+06
-737007
80523.3
-3.66481e+06
-154020
-293731
-2.83076e+06
2.42904e+06
-2.42581e+06
-460742
-219176
219212
338703
-336790
163121
3.82945e+06
-60217.8
-4.00754e+06
-729312
731646
-630728
3.25987e+06
-173417
3.67356e+06
-182352
-1.0306e+06
1.03121e+06
282391
-1.50928e+07
1.51061e+07
-3.77034e+06
3.77335e+06
61321.2
248760
-246962
-10986.2
-141737
141778
-3.04292e+06
3.04767e+06
-8.96482e+06
8.96994e+06
14815.9
1.622e+06
1.36746e+06
-1.36714e+06
-136164
-121229
4.84395e+06
-4.8356e+06
-1.05299e+06
-9814.14
5.41482e+06
-5.40924e+06
-2.17664e+06
5.28495e+06
-5.28197e+06
124583
80731.3
-1.07803e+06
5.73134e+06
-5.72715e+06
88527.5
1.98917e+06
-1.98436e+06
-5.32025e+06
5.3289e+06
3.5575e+06
-3.55588e+06
2.05489e+06
1228.32
-2.851e+06
2.85316e+06
-2.52685e+06
2.53013e+06
-1.63493e+06
-640581
984701
631299
29172.7
997198
9.13835e+06
-9.13165e+06
4.60971e+06
-4.60376e+06
-2.98415e+06
2.98605e+06
-97553.7
-1.48207e+06
1.3009e+06
3.54351e+06
-3.53913e+06
-3.65863e+06
-549634
552846
-93206.7
-151730
2.0888e+06
-2.07332e+06
-311434
-250769
181670
-41260.6
41913.3
-124228
-4.32724e+06
4.32027e+06
96634.5
1.14249e+06
-334931
148329
-7.4364e+06
7.44085e+06
182215
-4.00708e+06
391235
-1.07359e+07
1.07472e+07
524740
4.37958e+06
-4.37415e+06
-188671
-2.84499e+06
-688555
28911.5
-2.15512e+06
-32338.2
-862657
862520
367449
-368605
452814
-3.3221e+06
3.32482e+06
-1.76282e+06
-1.28296e+06
1.76665e+06
-3.01256e+06
3.02143e+06
2.21836e+06
-1.04527e+06
-34514.8
570204
-2.25477e+06
1.68291e+06
281255
-284282
528084
-3.59668e+06
-235685
-1.41228e+06
-81298.3
237154
-383891
941004
146278
-93283.8
-2.63333e+06
2.6352e+06
-576698
576999
-216826
1.55534e+06
-1.53874e+06
-795748
-1.46327e+06
2.26891e+06
-215596
1.08843e+06
42826.5
-558120
651527
-892249
892745
-1.64136e+06
-83060.8
200056
1.62776e+07
-1.62613e+07
21474.3
166067
802102
48256.8
146075
-879390
406543
152374
-2.2684e+06
39164.1
28793.4
-28887.5
1.6696e+06
-1.70304e+06
203832
421199
5.02975e+06
-5.02851e+06
1.89429e+06
160524
1.65186e+06
-4.24678e+06
4.25465e+06
36651.3
202588
4.54212e+06
-2.19286e+06
332130
-118050
356993
-91617.7
68040.2
76515.5
105640
102744
1.77066e+06
-15350.4
203833
-203151
-1.67611e+06
1.67993e+06
378392
-365947
239833
-232304
2.8493e+06
-7.97336e+06
7.98445e+06
-75403
193033
-36375.2
2.65592e+06
-4.31221e+06
-3.25216e+06
195988
-963940
962718
-2.69597e+06
2.69968e+06
-6.13081e+06
6.13201e+06
38235.5
-5.44315e+06
223982
-167691
-187609
3.2319e+06
-70430.9
-172035
319603
-14534.4
5.4501e+06
-242022
732629
5.34796e+06
-57616.1
62938.7
-195827
336703
-1.12624e+06
1.23154e+06
-1.23128e+06
4.50927e+06
-4.50261e+06
-3.01116e+06
529832
-325499
-2.08013e+06
2.08372e+06
2.10266e+06
254904
-133181
124045
95208.7
-88141.4
-81209.6
-705452
1.02071e+06
-1.00995e+06
196429
-4.17807e+06
-106712
-166736
-5.27931e+06
5.29148e+06
-593158
3.81093e+06
-3.80406e+06
269222
-268532
-287171
4.50205e+06
-4.4958e+06
-85826.1
-275238
-120331
-959616
-802609
810748
-4.69471e+06
4.70215e+06
89747.7
454740
4.24548e+06
5.7503e+06
-5.74507e+06
5.69011e+06
-5.68291e+06
717093
-5.09136e+06
5.09778e+06
3.01381e+06
-148601
-1.51766e+06
1.51848e+06
-1.95705e+06
194971
190614
1.09173e+06
57287.6
-57494.6
-4.12119e+06
4.1287e+06
-2.68704e+06
2.69166e+06
5.08818e+06
-5.08637e+06
90206.8
2.79089e+06
-2.78985e+06
-238591
-15262.5
-18662.2
3.71705e+06
-3.71061e+06
506035
-10637.7
803661
-358558
-1521.08
-1.26559e+07
1.26684e+07
-479922
356109
-189005
-5.74246e+06
5.74754e+06
48456.2
334522
-340384
4.2907e+06
-4.28157e+06
12334
-12139.8
2.58356e+06
2.3591e+06
2.50715e+06
96328.6
3.89148e+06
2.54714e+06
-2.57941e+06
-2.09095e+06
1.3597e+06
-1.35884e+06
399128
303727
-302835
284273
-1.52456e+06
1.52484e+06
30401.1
-65757.9
-5.24933e+06
5.25547e+06
-309078
1.97713e+06
5.16811e+06
1.87997e+06
-58622.8
-4.60612e+06
4.61409e+06
1.22822e+06
-1.21402e+06
-1.50956e+06
-32821.5
10478.9
142222
-276553
348175
-360869
-1.52011e+06
-376071
376392
-5.35829e+06
5.36486e+06
-181843
-657466
637549
133386
62784.7
280340
-263970
43466.8
-47005.9
65350.5
-70749.8
11720.2
1.07073e+06
-3.04813e+06
-167982
3.89423e+06
-3.88703e+06
566526
-3.24812e+06
3.25076e+06
1.08595e+06
-1.08808e+06
-3.99163e+06
-142746
-849922
43090.8
129650
1.11172e+06
-1.11122e+06
-227876
-49528.8
1.73724e+06
-207214
854113
-851085
-56378.8
263176
5.83626e+06
-5.828e+06
-1.22281e+07
1.22408e+07
-2.29369e+06
2.2966e+06
-5.20893e+06
662335
-183739
5.19395e+06
202571
3.69775e+06
-3.67157e+06
348000
-5.57044e+06
5.58093e+06
-3.54832e+06
-232358
228189
32668.1
2.4853e+06
196118
3.83908e+06
299378
-1.09001e+06
-121089
-718374
718543
4.40844e+06
-6.19424e+06
6.20275e+06
-1.98549e+06
1.98695e+06
1.03379e+06
3.02913e+06
-5.93761e+06
5.94577e+06
-130454
10059.5
2.07955e+06
4.14333e+06
-2.44493e+06
277765
7.47855e+06
-7.46782e+06
106803
9.16743e+06
-9.16291e+06
-77541
77542.2
-4.36504e+06
-4.97339e+06
-60918.9
-3.71352e+06
4.95707e+06
-220328
1.12083e+06
-1.11782e+06
4.82421e+06
-4.81667e+06
-303944
-2.17964e+06
-416167
263899
-3.01307e+06
217262
-215840
5.49431e+06
53094.4
-31078.6
31006.4
6610.82
-2.82245e+06
2.82693e+06
56308.3
-224516
224408
1.26305e+06
1.97714e+06
-1.97416e+06
-173079
2.74794e+06
381697
1.36577e+07
-1.36434e+07
96048.4
-104162
-36764.3
-148777
-720416
95074
350709
-943816
-6.15687e+06
6.16221e+06
250087
220706
44130.6
57113.4
-2.58878e+06
121395
229445
-269949
-1.07381e+07
1.07477e+07
-5.7201e+06
-107589
5.7028e+06
1.36089e+06
1.49979e+07
-1.49834e+07
182855
-6.01052e+06
-279793
5.95688e+06
1.09359e+06
-1.09738e+06
-937645
937324
137697
-146988
257265
-103651
3.71562e+06
-3.70841e+06
-62753
-2.18332e+06
-480327
383845
743173
4.18938e+06
-4.18974e+06
-1.12294e+06
-255464
-648266
-5.77606e+06
5.7821e+06
4.4258e+06
-4.4261e+06
-25640.2
3004.99
5096.43
-108410
-579993
-392456
695418
-695009
68364.6
27059.2
882907
98093
152972
-1.42407e+06
1.42516e+06
68827.3
2.7079e+06
-64966.3
-4.87092e+06
4.88067e+06
2.06685e+06
-2.06162e+06
-3.18134e+06
-164428
3.91868e+06
-3.92101e+06
-664691
-2.72536e+06
214522
627047
-1.96455e+06
6.12335e+06
-6.11537e+06
-111341
-2.45196e+06
-1.18619e+06
1.18177e+06
1.17169e+06
-1.16924e+06
250562
6.02402e+06
-6.01552e+06
1.03611e+07
-1.03498e+07
307895
-302199
-3.02565e+06
-1.43003e+06
839957
-179236
5.01362e+06
-5.01078e+06
42988.5
-6.03437e+06
6.04501e+06
288554
432067
-18647.2
2.35223e+06
-2.35525e+06
33919.5
-534286
-48020.3
143061
-3720.13
-1.95689e+06
1.95804e+06
-275634
852510
2.13448e+06
7.28903e+06
-7.28372e+06
-1.52692e+07
1.52839e+07
-3.27441e+06
-2.04284e+06
-5.47301e+06
5.48393e+06
-1.62684e+07
1.62838e+07
-4.14571e+06
4.14882e+06
-2.9463e+06
2.94888e+06
716551
1.09287e+06
1.34251e+07
-1.34129e+07
107052
1.20874e+06
-1.20815e+06
1.65962e+06
164260
223696
1.62125e+06
-1.62132e+06
4.58483e+06
-2.9896e+06
281358
-146427
4.5239e+06
2.02607e+06
-92893.4
237403
-1.46617e+06
6.4515e+06
-6.44592e+06
8.25226e+06
-8.24695e+06
3.17281e+06
-3.16945e+06
-4.57777e+06
1.32952e+06
-1.32765e+06
-1.11629e+06
1.11275e+06
44547.4
43698.2
-194135
177746
5.62242e+06
-5.61277e+06
-2.59035e+06
2.5923e+06
1.6614e+07
-1.6598e+07
91520.2
-512094
-66732.6
336752
-309219
-1.47275e+06
1.47718e+06
-36605.5
-64791.1
-1.77993e+06
63820.3
-1.19959e+06
-4.51728e+06
-5.72337e+06
5.73002e+06
-1.88837e+06
140135
-56713.6
-4.48338e+06
4.49253e+06
268789
3.61561e+06
-3.60828e+06
-47436.6
-942796
-687039
-357421
357503
-387179
1.13434e+07
-1.13317e+07
-2.76971e+06
669705
400344
2.53778e+06
-39980.9
-24548.4
168263
-167264
-1.43079e+06
70679.5
-730409
-1.30713e+06
4.46405e+06
4.70412e+06
213078
2.05848e+06
-1.65889e+06
1.61277e+06
101717
-95981.1
-5.63761e+06
1.53992e+06
1.03972e+06
37308.1
-207935
1.30395e+07
-1.30267e+07
1.8229e+06
5.62177e+06
579237
-577282
-872669
808833
-808848
-4.38903e+06
4.39822e+06
500144
-1.56052e+07
1.56196e+07
199601
3.43998e+06
70863.2
37821.8
213135
2.36002e+06
-2.36057e+06
185187
5.05826e+06
-5.0537e+06
-140109
100471
39852.9
-39595.4
-1.89961e+06
-675601
-311310
1.27472e+07
-1.27335e+07
1.96928e+06
-163224
696305
322417
1.23229e+06
-1.23147e+06
6.78317e+06
-6.77769e+06
49288.4
-279335
-1.18554e+06
217858
1.03846e+06
1.82971e+06
366478
-367990
395615
-71970.1
153314
90126.7
-313817
93785.7
206657
-325913
600987
8.62428e+06
-8.61346e+06
-52710
-4.85999e+06
4.86921e+06
-1.6406e+06
1.64088e+06
88316.4
-4.57062e+06
4.5784e+06
-2.2737e+06
-2.88579e+06
4.84257e+06
622293
287799
-302174
275645
-5.91458e+06
5.92333e+06
1.50736e+06
128834
-127735
1.46172e+07
-1.46023e+07
-2780.06
-5.61752e+06
5.66964e+06
46777.6
288998
276371
4.18595e+06
-4.18211e+06
-1.95055e+06
-68920.9
2.75985e+06
-2.75737e+06
-167127
3329.67
-59548.5
1.59808e+06
-6.22286e+06
6.22942e+06
1.44337e+06
202057
10721.1
-1.12256e+06
7.05073e+06
-7.04162e+06
-481.002
5.27665e+06
-5.12952e+06
-3.333e+06
6.79972e+06
-6.79184e+06
5.13705e+06
193174
1.07712e+06
-203812
1.38657e+06
-1.38591e+06
865147
-585842
5.06188e+06
-5.05635e+06
4.01317e+06
-4.01073e+06
189978
133645
-5.20534e+06
59574.9
-9.11421e+06
9.12486e+06
-10817.6
259000
44701.9
-49203.1
-1.99718e+06
-4.67287e+06
4.68602e+06
184219
26422.7
-397804
364874
-287595
1.15162e+07
-1.15037e+07
-201843
-20260.8
4.31056e+06
-4.30678e+06
-910659
-43954.4
-363987
-44158.9
20521.7
-2.17193e+06
-241753
-150362
2.26759e+06
47941.5