/*--------------------------------*- C++ -*----------------------------------*\
| =========                 |                                                 |
| \\      /  F ield         | OpenFOAM: The Open Source CFD Toolbox           |
|  \\    /   O peration     | Version:  v3.0+                                 |
|   \\  /    A nd           | Web:      www.OpenFOAM.com                      |
|    \\/     M anipulation  |                                                 |
\*---------------------------------------------------------------------------*/
FoamFile
{
    version     2.0;
    format      ascii;
    class       volSymmTensorField;
    location    "3000";
    object      sigma;
}
// * * * * * * * * * * * * * * * * * * * * * * * * * * * * * * * * * * * * * //

dimensions      [1 -1 -2 0 0 0 0];

internalField   nonuniform List<symmTensor> 
27023
(
(-1.54087e+07 -1.2747e+07 1.2674e-13 -1.24371e+07 -1.99573e-14 -6.90911e+06)
(1.54243e+07 -1.27611e+07 8.62251e-14 1.24498e+07 -1.48707e-13 6.91614e+06)
(9.95447e+06 -9.4503e+06 5.57256e-13 9.9326e+06 -1.65355e-13 4.93438e+06)
(-9.94463e+06 -9.44013e+06 4.2717e-13 -9.92368e+06 1.28205e-13 -4.92973e+06)
(-1.55581e+07 -1.21445e+07 0 -1.16946e+07 0 -6.76192e+06)
(1.55738e+07 -1.21583e+07 -4.23837e-13 1.17065e+07 1.30821e-13 6.76879e+06)
(8.30367e+07 -1.18039e+07 3.52406e-12 4.40498e+06 -3.3703e-12 2.16961e+07)
(-8.29848e+07 -1.1794e+07 -8.70404e-13 -4.40159e+06 -8.12909e-13 -2.16823e+07)
(3.75768e+06 -4.78715e+06 -8.2881e-14 7.0188e+06 5.5154e-14 2.67386e+06)
(-3.75098e+06 -4.78248e+06 -3.89778e-13 -7.01716e+06 -1.11836e-13 -2.67179e+06)
(6.01675e+07 -1.16291e+07 -5.22763e-13 6.87939e+06 9.54524e-13 1.66357e+07)
(-6.01215e+07 -1.1616e+07 -7.54996e-13 -6.87449e+06 -4.32076e-13 -1.66231e+07)
(684012 -1.13005e+06 -5.35466e-14 1.8932e+06 -1.06931e-13 639458)
(-698509 -1.13511e+06 2.86238e-14 -1.89099e+06 -2.84251e-14 -642508)
(-2.39612e+07 -2.27462e+06 6.41912e-13 -643584 2.64789e-12 -6.10495e+06)
(1.97595e+06 8.88195e+06 7.89072e-13 104672 -6.01933e-13 516244)
(1.34418e+06 8.48232e+06 -7.14411e-13 381725 -3.06127e-13 428233)
(-5.13872e+07 -2.21042e+06 0 -1.12386e+06 0 -1.30291e+07)
(5.14421e+07 -2.21772e+06 2.61161e-12 1.12232e+06 -1.49414e-12 1.30423e+07)
(3.77142e+07 -1.85115e+06 0 1.75244e+06 0 9.79248e+06)
(-3.76627e+07 -1.8436e+06 -5.72819e-14 -1.747e+06 8.04341e-13 -9.77834e+06)
(8.25654e+07 -1.06235e+07 -5.8693e-15 3.76869e+06 -8.39223e-13 2.14212e+07)
(-8.25132e+07 -1.06141e+07 -2.03996e-12 -3.7656e+06 -2.49474e-12 -2.14075e+07)
(4.22055e+07 -1.2867e+06 -7.26163e-13 5.6506e+06 -1.15882e-12 1.18741e+07)
(-4.2165e+07 -1.27648e+06 1.85589e-12 -5.64291e+06 -1.94511e-13 -1.18621e+07)
(6.6577e+06 -538729 2.97925e-12 636720 -4.29919e-13 1.80989e+06)
(-2.94925e+07 2.86158e+06 1.38615e-12 -4.05274e+06 2.21923e-13 -8.32325e+06)
(3.11723e+06 -1.30157e+06 6.48122e-12 -12735.6 1.68355e-11 770288)
(-2.91063e+07 2.61409e+06 -1.08396e-12 -4.43413e+06 5.74335e-13 -8.32207e+06)
(2.84658e+07 -2.68502e+06 -3.9982e-12 -122771 5.02062e-12 7.03247e+06)
(1.37836e+07 -839113 7.69547e-12 821659 -4.15191e-12 3.62386e+06)
(3.77457e+07 -2.208e+06 3.20421e-13 1.73895e+06 -1.64428e-12 9.79696e+06)
(-3.76959e+07 -2.20164e+06 3.95836e-12 -1.7356e+06 3.25978e-12 -9.78376e+06)
(-3.83057e+07 -1.93089e+06 -3.8282e-13 -88677.2 1.78305e-12 -9.52642e+06)
(-2.37206e+07 -1.55934e+06 7.821e-13 -699794 3.24329e-12 -6.0592e+06)
(2.97812e+07 -1.71747e+06 -8.45605e-12 99457.7 1.61423e-12 7.414e+06)
(3.43835e+07 -1.1125e+06 1.35346e-12 2.97395e+06 -1.15454e-12 9.26914e+06)
(-3.43261e+07 -1.10197e+06 2.70651e-12 -2.97003e+06 2.30888e-12 -9.25393e+06)
(3.60502e+06 -4.77902e+06 1.53047e-13 6.56197e+06 -1.39162e-13 2.52264e+06)
(-3.60113e+06 -4.77507e+06 -2.21298e-13 -6.5593e+06 -1.02045e-13 -2.52101e+06)
(-9.9192e+06 -9.45295e+06 -1.64302e-13 -1.05103e+07 -6.16727e-14 -5.06896e+06)
(9.92941e+06 -9.46315e+06 -7.14391e-14 1.05198e+07 1.3861e-14 5.07387e+06)
(-1.93214e+07 -1.82378e+06 -8.54502e-12 -149398 -4.28173e-12 -4.8311e+06)
(-1.48336e+07 -1.23001e+07 -9.01519e-14 -1.14698e+07 -1.17028e-13 -6.5264e+06)
(1.48488e+07 -1.23141e+07 9.01391e-14 1.14819e+07 -1.16772e-13 6.53319e+06)
(5.07618e+07 -2.14992e+06 4.03105e-12 1.05234e+06 -1.14375e-12 1.28562e+07)
(-5.07067e+07 -2.14262e+06 -2.90799e-12 -1.05312e+06 -1.74447e-12 -1.28427e+07)
(3.99154e+07 -1.51583e+06 -3.79012e-12 4.37689e+06 1.43931e-12 1.09898e+07)
(-3.98654e+07 -1.50847e+06 3.79009e-12 -4.36747e+06 1.43904e-12 -1.09751e+07)
(2.63735e+07 -2.37639e+06 -2.55582e-12 -135692 9.53601e-13 6.51012e+06)
(3.85221e+07 -853282 2.86233e-12 4.12447e+06 -8.59686e-13 1.05815e+07)
(-3.84719e+07 -845529 -1.11779e-12 -4.11529e+06 -1.45441e-13 -1.05667e+07)
(-3.73638e+07 -2.09202e+06 6.66262e-12 -67891.1 8.49865e-13 -9.28755e+06)
(502.37 -73323.2 3.56072e-15 543781 1.92146e-14 135048)
(-509.289 -73137.7 8.1864e-14 -540323 6.85379e-14 -134191)
(4.21226e+07 -1.94049e+06 1.39313e-12 146287 2.80589e-12 1.04878e+07)
(1.75376e+07 -1.62724e+06 2.2508e-12 218216 6.05398e-12 4.40559e+06)
(3.10413e+07 -1.39856e+06 1.04848e-11 -50565.4 2.59534e-12 7.68944e+06)
(-1.42367e+07 -2.61456e+06 -1.88991e-12 29153.7 1.57175e-12 -3.52518e+06)
(9.49134e+06 -9.77532e+06 -8.67944e-13 1.09161e+07 2.94227e-13 5.0635e+06)
(-9.48215e+06 -9.76522e+06 -5.80997e-13 -1.09063e+07 -1.83586e-13 -5.0588e+06)
(2.58582e+07 -1.55186e+06 -1.53354e-11 52312.4 5.54841e-12 6.42893e+06)
(4.03135e+06 -1.89864e+06 6.20467e-12 206994 -1.37553e-12 1.05162e+06)
(4.61647e+06 -896988 3.512e-12 -116398 1.76389e-11 1.11656e+06)
(-1.87605e+07 -2.78431e+06 -9.13374e-12 -64457.7 -1.36039e-11 -4.67085e+06)
(1.22389e+07 -533986 -1.81265e-12 886352 8.19968e-13 3.25665e+06)
(3.35651e+07 -1.68206e+06 9.43475e-13 1.13442e+06 -4.38167e-12 8.60965e+06)
(8.24444e+06 -217815 -4.08619e-12 692020 1.53839e-13 2.21732e+06)
(-2.9925e+07 3.04267e+06 8.98614e-13 -3.44013e+06 -7.40317e-13 -8.27857e+06)
(-1.80306e+07 -2.53623e+06 -8.94877e-12 -173401 -1.92026e-12 -4.51679e+06)
(3.29237e+07 -1.40767e+06 0 3.12504e+06 0 8.94442e+06)
(-3.2866e+07 -1.39707e+06 -2.73367e-12 -3.12104e+06 -3.99601e-12 -8.92911e+06)
(5.7507e+07 -3.61266e+06 -2.58488e-13 5.3442e+06 2.1852e-12 1.55947e+07)
(-5.74617e+07 -3.60267e+06 -1.53576e-12 -5.33687e+06 2.91526e-12 -1.55816e+07)
(7.64727e+07 -1.27545e+06 -1.62601e-12 107172 5.74506e-12 1.9001e+07)
(-7.64213e+07 -1.27488e+06 -9.92105e-13 -107257 2.81064e-12 -1.89883e+07)
(144008 -298631 9.60696e-15 852728 5.36755e-14 247310)
(-142350 -296749 -5.26558e-14 -850599 4.69794e-14 -246371)
(-9.01764e+07 -4.81855e+06 6.08733e-12 -1.2763e+06 5.48014e-12 -2.26913e+07)
(9.023e+07 -4.82219e+06 -2.77687e-12 1.27698e+06 3.63635e-12 2.27047e+07)
(-2.23699e+07 937598 9.72036e-13 -2.97962e+06 1.47086e-12 -6.28974e+06)
(5.81328e+07 -1.10345e+07 3.30066e-12 6.52464e+06 -2.25829e-12 1.60428e+07)
(-5.80869e+07 -1.10214e+07 -2.59607e-12 -6.51966e+06 -1.77258e-12 -1.60302e+07)
(5.60159e+07 -3.97485e+06 -4.82848e-13 5.64554e+06 9.14029e-13 1.52994e+07)
(-5.59708e+07 -3.96492e+06 1.21209e-12 -5.63801e+06 3.06345e-12 -1.52864e+07)
(-8.11365e+07 -645113 -3.89394e-12 12176.3 -1.33822e-12 -2.01286e+07)
(8.11879e+07 -644898 -2.09106e-12 -12044.3 1.136e-12 2.01414e+07)
(-3.34139e+07 -1.67349e+06 2.28581e-12 -1.1085e+06 -4.49757e-13 -8.56572e+06)
(3.21574e+06 -2.58178e+06 4.28998e-12 161377 -3.31783e-13 837932)
(-1.50354e+07 -2.45477e+06 -3.7174e-12 44957.4 2.1363e-12 -3.71943e+06)
(1.44314e+07 -2.38424e+06 2.18999e-12 148668 3.55367e-11 3.6176e+06)
(1.92787e+07 -1.24663e+07 1.08844e-13 1.03152e+07 1.09203e-13 7.34284e+06)
(-1.92591e+07 -1.24517e+07 -2.22074e-13 -1.03038e+07 -1.29667e-13 -7.33516e+06)
(1.67808e+07 6.55563e+06 -3.11579e-13 1.87785e+06 5.55007e-13 4.6296e+06)
(-6.90175e+06 -1.7742e+06 -6.89953e-14 -413168 -9.03212e-14 -1.81498e+06)
(-4.22957e+07 -546809 -2.99324e-12 -5.30791e+06 -2.42106e-12 -1.18114e+07)
(4.23315e+07 -554272 -3.15601e-12 5.31392e+06 4.8545e-13 1.18218e+07)
(-2.23181e+07 1.39999e+06 2.85028e-12 -3.0861e+06 5.75996e-13 -6.3033e+06)
(-1.49828e+07 -2.81157e+06 -4.56141e-12 -145541 -3.02001e-12 -3.75365e+06)
(742360 -3.03556e+06 2.47428e-12 -37427 5.49277e-12 174908)
(-2.45213e+07 -1.72696e+06 -1.68907e-12 454.534 -5.83859e-12 -6.08411e+06)
(-1.53639e+07 -304932 -7.08831e-12 -111566 1.46959e-11 -3.83978e+06)
(1.56604e+07 -264343 -2.71465e-12 357803 2.71835e-11 3.97443e+06)
(6.74091e+07 -7.4553e+06 -2.40438e-14 5.55047e+06 1.19959e-12 1.81027e+07)
(-6.73627e+07 -7.44419e+06 1.68726e-12 -5.54503e+06 9.02844e-13 -1.80899e+07)
(2.73483e+06 -1.92625e+06 1.07634e-11 -129227 -1.98676e-13 646503)
(7.53493e+07 -7.58847e+06 -1.04177e-12 4.20477e+06 1.36086e-14 1.9739e+07)
(-7.52996e+07 -7.57941e+06 7.52483e-13 -4.20106e+06 -9.65421e-13 -1.97257e+07)
(4.15787e+07 -2.03021e+06 -3.98989e-12 331231 -1.31192e-12 1.03987e+07)
(2.90307e+07 -1.62033e+06 2.21002e-11 293257 -6.8456e-12 7.27586e+06)
(1.78106e+07 -3.09142e+06 -1.00459e-11 -135975 -3.3913e-12 4.38544e+06)
(7.55783e+07 -7.94408e+06 -7.03994e-14 4.96543e+06 1.28765e-12 1.99845e+07)
(-7.55289e+07 -7.93483e+06 8.12904e-13 -4.96131e+06 3.03381e-13 -1.99712e+07)
(4.17648e+07 -541340 -3.81596e-12 5.22433e+06 4.09321e-12 1.16589e+07)
(-4.17255e+07 -532293 5.80921e-13 -5.21811e+06 1.73752e-12 -1.16477e+07)
(7.71423e+07 -784368 1.72616e-12 138021 2.25144e-12 1.91748e+07)
(-7.70906e+07 -783651 4.14797e-12 -137778 3.5509e-12 -1.91619e+07)
(1.86389e+07 2.24174e+06 -2.78734e-13 -971535 1.56233e-13 4.38362e+06)
(-3.05226e+07 256864 -1.24259e-12 -2.09742e+06 5.80707e-14 -8.09369e+06)
(-2.26836e+07 -1.25792e+06 1.93884e-12 -1.90015e+06 -5.84325e-13 -6.09973e+06)
(1.84553e+07 -1.92258e+06 -1.08716e-11 285465 -4.45881e-13 4.64996e+06)
(1.9529e+06 -1.45729e+06 6.4476e-12 29161.1 -1.1533e-12 491790)
(-6.27141e+07 -2.38493e+07 -6.08474e-13 -1.02606e+07 -6.01953e-13 -1.81065e+07)
(6.27599e+07 -2.38669e+07 1.66195e-12 1.0268e+07 -1.85193e-12 1.81197e+07)
(8.94457e+07 -1.13016e+07 -3.0229e-12 1.90209e+06 2.51388e-12 2.26652e+07)
(-8.93913e+07 -1.12938e+07 1.41345e-12 -1.90065e+06 4.97143e-13 -2.26514e+07)
(1.8939e+07 -1.20275e+07 -4.66197e-14 9.68147e+06 1.97406e-13 7.10132e+06)
(-1.89194e+07 -1.2013e+07 2.60154e-13 -9.6703e+06 2.20241e-13 -7.09369e+06)
(6.85156e+07 -8.0482e+06 2.69715e-13 6.00059e+06 3.99712e-13 1.8489e+07)
(-6.84692e+07 -8.03671e+06 1.87034e-12 -5.99463e+06 2.262e-12 -1.8476e+07)
(-1.37656e+07 -1.65034e+06 -8.60541e-13 -133206 7.11099e-12 -3.44857e+06)
(-1.67524e+06 -1.27055e+06 2.0176e-14 -1.00132e+06 5.04305e-14 -664109)
(1.70419e+06 -1.26804e+06 -9.94069e-15 920504 2.74769e-14 651239)
(-1.28949e+07 -1.19877e+06 1.13764e-13 -973500 -1.16472e-13 -3.44104e+06)
(1.59369e+07 -2.30258e+06 -7.80201e-12 176528 -3.39707e-12 3.99806e+06)
(-8.13696e+07 15183.3 -6.05587e-12 -150839 -8.55734e-12 -2.02269e+07)
(8.14212e+07 15372.4 -1.51689e-13 150872 1.94933e-12 2.02397e+07)
(7.86671e+06 2.68409e+06 1.8947e-12 1.09349e+06 1.35242e-12 2.22321e+06)
(5.27828e+07 -2.4959e+06 1.96702e-12 1.64479e+06 -4.49298e-12 1.35046e+07)
(-5.27279e+07 -2.49004e+06 2.24815e-13 -1.64468e+06 -2.86664e-12 -1.34909e+07)
(-7.76388e+07 -1.30854e+07 -5.56182e-13 -5.69121e+06 -1.11686e-12 -2.06759e+07)
(7.76892e+07 -1.30978e+07 -4.36821e-12 5.69607e+06 2.79855e-12 2.06896e+07)
(-5.44551e+06 2.5934e+06 -1.92658e-12 -638693 -1.81513e-12 -1.50961e+06)
(8.03189e+07 -1.15439e+07 -1.85076e-12 4.68505e+06 1.94797e-12 2.10912e+07)
(-8.0268e+07 -1.15333e+07 -1.26305e-12 -4.68118e+06 -4.51239e-13 -2.10776e+07)
(-1.29643e+07 -738994 1.44785e-12 -713615 3.43627e-12 -3.39377e+06)
(-1.41591e+07 -1.92715e+06 -7.26847e-12 14309.3 -1.03602e-12 -3.50961e+06)
(3.84192e+07 -41554.7 -2.59147e-12 4.85678e+06 2.87359e-12 1.07377e+07)
(3.41819e+07 -2.26737e+06 9.34863e-13 1.14136e+06 2.49744e-12 8.76441e+06)
(3.25347e+07 -1.88601e+07 1.65166e-13 1.34685e+07 3.37575e-13 1.14143e+07)
(-3.25035e+07 -1.88418e+07 -2.40745e-13 -1.34553e+07 -1.21037e-13 -1.14033e+07)
(4.06941e+07 -1.60339e+07 9.26549e-13 9.87552e+06 -9.61829e-13 1.25473e+07)
(-4.066e+07 -1.60182e+07 -5.26247e-13 -9.86426e+06 -3.22406e-13 -1.25361e+07)
(-2.30849e+07 -2.72331e+06 2.31178e-12 -8847.06 -4.1902e-12 -5.73003e+06)
(-2.44378e+07 -951540 2.26366e-12 -1.79966e+06 -4.87691e-13 -6.51004e+06)
(-2.51979e+07 -668843 1.63063e-11 -299102 7.47921e-13 -6.32631e+06)
(2.51774e+07 -663931 -6.94598e-12 494616 6.63552e-12 6.36975e+06)
(2.41205e+07 -1.88016e+06 4.7184e-12 725111 -4.14501e-12 6.1647e+06)
(5.21534e+07 -2.56378e+06 4.89151e-12 1.65892e+06 -7.18064e-12 1.33519e+07)
(-5.20987e+07 -2.55815e+06 -2.14576e-12 -1.65848e+06 -1.96647e-12 -1.33382e+07)
(-4.71264e+07 -1.61866e+06 3.4794e-12 166789 3.19095e-12 -1.16516e+07)
(-1.94764e+07 -2.54685e+06 -7.75336e-12 -15653.8 -1.14263e-12 -4.83638e+06)
(-4.05264e+07 -1.28112e+06 7.41878e-12 -35212.8 2.74791e-12 -1.00642e+07)
(2.82696e+06 -2.86769e+06 7.96528e-12 328384 -8.8619e-12 782904)
(-4.84706e+07 -1.68809e+07 -4.3003e-13 -9.1585e+06 -3.78191e-13 -1.4299e+07)
(4.85108e+07 -1.68944e+07 -4.50565e-13 9.1672e+06 3.47537e-13 1.43111e+07)
(-7.05121e+07 -1.17878e+07 -3.1127e-13 -5.63494e+06 -6.40066e-13 -1.88936e+07)
(7.05603e+07 -1.18008e+07 1.68664e-12 5.64045e+06 -1.79072e-12 1.8907e+07)
(-1.59948e+07 1.76553e+06 -2.67492e-13 -2.20322e+06 -1.32575e-12 -4.5153e+06)
(1.69143e+06 1.91963e+06 -1.30311e-12 197664 2.4509e-12 468722)
(4.53593e+06 -3.34396e+06 1.13077e-12 144598 3.74905e-11 1.16134e+06)
(-9.07046e+07 -5.99557e+06 5.50847e-12 -1.47625e+06 4.77037e-12 -2.28719e+07)
(9.07578e+07 -5.99962e+06 1.91339e-13 1.47704e+06 3.58649e-13 2.28853e+07)
(-1.65224e+07 -2.55499e+06 -1.80096e-12 130699 3.22924e-11 -4.06712e+06)
(1.64459e+07 -2.36408e+06 0 241408 0 4.14046e+06)
(-2.56798e+07 -2.22459e+06 9.84435e-12 -389201 2.65297e-12 -6.46824e+06)
(2.1046e+06 -1.90469e+06 1.03485e-11 122149 -7.56687e-12 552502)
(-5.07972e+06 2.40186e+06 -2.57099e-12 -980457 -1.35849e-12 -1.50365e+06)
(-1.68569e+07 -2.75067e+06 -1.88969e-12 120744 5.41303e-12 -4.15258e+06)
(8.27635e+06 3.41676e+06 3.01981e-13 1.45394e+06 1.21522e-13 2.41428e+06)
(-3.42647e+07 -2.26373e+06 8.01615e-13 -1.1579e+06 2.57932e-12 -8.78908e+06)
(-7.41132e+07 -1.22098e+07 -3.12545e-12 -4.99744e+06 -2.76422e-12 -1.9629e+07)
(7.41623e+07 -1.22219e+07 -2.00887e-12 5.00202e+06 2.16322e-12 1.96423e+07)
(-2.56371e+07 -1.92264e+06 -2.32136e-12 181844 -5.27939e-12 -6.31596e+06)
(-4.68932e+07 -1.88548e+06 -5.35353e-12 -198131 1.80311e-12 -1.16843e+07)
(-4.99299e+07 -1.55353e+06 1.51673e-12 -297269 -3.29435e-14 -1.24624e+07)
(-4.00634e+07 -533710 1.42984e-12 -5.42915e+06 1.78426e-12 -1.12876e+07)
(4.00989e+07 -540356 -9.73481e-13 5.43674e+06 2.38409e-12 1.12983e+07)
(-4.25644e+07 -1.41266e+06 -5.16024e-12 -26046.3 1.05259e-11 -1.05676e+07)
(-1.51955e+07 -2.70622e+06 3.5874e-12 12722.5 -5.57788e-12 -3.76717e+06)
(-7.04839e+07 -1.28669e+07 -2.44716e-12 -6.40957e+06 -2.73793e-12 -1.90788e+07)
(7.05317e+07 -1.28804e+07 1.57472e-13 6.41512e+06 -7.88331e-13 1.90921e+07)
(-2.14877e+07 2.36994e+06 -6.64296e-13 -2.90473e+06 2.00927e-12 -6.05227e+06)
(3.6328e+06 -2.44647e+06 -1.83835e-12 4317.29 -9.17851e-12 902442)
(8.99991e+07 -1.14798e+07 1.41181e-12 2.95932e+06 -9.73095e-13 2.30649e+07)
(-8.99452e+07 -1.14718e+07 2.34621e-12 -2.95748e+06 2.29419e-12 -2.3051e+07)
(-5.27848e+07 -620953 -9.22607e-12 -24350 6.55015e-14 -1.3103e+07)
(-6.81618e+07 -1.34379e+07 8.76549e-13 -6.27784e+06 7.32696e-13 -1.847e+07)
(6.82097e+07 -1.34516e+07 5.29758e-13 6.28329e+06 -5.84797e-13 1.84832e+07)
(-2.86612e+07 552442 4.94044e-13 -2.19616e+06 2.26534e-13 -7.65635e+06)
(2.5521e+07 -2.35578e+06 4.08574e-12 678501 3.10757e-12 6.50062e+06)
(-3.03663e+07 2.72805e+06 9.36133e-13 -3.63339e+06 1.36347e-13 -8.43602e+06)
(7.49716e+07 -862416 2.98718e-12 -13058.3 -5.84053e-13 1.85987e+07)
(-7.49184e+07 -859312 5.76805e-12 13450 5.493e-12 -1.85854e+07)
(-1.46801e+07 -1.15713e+07 0 -1.02613e+07 0 -6.18849e+06)
(1.46952e+07 -1.15849e+07 -5.91901e-13 1.02722e+07 1.87744e-13 6.19492e+06)
(-1.92033e+07 -225732 2.21241e-12 -1.66992e+06 9.7544e-13 -5.17908e+06)
(-5.21113e+07 -1.65473e+06 -1.33355e-12 -108314 -2.7084e-12 -1.29567e+07)
(7.48238e+07 -388244 2.62448e-12 89899.5 -4.96792e-12 1.85876e+07)
(-7.47706e+07 -385444 3.22778e-12 -89731 4.11056e-12 -1.85744e+07)
(22336 -158360 0 93036.8 0 28626.3)
(-22140 -157251 1.0813e-15 -92415.1 1.18816e-15 -28423.4)
(1.63106e+07 7.38762e+06 -5.61566e-13 1.38439e+06 4.29211e-14 4.39049e+06)
(-2.04796e+07 -844676 2.1843e-12 -1.83418e+06 -5.63605e-13 -5.5365e+06)
(-8.78748e+06 -4.56018e+06 -2.54871e-13 -1.51942e+06 1.45684e-14 -2.55735e+06)
(8.79827e+06 -4.56243e+06 1.49328e-13 1.52159e+06 6.71463e-14 2.56057e+06)
(-2.51898e+07 2.04303e+06 -1.34147e-12 -3.29752e+06 -1.66524e-12 -7.06829e+06)
(1.97159e+06 2.50496e+06 1.403e-12 415743 -3.13543e-13 592346)
(5.33553e+06 -3.11954e+06 2.66324e-12 45920.7 2.47395e-12 1.33525e+06)
(-7.99499e+07 -2.58387e+06 2.08445e-12 -551777 1.46484e-12 -1.99741e+07)
(8.00012e+07 -2.58585e+06 2.85916e-12 552042 -4.36691e-12 1.99869e+07)
(-1.38191e+07 -1.4359e+06 9.02862e-12 -50718.8 -4.32294e-12 -3.44139e+06)
(-6.31012e+07 -2.3178e+07 8.07626e-13 -9.13536e+06 9.54927e-13 -1.79234e+07)
(6.31469e+07 -2.31951e+07 7.74067e-14 9.14214e+06 -6.52785e-14 1.79364e+07)
(-2.39951e+07 -1.42917e+06 -2.40866e-12 -45896.1 -1.10876e-11 -5.96505e+06)
(7.04913e+07 -3.59595e+06 -1.69533e-12 1.89573e+06 -1.41493e-12 1.79607e+07)
(-7.04395e+07 -3.59205e+06 3.74681e-12 -1.89427e+06 3.13103e-12 -1.79475e+07)
(5.80176e+07 -4.06561e+06 -5.697e-13 5.65687e+06 -2.10612e-12 1.57989e+07)
(-5.79733e+07 -4.05465e+06 -2.16663e-12 -5.64956e+06 -2.46466e-12 -1.57861e+07)
(1.53543e+06 -2.31218e+06 2.12517e-14 3.85862e+06 -1.10307e-13 1.33837e+06)
(-1.53503e+06 -2.31132e+06 1.4312e-13 -3.85784e+06 1.05396e-13 -1.33808e+06)
(3.78342e+06 -2.44323e+06 -6.76497e-12 -359703 -1.24604e-11 849493)
(7.25944e+07 -2.8488e+06 -1.15567e-12 1.57392e+06 -4.28985e-12 1.84027e+07)
(-7.25424e+07 -2.84527e+06 -1.91643e-12 -1.57297e+06 -7.62831e-13 -1.83895e+07)
(-4.80855e+07 -1.49112e+06 -2.5486e-12 -67447.4 -2.03434e-12 -1.19477e+07)
(7.03745e+07 -2.07877e+06 3.19626e-12 515895 3.21849e-12 1.75894e+07)
(-7.03224e+07 -2.07658e+06 -1.36635e-12 -515851 2.76036e-12 -1.75764e+07)
(7.75001e+07 -225121 4.99772e-12 97064.5 -9.35055e-12 1.92534e+07)
(2.90835e+07 -1.89748e+06 2.29778e-13 237570 -3.67916e-12 7.27515e+06)
(-8.73064e+07 -1.34969e+07 3.92573e-12 -3.50869e+06 3.94918e-12 -2.25331e+07)
(8.73598e+07 -1.35064e+07 -3.92753e-12 3.51089e+06 3.94996e-12 2.25469e+07)
(3.09987e+07 2.28119e+06 2.54126e-12 4.24032e+06 -1.06905e-12 8.74351e+06)
(4.95258e+07 -1.76974e+06 -2.79134e-13 62333.1 1.69569e-12 1.23038e+07)
(4.93001e+07 -1.8574e+06 -9.21548e-12 124658 7.85548e-12 1.22633e+07)
(-3.92403e+07 -2.30374e+06 -8.56132e-13 -495257 1.35786e-12 -9.85919e+06)
(1.82038e+07 6.47491e+06 9.98118e-13 1.21456e+06 -3.76493e-13 4.81808e+06)
(232459 -3.32564e+06 8.58989e-12 424164 -9.40905e-12 162922)
(-2.69134e+07 3.95088e+06 7.99939e-13 -3.61252e+06 -5.14926e-13 -7.5741e+06)
(4.09923e+07 -871542 -6.08505e-13 -81291.6 7.33147e-12 1.01508e+07)
(-3.84153e+07 -1.88618e+06 5.9397e-13 -389347 -2.58903e-12 -9.62822e+06)
(-8.33803e+07 -6.00468e+06 -2.41186e-12 -3.09272e+06 -1.87208e-12 -2.14557e+07)
(8.34327e+07 -6.01077e+06 3.66244e-12 3.0951e+06 -3.93424e-12 2.14693e+07)
(-1.78301e+07 -2.60432e+06 -6.0792e-12 111757 2.93614e-13 -4.39628e+06)
(-1.32851e+07 6.00945e+06 -9.60878e-13 -1.99828e+06 2.39141e-13 -3.79211e+06)
(-5.23322e+07 -431877 2.44138e-12 -6799.68 8.76652e-13 -1.29864e+07)
(-5.30436e+07 -1.0685e+06 -6.18283e-12 -130263 -2.31054e-12 -1.31935e+07)
(6.39198e+07 -1.35084e+06 0 5864.56 0 1.58613e+07)
(-4.85819e+07 -649531 -5.20222e-12 -123754 -3.50137e-12 -1.20849e+07)
(4.23403e+07 -2.4545e+06 -5.14037e-12 1.69504e+06 -2.72591e-13 1.09261e+07)
(-4.22865e+07 -2.44882e+06 1.94562e-12 -1.69426e+06 -1.75164e-12 -1.09125e+07)
(1.67762e+07 3.02315e+06 6.41669e-13 -1.32693e+06 -2.92779e-13 3.83327e+06)
(2.87994e+06 4.68853e+06 -1.66021e-12 662255 7.93345e-13 878890)
(4.46494e+07 280804 -7.68728e-12 353054 5.02044e-12 1.1166e+07)
(7.23473e+07 -1.52953e+06 2.40242e-12 508927 -3.1547e-13 1.80771e+07)
(-7.2295e+07 -1.52741e+06 -4.62494e-12 -508669 -3.80236e-12 -1.80641e+07)
(7.96376e+07 -1.13641e+07 -4.42215e-12 4.15089e+06 5.24438e-12 2.07896e+07)
(-7.95868e+07 -1.13539e+07 -2.06989e-13 -4.14751e+06 -1.21061e-12 -2.07762e+07)
(6.02654e+06 -1.66387e+06 -8.41705e-13 184114 2.99129e-12 1.54099e+06)
(-1.14247e+07 6.50297e+06 -3.77081e-12 -1.29963e+06 -5.81263e-13 -3.15716e+06)
(6.20875e+07 -2.09602e+07 -1.52875e-13 9.63944e+06 1.356e-13 1.77969e+07)
(-6.20415e+07 -2.09446e+07 7.953e-14 -9.63255e+06 -1.56172e-13 -1.77838e+07)
(3.10248e+07 -1.12008e+06 1.76188e-11 530526 -9.04753e-13 7.82952e+06)
(-1.80762e+07 -1.7116e+06 6.64729e-12 -789124 2.59291e-12 -4.68087e+06)
(-3.37826e+07 -1.51135e+06 8.86746e-13 52789.5 2.76398e-12 -8.36904e+06)
(7.91765e+06 -1.73347e+06 -4.60405e-12 159703 1.24307e-12 2.00416e+06)
(4.671e+06 -2.33139e+06 -1.71577e-12 -94017.5 -8.04416e-12 1.13564e+06)
(-4.91071e+07 -1.63061e+07 -4.76733e-14 -8.55475e+06 -1.16218e-13 -1.43071e+07)
(4.91476e+07 -1.63191e+07 -3.11664e-14 8.56288e+06 8.98229e-14 1.43191e+07)
(-4.22366e+07 -1.83743e+06 -5.57672e-12 -1.17428e+06 -5.5661e-12 -1.07711e+07)
(4.22925e+07 -1.84479e+06 9.16359e-13 1.16571e+06 -7.03926e-12 1.07829e+07)
(3.54434e+07 -2.28075e+06 -1.73948e-11 -224122 -3.01255e-12 8.73863e+06)
(-4.38068e+07 -1.92968e+06 1.79224e-12 -12594.5 3.8085e-12 -1.08725e+07)
(8.74778e+06 -2.72277e+06 2.35541e-11 -148107 -2.09395e-11 2.13375e+06)
(-8.54849e+06 -2.59e+06 -3.55102e-12 37205.7 -5.76413e-13 -2.11182e+06)
(-20400.9 -70712.7 -1.64152e-14 -699658 -1.82909e-14 -178661)
(19990.3 -70378 -1.74385e-14 704025 1.80307e-14 179643)
(-1.8141e+07 -2.12958e+06 -4.73827e-12 -56885.9 -3.64379e-12 -4.51526e+06)
(-2.26039e+07 -1.84838e+06 1.12829e-11 -144318 8.33462e-12 -5.6443e+06)
(1.04589e+07 8.78249e+06 -2.36391e-12 386166 1.04983e-13 2.69088e+06)
(3.61407e+07 -3.67441e+06 -2.36778e-14 3.93756e+06 -1.95571e-13 9.94424e+06)
(2.04794e+06 -1.37984e+06 -6.80642e-12 -250914 -7.01908e-12 445877)
(-1.74301e+07 -2.63201e+06 3.04958e-12 -160289 -3.97305e-13 -4.36454e+06)
(-6.89072e+07 -4.28256e+06 -4.73086e-13 -3.23997e+06 -3.27464e-12 -1.79012e+07)
(6.89582e+07 -4.28767e+06 2.16977e-12 3.24272e+06 -1.16006e-12 1.79145e+07)
(-7.99722e+07 -932668 0 10377 0 -1.98401e+07)
(8.0023e+07 -932942 -1.20341e-12 -10483 2.60343e-12 1.98527e+07)
(-3.86777e+07 -1.92448e+06 -4.05895e-12 67745.5 5.30216e-12 -9.57992e+06)
(5.16692e+07 -1.85569e+06 2.30225e-12 75445.4 9.64335e-13 1.28389e+07)
(-7.48678e+07 -854818 2.4272e-12 68512.8 -2.69528e-13 -1.85592e+07)
(7.49196e+07 -855853 0 -67374 0 1.85724e+07)
(1.19385e+06 -1.37113e+06 -9.97887e-14 1.91741e+06 3.66527e-14 771968)
(6.7147e+06 8.28228e+06 -1.01752e-12 491314 -1.85103e-15 1.78796e+06)
(-6.92023e+07 -1.0133e+07 7.56444e-13 -5.5356e+06 2.42116e-13 -1.8544e+07)
(6.92491e+07 -1.01453e+07 0 5.54093e+06 0 1.85569e+07)
(-1.05939e+07 -339611 -1.55177e-13 2.04915e+06 1.45991e-14 -2.12013e+06)
(1.19803e+07 -5.80138e+06 2.87382e-14 2.24531e+06 -2.12005e-14 3.52967e+06)
(-1.19641e+07 -5.79172e+06 -9.34229e-15 -2.24675e+06 1.31512e-13 -3.526e+06)
(2.54525e+07 1.70848e+06 -3.8856e-12 3.78576e+06 1.79166e-12 7.25461e+06)
(2.60541e+07 -2.37354e+06 -7.76953e-12 245392 -5.43128e-13 6.52544e+06)
(-5.01385e+06 -3.28426e+06 -3.10169e-12 325776 -8.46129e-12 -1.16321e+06)
(-171787 -1.75594e+06 2.09316e-11 462457 6.631e-12 72121.2)
(-797.876 10688.1 4.0447e-14 432925 -5.24487e-14 107219)
(829.555 9890.06 -4.0375e-14 -430369 -5.22505e-14 -106578)
(759497 -2.04002e+06 1.34702e-13 5.42342e+06 1.32381e-13 1.53411e+06)
(-759555 -2.03974e+06 3.26488e-13 -5.42309e+06 1.59937e-13 -1.53404e+06)
(3.49652e+07 -2.26644e+06 3.7959e-12 124377 -1.8082e-12 8.70645e+06)
(-3.91949e+07 -2.1311e+06 -1.4776e-12 -2.94153e+06 -5.27913e-12 -1.04549e+07)
(3.92489e+07 -2.14072e+06 4.31176e-13 2.94599e+06 7.05558e-14 1.04694e+07)
(1.1308e+06 -111162 -4.2269e-12 112079 -3.53842e-12 308384)
(2.54463e+07 -2.56857e+06 1.66383e-12 100494 -3.89361e-12 6.33867e+06)
(1.55831e+06 -1.95798e+06 -4.3598e-14 2.34457e+06 -2.10012e-14 968383)
(-1.55905e+06 -1.96435e+06 -6.84029e-14 -2.34658e+06 -5.79814e-14 -969066)
(-3.17825e+07 1.649e+06 8.22097e-13 -4.86295e+06 -1.63305e-12 -9.09249e+06)
(-2.14225e+07 4.47214e+06 8.65296e-13 14526.1 5.96272e-13 -5.31174e+06)
(-1.71394e+07 1.07339e+06 -5.71733e-13 1.926e+06 -3.44565e-13 -3.77474e+06)
(2.64067e+07 -2.66672e+06 -7.33559e-13 -44517.6 1.13633e-12 6.54099e+06)
(-6.07382e+07 -456640 4.58879e-12 -94205 -5.76313e-13 -1.50938e+07)
(8.13259e+06 -2.22867e+06 -1.23183e-12 10137.7 -5.90512e-12 2.02038e+06)
(3.56682e+07 1.13911e+06 -3.11621e-12 4.24632e+06 3.01997e-12 9.9036e+06)
(-4.27963e+07 -2.91363e+06 4.50328e-13 -4.8667e+06 6.56001e-13 -1.18262e+07)
(-1.49961e+07 4.34343e+06 -1.02399e-13 -2.10492e+06 3.938e-13 -4.24311e+06)
(4.28265e+07 -2.854e+06 -2.10218e-12 4.79357e+06 1.56755e-12 1.18155e+07)
(-6.91146e+07 -784459 -5.6917e-12 361756 -1.37172e-13 -1.7059e+07)
(7.11973e+06 -1.74593e+06 -2.63486e-13 597397 1.49187e-13 1.91478e+06)
(2.95584e+07 -1.61395e+06 -7.71185e-12 181450 -2.49323e-12 7.37907e+06)
(-2.56692e+07 -1.78868e+07 -4.36495e-13 -1.45956e+07 -1.38546e-13 -9.99053e+06)
(2.56948e+07 -1.79047e+07 -7.31287e-13 1.46104e+07 4.2718e-13 1.00005e+07)
(-1.37715e+07 -945455 5.87879e-13 -1.13174e+06 2.20268e-12 -3.69778e+06)
(8.92849e+06 7.81907e+06 -1.64921e-12 723766 6.60929e-14 2.39492e+06)
(6.56215e+07 -6.12917e+06 -9.48852e-14 5.33044e+06 5.69519e-13 1.76046e+07)
(-6.55752e+07 -6.11897e+06 -1.25745e-12 -5.32503e+06 -6.32681e-13 -1.75918e+07)
(-5.0596e+07 -658061 1.98331e-11 395367 1.43254e-12 -1.24558e+07)
(5.08599e+07 -646197 -1.07997e-11 -413471 1.59263e-11 1.25168e+07)
(55633.4 -148610 0 109584 0 40993.8)
(-55233.7 -147574 1.81132e-15 -108857 1.37787e-14 -40714.2)
(-2.77205e+07 3.74187e+06 -1.68288e-12 -3.19458e+06 -1.39363e-12 -7.67065e+06)
(1.51003e+07 -1.44344e+07 -4.64763e-13 1.41656e+07 2.05263e-13 7.26148e+06)
(-1.50847e+07 -1.44192e+07 9.91822e-13 -1.4151e+07 6.51491e-13 -7.25397e+06)
(-2.16161e+07 -1.14479e+06 -2.43364e-12 315785 1.21394e-11 -5.28505e+06)
(1.02134e+07 -1.51489e+06 2.33894e-12 280148 5.33214e-12 2.60366e+06)
(-3.91035e+07 -2.21753e+06 2.9901e-12 -314953 -5.1567e-12 -9.78053e+06)
(3.9132e+07 -2.23082e+06 -4.5986e-13 283336 6.00519e-12 9.77974e+06)
(7.47192e+07 -3.09196e+06 3.37617e-13 1.45016e+06 -1.49365e-12 1.88992e+07)
(-7.46672e+07 -3.08866e+06 -2.0991e-12 -1.44906e+06 -8.4699e-13 -1.8886e+07)
(-28735.4 -5911.14 2.28155e-14 176626 -1.00566e-13 36694.6)
(28704.9 -5872.87 -1.68287e-14 -174820 -3.65998e-14 -36254.2)
(4.96057e+06 9.67715e+06 -6.1202e-13 -108257 -3.49556e-13 1.20396e+06)
(-8.70614e+07 -5.24655e+06 3.8699e-12 -2.43282e+06 1.00231e-12 -2.22053e+07)
(8.71145e+07 -5.25113e+06 -4.30099e-12 2.43462e+06 7.48927e-12 2.22189e+07)
(-4.52046e+06 -1.99899e+06 6.84243e-13 -57973 -3.19162e-12 -1.136e+06)
(-3.42026e+07 -253207 1.22076e-12 -2.88222e+06 7.06248e-13 -9.20149e+06)
(-7.25309e+07 -554814 1.29702e-12 -162205 2.32357e-12 -1.80366e+07)
(7.25831e+07 -557116 -3.83875e-12 163594 5.80852e-12 1.80499e+07)
(-7.67305e+07 -1.75747e+07 5.90566e-14 -6.30204e+06 -8.87664e-14 -2.06021e+07)
(7.67817e+07 -1.75886e+07 1.58153e-12 6.30698e+06 -1.04783e-12 2.0616e+07)
(1.45565e+07 -2.84539e+06 -7.27671e-12 -200646 1.66993e-11 3.56198e+06)
(-3.14704e+07 -2.44815e+06 3.29874e-12 142555 2.08802e-12 -7.77308e+06)
(-5.15041e+06 8.14227e+06 9.29868e-13 -538784 -4.17183e-13 -1.41161e+06)
(-2.2234e+07 -1.44731e+07 -4.33407e-13 -1.10629e+07 -2.67633e-13 -8.26163e+06)
(2.22565e+07 -1.44887e+07 4.3405e-13 1.10757e+07 -2.67536e-13 8.27039e+06)
(-8.61147e+07 -4.7867e+06 -2.83359e-12 -1.49332e+06 -2.24804e-12 -2.17373e+07)
(8.6167e+07 -4.79025e+06 -1.79823e-12 1.49424e+06 4.87488e-13 2.17505e+07)
(-1.44292e+07 7.19796e+06 -1.47099e-12 -832777 -2.71407e-13 -3.78681e+06)
(-4.84862e+07 -2.02207e+06 0 -360454 0 -1.21199e+07)
(-1.79229e+07 1.25955e+06 -1.38784e-13 1.04681e+06 -8.831e-14 -4.18729e+06)
(-4.91938e+07 -1.63327e+06 7.43256e-12 135138 -2.94504e-12 -1.21724e+07)
(-4.89787e+07 -1.70076e+06 -4.74014e-12 -324017 -6.80115e-12 -1.2233e+07)
(-2.92759e+07 904335 -1.80213e-12 -4.21828e+06 -1.20406e-12 -8.31058e+06)
(-3.19106e+07 -654817 5.56163e-12 -47560.4 -4.27092e-12 -7.92948e+06)
(3.22897e+07 -917138 3.13532e-12 3.41825e+06 -2.21816e-12 8.85987e+06)
(2.46123e+07 -1.81229e+06 3.40013e-12 47101.8 -4.1995e-12 6.11851e+06)
(-3.22285e+07 -908860 2.36204e-12 -3.41402e+06 1.04548e-12 -8.84363e+06)
(8.47124e+07 -1.0702e+07 2.61491e-12 4.07498e+06 -1.62469e-12 2.20299e+07)
(-8.46597e+07 -1.06928e+07 1.1886e-12 -4.07188e+06 4.78759e-13 -2.20161e+07)
(-2.59254e+07 3.67476e+06 -3.03282e-13 -3.72665e+06 1.29709e-12 -7.35728e+06)
(1.01632e+07 1.82465e+06 -1.30007e-12 1.61889e+06 9.74807e-13 2.92337e+06)
(1.39011e+07 -1.83179e+06 -1.01463e-12 104005 1.73524e-11 3.47494e+06)
(-5.01162e+07 -2.06785e+06 4.66282e-12 37059.1 -2.62757e-12 -1.24256e+07)
(-4.05019e+07 -784372 -1.1546e-12 -5.11564e+06 -6.54227e-13 -1.13187e+07)
(-2.85176e+06 3.19306e+06 1.13451e-13 925087 -6.96184e-14 -478046)
(-2.54343e+07 4.72008e+06 -1.38915e-12 -3.06489e+06 -3.21456e-13 -7.07123e+06)
(9.52188e+06 -2.20851e+06 1.99112e-11 22756.4 -1.77234e-11 2.36822e+06)
(3.4327e+07 -283348 5.32259e-13 3.02048e+06 -1.04655e-12 9.26666e+06)
(3.58671e+06 -3.20108e+06 -5.27661e-12 142690 -1.6089e-11 925340)
(1.55823e+06 8.8429e+06 -5.51396e-13 89947.5 4.28922e-13 408945)
(-7.44952e+06 -2.91151e+06 9.51751e-13 60481.2 -9.70356e-12 -1.83337e+06)
(3.13624e+07 -1.71043e+06 4.99723e-13 331585 3.05911e-12 7.86393e+06)
(1.69411e+07 -1.58727e+06 -1.19956e-11 339701 -2.21526e-13 4.28771e+06)
(-7.13611e+07 -600519 -7.55625e-12 -17134.3 -1.00496e-11 -1.77104e+07)
(-3.3639e+07 -1.5743e+06 0 -286889 0 -8.41771e+06)
(5.75395e+07 -4.49255e+06 6.17305e-13 5.98028e+06 -1.35765e-12 1.57605e+07)
(-5.74954e+07 -4.48149e+06 -7.18762e-13 -5.97266e+06 -1.17516e-12 -1.57477e+07)
(2.15519e+07 6.03448e+06 -5.71165e-13 1.64762e+06 5.04178e-13 5.75628e+06)