/*--------------------------------*- C++ -*----------------------------------*\
| =========                 |                                                 |
| \\      /  F ield         | OpenFOAM: The Open Source CFD Toolbox           |
|  \\    /   O peration     | Version:  v3.0+                                 |
|   \\  /    A nd           | Web:      www.OpenFOAM.com                      |
|    \\/     M anipulation  |                                                 |
\*---------------------------------------------------------------------------*/
FoamFile
{
    version     2.0;
    format      ascii;
    class       volScalarField;
    location    "3000";
    object      sigmaEq;
}
// * * * * * * * * * * * * * * * * * * * * * * * * * * * * * * * * * * * * * //

dimensions      [1 -1 -2 0 0 0 0];

internalField   nonuniform List<scalar> 
27023
(
2.33083e+07
2.33338e+07
1.71177e+07
1.70995e+07
2.23781e+07
2.24032e+07
7.44332e+07
7.43859e+07
9.1703e+06
9.16372e+06
5.31095e+07
5.30659e+07
2.3128e+06
2.3146e+06
2.14875e+07
1.5478e+07
1.47219e+07
4.56552e+07
4.57067e+07
3.28487e+07
3.28053e+07
7.3947e+07
7.38995e+07
3.39479e+07
3.3916e+07
5.60674e+06
2.4111e+07
3.61127e+06
2.34182e+07
2.61834e+07
1.19019e+07
3.29531e+07
3.29096e+07
3.46426e+07
2.1038e+07
2.6949e+07
2.88474e+07
2.87975e+07
9.03509e+06
9.02865e+06
1.71702e+07
1.71885e+07
1.75985e+07
2.25002e+07
2.25255e+07
4.51383e+07
4.50872e+07
3.2842e+07
3.2803e+07
2.42419e+07
3.17013e+07
3.16622e+07
3.38417e+07
506248
503143
3.80284e+07
1.59034e+07
2.81395e+07
1.36364e+07
1.77374e+07
1.77193e+07
2.34366e+07
4.78784e+06
4.52753e+06
1.7547e+07
1.04137e+07
2.95582e+07
6.92735e+06
2.49898e+07
1.67177e+07
2.74656e+07
2.74152e+07
4.82751e+07
4.82378e+07
6.89254e+07
6.8879e+07
841002
838418
8.07941e+07
8.08423e+07
1.80387e+07
5.12646e+07
5.12212e+07
4.68134e+07
4.67762e+07
7.31957e+07
7.3242e+07
2.94405e+07
5.26471e+06
1.42442e+07
1.35476e+07
2.41257e+07
2.40984e+07
1.78211e+07
6.66441e+06
3.4216e+07
3.42442e+07
1.80063e+07
1.42598e+07
5.30391e+06
2.23177e+07
1.37822e+07
1.38605e+07
5.80889e+07
5.80479e+07
4.20882e+06
6.61093e+07
6.6065e+07
3.74141e+07
2.61115e+07
1.70309e+07
6.58828e+07
6.58388e+07
3.37989e+07
3.37677e+07
6.94837e+07
6.94373e+07
1.79807e+07
2.59557e+07
1.91587e+07
1.67624e+07
3.06527e+06
6.40917e+07
6.41388e+07
8.16118e+07
8.1562e+07
2.3457e+07
2.34298e+07
5.8972e+07
5.89309e+07
1.26415e+07
2.37445e+06
2.39196e+06
1.10952e+07
1.47875e+07
7.32734e+07
7.33199e+07
7.81754e+06
4.65612e+07
4.65111e+07
6.95455e+07
6.9592e+07
6.31306e+06
7.17535e+07
7.17071e+07
1.1228e+07
1.32098e+07
3.10427e+07
3.02215e+07
3.83929e+07
3.83558e+07
4.05689e+07
4.05337e+07
2.13416e+07
2.07546e+07
2.25288e+07
2.23621e+07
2.1454e+07
4.59968e+07
4.5947e+07
4.2723e+07
1.80999e+07
3.65918e+07
5.47583e+06
4.71665e+07
4.72044e+07
6.27814e+07
6.2826e+07
1.31536e+07
3.59929e+06
7.02844e+06
8.13524e+07
8.14003e+07
1.56405e+07
1.52109e+07
2.31878e+07
3.76107e+06
5.67801e+06
1.60203e+07
8.71426e+06
3.02824e+07
6.6536e+07
6.65814e+07
2.34981e+07
4.22692e+07
4.4887e+07
3.21217e+07
3.21485e+07
3.84475e+07
1.44936e+07
6.28564e+07
6.29011e+07
1.77086e+07
5.35437e+06
8.13973e+07
8.13482e+07
4.76008e+07
6.13637e+07
6.14089e+07
2.42204e+07
2.28705e+07
2.51327e+07
6.76441e+07
6.75964e+07
2.13494e+07
2.1374e+07
1.60736e+07
4.70048e+07
6.74194e+07
6.73714e+07
282537
280572
1.87267e+07
1.71601e+07
1.0428e+07
1.04363e+07
2.05782e+07
4.58275e+06
7.21227e+06
7.18277e+07
7.18739e+07
1.26715e+07
6.42414e+07
6.42881e+07
2.17478e+07
6.24519e+07
6.24059e+07
4.86112e+07
4.85743e+07
4.6832e+06
4.68169e+06
5.61479e+06
6.44692e+07
6.44226e+07
4.33944e+07
6.3182e+07
6.31349e+07
6.98254e+07
2.62566e+07
7.96008e+07
7.96501e+07
2.51277e+07
4.47255e+07
4.44859e+07
3.52417e+07
1.91356e+07
5.76494e+06
2.26527e+07
3.7064e+07
3.45063e+07
7.36012e+07
7.36477e+07
1.67838e+07
1.47886e+07
4.71997e+07
4.77773e+07
5.7693e+07
4.37369e+07
3.715e+07
3.71013e+07
1.69809e+07
8.39234e+06
4.00044e+07
6.4918e+07
6.48708e+07
7.14599e+07
7.14134e+07
6.02934e+06
1.46296e+07
6.08891e+07
6.08438e+07
2.76471e+07
1.59844e+07
3.06211e+07
7.63501e+06
5.88763e+06
4.73495e+07
4.73875e+07
3.734e+07
3.73977e+07
3.23795e+07
3.96414e+07
9.28897e+06
8.9446e+06
627644
631699
1.67299e+07
2.05282e+07
1.77469e+07
3.03347e+07
3.1433e+06
1.62511e+07
6.01614e+07
6.02061e+07
7.21538e+07
7.21997e+07
3.50941e+07
4.66545e+07
6.75925e+07
6.76384e+07
2.57813e+06
1.54315e+07
6.08482e+07
6.08909e+07
1.11742e+07
1.35972e+07
1.35744e+07
2.03735e+07
2.36717e+07
7.42545e+06
3.09145e+06
391505
389164
5.58789e+06
5.58732e+06
3.1685e+07
3.33466e+07
3.33935e+07
955732
2.33025e+07
3.59599e+06
3.60678e+06
2.5236e+07
2.08263e+07
1.70516e+07
2.42935e+07
5.47145e+07
8.2818e+06
2.9077e+07
3.53354e+07
1.41346e+07
3.54003e+07
6.26256e+07
6.69543e+06
2.6668e+07
3.39799e+07
3.40139e+07
1.16874e+07
1.54859e+07
5.61991e+07
5.61588e+07
4.59486e+07
4.61999e+07
264896
263058
2.35325e+07
2.60778e+07
2.60504e+07
1.98361e+07
9.37404e+06
3.52384e+07
3.52903e+07
6.65059e+07
6.64595e+07
181995
180347
1.73697e+07
7.72153e+07
7.72625e+07
5.31537e+06
2.86909e+07
6.53001e+07
6.53461e+07
7.13031e+07
7.13519e+07
1.41666e+07
2.88059e+07
1.47273e+07
2.81486e+07
2.81782e+07
7.69822e+07
7.70291e+07
1.75743e+07
4.35971e+07
1.71089e+07
4.45612e+07
4.40267e+07
2.33354e+07
2.87667e+07
2.66193e+07
2.23835e+07
2.65666e+07
7.56342e+07
7.55865e+07
2.15843e+07
8.57606e+06
1.28561e+07
4.53701e+07
3.27569e+07
6.44367e+06
2.22185e+07
9.38548e+06
2.8702e+07
6.36546e+06
1.53746e+07
8.43769e+06
2.81903e+07
1.52712e+07
6.43567e+07
3.02445e+07
4.80655e+07
4.80287e+07
2.09888e+07
1.68602e+07
9.5792e+06
2.83648e+07
2.83945e+07
1.75738e+06
1.5438e+07
3.09961e+07
2.21172e+06
3.09659e+07
832052
826701
1.36973e+07
3.75949e+07
2.67626e+07
4.60217e+07
2.51041e+07
3.24608e+07
1.34028e+07
4.07422e+07
1.49266e+07
6.30728e+06
4.19312e+06
6.15334e+07
6.55766e+07
6.56221e+07
5.67507e+07
7.46153e+06
4.43658e+07
1.95804e+07
6.31498e+07
6.31031e+07
4.18423e+07
4.1879e+07
4.5869e+07
7.8761e+06
1.21136e+07
1.21045e+07
5.75662e+07
5.75467e+07
3.90533e+07
3.90063e+07
390720
393384
1.34286e+07
1.09512e+07
3.64066e+07
1.45721e+07
1.56448e+07
6.3846e+07
6.38924e+07
6.36434e+07
6.36898e+07
3.99332e+07
3.98891e+07
4.20154e+07
4.19769e+07
9.83802e+06
5.11495e+06
8.76508e+06
3.5199e+07
1.54878e+07
4.25193e+07
1.50981e+07
7.94536e+07
7.95032e+07
3.85826e+07
1.95811e+07
1.07031e+07
5.18953e+07
4.45537e+07
2.71393e+07
1.02526e+07
6.06452e+07
6.06015e+07
1.77068e+07
1.7609e+07
1.51295e+07
1.51108e+07
6.37775e+07
6.37311e+07
2.69602e+06
1.11756e+07
9.91757e+06
1.68367e+07
6.23164e+07
8.52979e+06
5.36892e+07
5.3733e+07
2.51669e+07
2.92385e+07
2.43734e+06
3.37355e+07
3.37826e+07
2.85948e+07
2.85647e+07
2.23344e+07
5.3431e+07
3.12736e+07
2.30165e+07
2.30417e+07
3.46095e+07
1.5248e+07
2.87932e+07
2.87497e+07
2.37303e+07
7.65502e+07
7.6498e+07
5.45489e+07
5.45051e+07
3.20051e+07
5.66199e+07
5.66634e+07
1.81622e+07
2.56355e+07
5.95557e+07
5.95082e+07
4.5979e+07
6.64008e+07
6.64466e+07
3.87335e+07
5.70555e+07
5.70973e+07
3.74372e+07
3.74951e+07
8.74538e+06
5.16409e+07
5.15974e+07
3.05836e+07
7.15844e+06
7.25167e+06
9.5171e+06
3.99415e+07
3.99091e+07
7.35349e+07
7.35812e+07
2.8265e+07
4.73248e+07
2.33611e+07
3.77779e+06
2.84826e+07
2.62633e+07
1.67608e+07
1.20661e+07
1.20752e+07
5.47324e+07
7.24657e+07
7.25118e+07
2.80171e+07
3.17381e+06
5.70025e+07
5.7043e+07
2.76706e+07
3.68455e+07
3.68668e+07
1.35251e+06
8.34085e+06
1.1564e+07
2.27373e+07
2.41079e+07
2.79307e+07
2.78883e+07
3.32422e+07
1.61164e+07
5.1887e+07
5.18395e+07
1.27801e+07
3.24606e+07
3.2502e+07
1.00338e+07
3.31193e+07
3.3086e+07
5.91717e+07
5.9216e+07
3.85601e+07
3.85973e+07
3.72235e+07
2.17541e+07
2.17527e+07
3.64973e+07
3.98018e+07
3.98398e+07
2.60537e+07
1.58435e+07
1.27136e+07
3.88171e+07
1.58492e+07
7.83312e+06
1.88864e+07
6.11891e+07
3.17019e+07
3.16692e+07
2.86956e+07
3.24383e+07
3.2407e+07
2.7227e+07
4.59815e+07
4.60178e+07
9.82042e+06
5.51109e+06
3.30006e+07
3.30448e+07
6.19652e+07
6.1918e+07
4.74506e+07
1.62525e+07
2.52829e+07
4.94741e+07
4.9432e+07
6.99942e+07
6.99476e+07
2.32074e+07
1.80548e+07
9.01222e+06
9.31675e+06
2.2869e+07
2.281e+07
2.82786e+07
180955
328834
331072
182173
1.77586e+07
2.08173e+06
2.083e+06
3.69175e+07
3.69536e+07
2.30815e+07
2.31079e+07
3.3725e+07
3.36911e+07
1.0606e+07
4.10345e+07
4.1001e+07
3.65979e+07
1.8272e+07
3.82788e+07
3.83116e+07
2.2097e+07
4.61154e+07
4.60757e+07
2.89264e+07
2.08447e+07
4.48257e+07
3.69263e+07
3.69624e+07
4.41482e+07
5.8908e+06
4.07882e+06
2.17028e+07
5.88601e+07
5.89023e+07
1.69957e+07
3.16222e+07
7.6777e+07
7.6824e+07
412450
415196
3.93772e+07
3.93341e+07
3.40549e+07
6.16466e+06
7.84717e+07
7.8426e+07
2.03774e+07
3.18526e+07
1.16429e+07
1.60093e+07
2.75973e+07
2.53719e+07
1.4721e+07
2.58568e+06
9.87942e+06
4.29488e+07
2.58557e+07
4.04234e+07
3.84528e+07
2.05485e+07
1.7107e+07
495090
493126
4.58155e+07
4.57787e+07
2.75391e+07
2.24071e+06
1.77685e+07
6.70585e+06
3.51144e+07
3.80203e+07
3.16973e+07
4.74759e+06
2.41353e+07
2.68053e+07
9.71601e+06
2.09585e+07
2.09328e+07
2.84906e+07
4.96073e+07
6.56763e+06
2.50254e+07
6.05945e+07
6.05506e+07
6.81324e+07
6.81794e+07
426705
423682
4.43532e+06
1.37132e+07
1.93786e+07
7.12629e+06
2.91198e+07
2.91455e+07
2.13728e+07
9.70218e+06
9.69634e+06
7.1948e+07
7.19947e+07
5.64253e+07
5.27435e+07
5.27033e+07
1.6592e+07
4.51437e+07
2.84145e+07
1.72586e+07
4.47701e+07
6.06669e+06
5.90316e+07
5.89843e+07
2.40265e+07
6.19974e+06
7.10557e+07
7.10068e+07
2.39154e+07
6.41348e+07
1.78534e+07
6.4173e+07
1.7797e+07
1.77839e+07
3.23784e+07
2.31546e+07
3.40601e+07
1.50322e+07
3.39869e+07
1.4363e+07
5.92672e+07
1.03007e+07
2.20401e+07
2.20167e+07
6.7938e+07
6.79841e+07
1.76756e+07
5.44832e+06
5.7527e+07
5.75696e+07
3.73107e+07
3.10679e+07
2.55607e+07
1.15012e+07
2.81646e+07
2.61036e+07
2.60761e+07
1.01589e+07
3.01859e+07
3.01541e+07
6.70927e+07
6.71394e+07
2.27855e+06
2.59118e+07
5.63942e+06
5.92144e+07
4.90018e+07
4.89589e+07
2.57353e+07
8.11496e+06
1.88121e+07
4.03789e+07
1.68376e+07
2.20732e+07
1.01733e+07
2.36504e+07
2.85797e+07
6.84647e+07
6.8418e+07
5.53229e+07
5.52789e+07
4.45453e+07
4.37583e+07
9.62472e+06
1.25378e+07
6.63469e+07
6.63001e+07
4.67728e+07
4.25001e+07
2.93472e+06
1.75414e+07
5.69154e+06
4.89327e+06
4.88785e+06
1.76606e+07
7.48004e+06
7.25512e+07
7.25037e+07
3.85026e+06
1.98948e+07
8.51577e+06
8.00682e+07
8.0021e+07
2.39088e+07
2.39337e+07
2.56218e+07
1.99426e+07
1.99675e+07
1.0411e+07
5.66059e+06
5.74229e+06
7.20889e+06
6.17966e+07
6.17496e+07
1.04801e+07
3.32609e+07
3.33075e+07
6.96553e+07
6.96071e+07
2.10432e+07
2.07994e+07
4.31173e+07
4.30782e+07
7.02658e+07
7.03136e+07
7.61527e+06
4.36594e+07
7.22911e+07
7.22432e+07
4.57001e+07
4.66574e+06
3.89188e+07
3.88828e+07
5.47182e+07
5.46701e+07
3.58992e+07
5.9335e+07
5.93779e+07
7.60916e+07
7.61372e+07
3.59262e+07
1.91458e+07
2.70727e+07
1.28215e+07
4.7864e+07
4.78135e+07
6.12391e+07
5.89188e+06
5.68399e+06
6.12759e+07
1.72829e+07
2.77957e+07
2.74072e+07
3.01638e+07
3.01313e+07
4.9925e+06
8.99859e+06
3.30237e+07
4.85118e+07
4.85284e+07
1.97419e+07
1.97397e+06
605368
604731
2.25367e+07
2.52552e+07
2.30217e+07
7.09938e+07
7.09473e+07
3.76705e+07
3.34763e+07
3.71607e+07
2.11948e+07
4.31656e+07
4.31258e+07
4.37232e+07
1.60409e+07
3.77262e+07
2.43064e+07
2.45027e+07
3.71867e+07
4.05616e+07
3.93224e+07
3.92868e+07
6.0643e+07
6.06892e+07
3.95724e+07
1.28284e+07
2.57808e+07
5.65423e+07
5.64983e+07
5.39384e+07
5.39845e+07
1.29962e+07
2.12557e+07
4.82026e+07
4.8152e+07
2.85278e+07
9.01809e+06
9.00929e+06
2.24304e+07
2.25233e+07
6.13647e+07
3.70469e+07
3.89684e+07
4.61845e+07
2.46207e+07
2.61023e+07
9.51891e+06
6.99166e+07
6.98702e+07
6.29654e+06
1.09083e+07
1.18274e+07
2.71784e+07
1.28455e+07
1.69621e+07
4.23705e+06
2.62691e+07
2.12975e+07
1.39204e+07
1.0874e+07
2.27278e+07
1.80196e+07
5.58549e+07
1.49661e+07
1.47231e+07
1.26113e+07
1.26209e+07
2.22918e+07
1.00338e+07
1.00411e+07
1.90279e+07
9.95502e+06
4.11716e+07
4.1139e+07
2.37603e+07
7.65032e+06
7.64123e+06
1.99721e+07
1.25578e+07
2.25338e+07
2.84618e+07
3.05386e+07
2.10621e+07
6.50744e+07
2.37474e+07
2.23685e+07
3.6853e+07
2.52016e+07
2.51741e+07
9.23163e+06
1.00783e+07
2.54227e+06
2.54233e+06
3.27526e+07
3.99722e+06
2.65876e+07
2.01948e+07
2.52213e+07
2.52623e+07
4.52856e+07
7.67546e+06
2.35303e+07
1.32548e+06
1.32683e+06
2.53601e+07
1.7733e+07
1.33918e+07
4.45893e+06
1.49579e+07
4.45191e+07
2.15459e+07
3.34821e+07
2.62625e+07
2.63051e+07
5.19592e+07
4.04441e+07
1.04417e+07
1.13813e+07
3.03164e+07
4.7295e+07
4.7337e+07
5.66862e+06
1.95159e+07
4.9929e+07
1.3076e+07
1.30862e+07
2.6907e+07
1.79102e+07
2.74897e+07
6.0683e+07
6.07281e+07
1.09984e+07
2.92657e+07
2.92763e+07
4.32627e+07
4.32267e+07
2.05626e+07
2.65777e+07
845180
844444
1.97191e+07
2.30175e+06
9.28656e+06
6.77911e+07
6.77442e+07
8.83865e+06
7.81184e+07
7.80664e+07
7.14728e+06
3.30082e+07
1.02437e+07
4.63842e+07
1.80387e+07
8.40438e+06
4.64278e+07
4.86537e+07
5.40123e+06
1.95294e+07
2.75263e+07
2.75692e+07
2.58679e+07
2.6472e+07
4.36754e+07
1.95426e+07
2.97848e+07
7.14914e+06
7.23037e+06
1.07767e+07
1.48357e+07
4.86509e+06
7.86901e+06
1.7236e+07
6.18865e+06
9.59225e+06
2.85433e+07
1.63777e+07
3.6832e+07
2.72558e+07
1.58783e+07
4.55313e+07
4.24782e+07
5.23585e+07
5.2402e+07
1.60586e+07
6.55606e+06
2.47691e+07
2.48106e+07
5.19969e+07
5.19493e+07
1.79787e+07
7.98115e+06
3.656e+07
6.3678e+06
6.37578e+06
6.60163e+07
6.59698e+07
6.40487e+06
1.2828e+07
2.39299e+07
1.39685e+07
5.99388e+06
1.66181e+07
7.30352e+06
7.23117e+06
4.52446e+07
3.98332e+07
3.98007e+07
2.29032e+07
2.29252e+07
1.25519e+07
1.09579e+07
6.60713e+07
6.60246e+07
1.44326e+07
1.07397e+07
2.39908e+07
1.03514e+07
4.13662e+07
1.82735e+07
1.6126e+07
1.36176e+07
4.95142e+07
8.2583e+06
1.61048e+07
5.87878e+07
4.15481e+07
4.15143e+07
5.21299e+07
9.84683e+06
2.71678e+07
2.1722e+07
2.25761e+07
5.71878e+07
5.71359e+07
2.15518e+07
6.00404e+07
7.62239e+06
7.62821e+06
9.50067e+06
9.49308e+06
2.01293e+07
2.46411e+07
2.25592e+07
6.80823e+07
6.47669e+07
6.48138e+07
1.28096e+07
1.27907e+07
1.71771e+07
6.99207e+07
6.98739e+07
2.77473e+07
2.75639e+07
7.09988e+06
306363
304193
2.206e+07
1.35385e+07
5.53695e+07
1.4828e+07
6.28705e+07
6.29144e+07
2.29601e+07
5.30258e+07
5.26401e+07
2.04552e+07
1.36713e+07
2.34603e+06
2.3582e+07
2.35616e+07
6.56189e+07
6.5666e+07
1.16689e+07
2.73761e+07
2.7393e+07
6.03559e+07
6.04013e+07
1.24315e+07
3.35714e+07
2.78335e+07
1.17738e+07
2.50585e+07
2.50313e+07
2.15909e+07
1.58519e+07
4.79962e+07
4.45261e+06
2.81368e+07
2.81667e+07
2.88441e+07
1.33084e+07
5.70941e+07
5.61471e+07
5.61008e+07
4.30069e+07
5.21398e+06
2.20759e+07
2.21177e+07
7.40555e+07
7.40055e+07
3.07856e+07
4.51584e+07
4.51198e+07
2.97891e+07
4.74074e+07
3.79679e+07
3.7942e+07
2.31669e+07
1.75462e+07
4.81251e+06
3.41767e+06
3.53798e+07
1.24026e+07
9.10168e+06
426137
423020
4.74133e+07
9.88386e+06
9.87422e+06
5.668e+07
5.66357e+07
4.16744e+06
7.067e+07
7.06218e+07
5.33544e+07
5.33959e+07
7.4902e+07
7.49472e+07
1.968e+07
6.89288e+07
6.88821e+07
6.55023e+06
2.38448e+07
2.58691e+06
2.0819e+07
1.57172e+07
2.09813e+07
5.38006e+07
5.37572e+07
1.6827e+07
1.68527e+07
1.37765e+07
2.92888e+06
7.5474e+06
4.36503e+07
8.51581e+06
3.19839e+07
4.74203e+07
1.6912e+07
1.00321e+07
6.1144e+06
6.11086e+06
4.4128e+07
2.75559e+07
4.36092e+07
2.83175e+07
1.30956e+07
1.14743e+07
2.61568e+07
2.61078e+07
2.62465e+07
1.62648e+07
2.50307e+07
2.50592e+07
1.11824e+07
3.41719e+07
6.7008e+07
3.20269e+07
3.20576e+07
4.71905e+07
2.28711e+07
2.54001e+07
2.89714e+07
3.18199e+07
6.705e+07
2.90073e+07
3.75961e+07
3.05491e+07
1.622e+07
2.64279e+07
9.44722e+06
2.41661e+07
1.87269e+07
1.46673e+07
6.6085e+06
1.56069e+07
2.56023e+07
2.5345e+07
1.73698e+07
5.44368e+07
5.43889e+07
3.92939e+07
1.72211e+07
9.70197e+06
1.2678e+07
4.63851e+07
4.20283e+07
4.86603e+06
5.54887e+07
1.96654e+07
9.0889e+06
4.20767e+07
2.48604e+07
3.60915e+07
1.54262e+07
8.26462e+06
4.22933e+07
4.16402e+07
2.9131e+07
735047
731216
4.72767e+07
5.13939e+07
5.14372e+07
5.65537e+06
5.74202e+07
5.73776e+07
1.60749e+07
2.49108e+07
2.48847e+07
3.10652e+07
1.31532e+06
7.87803e+06
7.21846e+07
7.21353e+07
6.62419e+06
5.54049e+07
6.04699e+07
2.208e+07
5.64147e+07
5.63707e+07
2.97385e+07
8.95729e+06
7.66969e+06
5.13898e+07
2.56356e+07
2.55921e+07
447187
444158
6.30767e+06
1.72221e+07
4.2482e+07
4.24428e+07
5.80225e+07
5.79813e+07
5.07842e+07
1.12935e+07
2.15732e+07
5.2841e+07
5.28024e+07
5.65505e+06
718593
722465
5.3055e+07
5.30405e+07
5.82544e+07
5.82964e+07
5.66024e+07
6.56998e+07
6.56525e+07
4.28441e+07
4.28077e+07
3.17737e+07
1.49888e+07
6.08897e+07
6.02988e+07
2.40805e+07
4.91974e+06
6.02603e+07
1.01015e+07
2.8454e+07
3.36874e+07
3.61487e+07
2.17634e+07
6.28583e+07
6.28119e+07
1.47459e+07
5.49606e+07
5.5003e+07
6.60443e+07
6.60001e+07
2.35193e+07
4.18112e+07
4.18464e+07
2.57574e+07
2.57203e+07
2.65901e+07
2.44585e+07
2.44181e+07
2.72306e+07
6.81314e+07
6.81776e+07
1.764e+07
1.20403e+07
2.7251e+07
1.54893e+07
2.08622e+07
2.07612e+07
1.07729e+07
2.63455e+07
1.56999e+07
2.10621e+07
227288
229312
7.34085e+07
7.34546e+07
1.10126e+07
1.90102e+07
7.4656e+07
7.46059e+07
2.88914e+07
2.25141e+07
1.44489e+07
4.36715e+07
4.40516e+07
2.4463e+07
4.75423e+06
4.63577e+07
7.90854e+06
7.27161e+07
7.27645e+07
2.82242e+07
2.82679e+07
4.22372e+07
4.22882e+07
2.02098e+06
2.01026e+06
1.28607e+07
4.26965e+07
9.09743e+06
2.4345e+07
2.24514e+07
1.37947e+07
3.97688e+06
3.97615e+06
1.28071e+07
3.46239e+06
2.26135e+07
2.75899e+07
2.76207e+07
2.09211e+07
4.72148e+06
3.26042e+07
4.43221e+07
4.42826e+07
2.54748e+07
1.65737e+07
4.73247e+07
4.73754e+07
2.03547e+07
4.38489e+07
4.38835e+07
3.9198e+07
2.01888e+07
2.39517e+07
1.42316e+07
1.69242e+07
1.69044e+07
6.09979e+07
1.27274e+07
3.88619e+07
3.88278e+07
4.36522e+06
3.41423e+07
3.41081e+07
6.33553e+06
4.93272e+07
4.92875e+07
2.66295e+07
2.6658e+07
4.52582e+06
1.73215e+07
1.73501e+07
5.21162e+07
5.21654e+07
3.23489e+07
1.72349e+07
3.23332e+07
3.65525e+07
3.65167e+07
3.21634e+07
1.09116e+07
2.57551e+07
2.58083e+07
8.58541e+06
6.76912e+07
6.76427e+07
9.08792e+06
4.15845e+07
6.67305e+07
6.66843e+07
807002
808182
8.54735e+06
5.60173e+07
5.59768e+07
7.4698e+06
2.58316e+07
2.57808e+07
5.89124e+06
5.88686e+06
1.08904e+07
2.45537e+07
6.72649e+07
6.72166e+07
7.6735e+07
7.67826e+07
2.40516e+07
1.02219e+07
1.13699e+07
1.13779e+07
1.77099e+07
230338
228624
7.1369e+07
7.1415e+07
1.87431e+07
1.51765e+07
1.51628e+07
8.53908e+06
5.80735e+07
5.81153e+07
1.42035e+07
1.58788e+07
6.64659e+07
6.65128e+07
6.30425e+07
6.30886e+07
1.77256e+07
1.34796e+07
4.44503e+07
2.13585e+07
1.40081e+07
6.80239e+06
2.24386e+07
2.33905e+07
2.93179e+07
2.95303e+07
5.33898e+07
5.34375e+07
6.66821e+07
6.66351e+07
5.31865e+07
2.83695e+07
8.21641e+06
1.61462e+07
6.29192e+07
2.7733e+07
4.36225e+07
4.0461e+07
4.40616e+07
3.53329e+07
3.52875e+07
3.221e+07
3.22427e+07
6.90826e+06
9.04544e+06
2.44969e+07
1.07828e+07
1.32656e+07
2.17999e+07
2.34726e+07
9.96958e+06
2.76752e+07
2.76272e+07
8.16899e+06
3.03078e+07
3.0354e+07
1.23574e+07
7.47529e+07
7.48048e+07
6.36557e+07
6.36999e+07
1.41908e+07
4.47005e+07
4.47367e+07
8.15352e+07
8.14869e+07
5.05546e+07
5.05167e+07
3.89977e+07
3.89602e+07
5.94459e+07
1.32333e+07
1.83044e+07
9.26714e+06
2.91931e+07
2.92234e+07
4.54875e+07
4.55235e+07
1.70004e+07
1.69837e+07
1.32428e+07
7.70099e+07
7.69636e+07
2.82553e+07
3.92397e+07
3.92981e+07
2.20241e+07
2.8087e+07
4.11379e+07
1.24486e+07
2.36336e+07
2.35561e+07
5.866e+06
2.9054e+07
2.65823e+07
3.07114e+06
3.07179e+06
5.02892e+07
1.04811e+07
1.09013e+07
1.44641e+07
3.56678e+07
5.81669e+07
1.44245e+07
1.79906e+07
1.79716e+07
5.67953e+07
5.67485e+07
3.49081e+07
3.48734e+07
1.65152e+07
1.47356e+07
1.37099e+07
1.07955e+07
1.3035e+07
4.93166e+07
1.81892e+07
2.01499e+07
8.02186e+06
5.50526e+07
5.50343e+07
5.78179e+06
5.78099e+06
1.51557e+07
1.32094e+07
3.78477e+07
3.78985e+07
4.14639e+07
4.14245e+07
7.14097e+07
7.13602e+07
1.69052e+07
9.41011e+06
9.33257e+06
4.43666e+06
5.14844e+07
5.2141e+07
6.35336e+07
6.3581e+07
2.89902e+07
3.46036e+06
4.70482e+07
4.70057e+07
3.04156e+07
3.0346e+07
2.26812e+07
1.02659e+07
2.96576e+07
1.4921e+07
2.19912e+07
2.18964e+07
4.38638e+07
4.38265e+07
4.29605e+07
6.24247e+07
6.23781e+07
5.4227e+07
5.41832e+07
5.85638e+07
2.23598e+07
2.22954e+07
2.10466e+07
2.10728e+07
1.09295e+07
1.68348e+07
3.057e+07
2.47624e+07
2.48127e+07
1.12989e+07
1.1307e+07
1.65072e+07
3.00993e+07
4.01144e+07
4.01491e+07
3.45734e+07
1.56092e+07
7.545e+07
7.54973e+07
1.53138e+07
4.07105e+07
5.15608e+07
1.63539e+07
4.25808e+07
4.95874e+07
4.96257e+07
1.74847e+07
5.3304e+07
5.32641e+07
1.73397e+07
1.69502e+07
4.26191e+07
3.74267e+07
3.74625e+07
2.01177e+07
2.04137e+07
3.45754e+06
6.5136e+07
6.50893e+07
7.71208e+06
1.15995e+07
3.53402e+07
3.52962e+07
2.35957e+07
2.35468e+07
2.34131e+07
8.55106e+06
3.4253e+06
3.36834e+06
3.49689e+07
3.4923e+07
1.48738e+07
1.05256e+07
2.46992e+07
4.61097e+07
5.00512e+06
1.14952e+07
4.02736e+06
5.35858e+06
2.27566e+07
5.54496e+07
1.8254e+07
5.79667e+07
5.79226e+07
2.46133e+07
3.73941e+06
3.73932e+06
5.5308e+07
5.52663e+07
1.89075e+07
5.9858e+07
5.99024e+07
2.4047e+07
5.44972e+07
9.31048e+06
1.84926e+06
1.84938e+06
7.61698e+06
4.71582e+07
4.72026e+07
2.91089e+07
4.89005e+06
2.95136e+07
1.51626e+07
5.31806e+07
2.57326e+07
1.82026e+07
1.82309e+07
3.78195e+07
3.77828e+07
2.83345e+07
1.3634e+07
2.34256e+07
5.18841e+07
5.19227e+07
8.02967e+06
6.8129e+06
6.80559e+06
2.47811e+06
6.69827e+07
6.70292e+07
1.02251e+07
1.47912e+07
2.22435e+07
2.04811e+07
2.04183e+07
2.92093e+07
2.91618e+07
2.03659e+07
2.46356e+07
3.25061e+07
3.23702e+07
3.98455e+07
2.69819e+07
4.08817e+07
5.50214e+06
5.05891e+07
1.64271e+07
2.42229e+07
2.41702e+07
6.18321e+06
1.76945e+07
1.76751e+07
5.4464e+07
5.44277e+07
4.49141e+07
6.16791e+07
4.66238e+06
1.16674e+07
2.36274e+07
5.24054e+06
5.11788e+07
4.93367e+07
3.40974e+07
2.11158e+07
2.83909e+07
1.04707e+07
2.81338e+07
3.43299e+07
3.43755e+07
3.2211e+07
3.21766e+07
4.34783e+07
4.42943e+07
2.10818e+07
3.17288e+07
3.17768e+07
5.89312e+06
3.74731e+07
3.73004e+07
5.23874e+07
5.24268e+07
1.2715e+07
3.80331e+07
8.57864e+06
2.83854e+07
5.0088e+07
227310
229432
2.42282e+07
1.44086e+07
1.64975e+07
1.26194e+07
7.90982e+06
2.64258e+07
2.63968e+07
4.22232e+07
4.22576e+07
2.42092e+07
5.33742e+07
6.86442e+07
6.85975e+07
3.69616e+07
3.69939e+07
2.21914e+07
1.75164e+07
1.81264e+07
2.22596e+07
3.91915e+07
3.93886e+07
1.5662e+07
3.5254e+07
3.5335e+07
3.85706e+07
3.86078e+07
3.75593e+07
2.56053e+07
2.55776e+07
2.4299e+07
2.42423e+07
3.07529e+07
1.966e+07
1.97029e+07
1.13793e+07
1.60677e+07
4.70593e+06
1.7078e+07
2.27514e+07
8.09059e+06
8.0856e+06
1.90207e+07
2.28102e+07
4.14317e+07
4.14781e+07
1.60221e+07
2.30693e+07
2.38724e+07
2.75637e+07
3.20772e+07
3.20446e+07
2.90665e+07
6.67556e+07
6.68021e+07
2.63842e+07
2.82692e+07
1.2532e+07
4.41288e+07
3.54719e+07
3.54384e+07
1.31029e+07
3.27255e+07
2.70429e+07
6.12858e+07
6.13321e+07
4.04229e+07
4.04111e+07
1.85038e+07
1.95413e+07
1.83124e+07
1.28858e+07
1.83843e+07
1.66715e+07
2.2068e+07
2.05225e+07
3.67352e+06
5.66977e+06
4.26121e+07
4.26467e+07
7.51742e+06
7.00626e+07
4.70065e+07
4.70442e+07
4.51977e+07
2.83322e+07
2.69683e+07
2.19863e+07
2.83734e+07
6.49946e+07
6.50403e+07
9.74952e+06
3.04211e+07
4.46359e+07
4.46714e+07
2.5505e+07
2.39408e+07
3.88479e+07
95660.3
94203.6
2.2934e+07
5.71613e+07
5.7118e+07
2.3638e+07
8.33947e+06
1.99407e+07
4.60626e+07
3.73093e+07
1.86691e+06
7.00171e+07
1.20866e+06
1.20668e+06
1.62447e+07
3.31566e+07
1.06229e+07
871129
870180
2.72667e+07
4.07823e+07
4.082e+07
7.26442e+07
7.25966e+07
3.74997e+07
3.7536e+07
2.70932e+07
2.678e+06
2.67695e+06
2.75271e+07
1.45596e+07
2.01458e+07
4.17408e+06
2.30615e+07
2.15482e+07
5.15901e+07
5.15743e+07
4.71706e+07
4.72151e+07
7.56246e+06
2.34641e+07
6.2968e+07
1.53462e+07
3.1354e+07
870865
2.9582e+07
3.08644e+07
7.68221e+07
7.67701e+07
4.92629e+07
1.83743e+07
3.71719e+07
3.72285e+07
8.7467e+06
2.38323e+06
1.65524e+06
2.24321e+07
47159.2
46838.9
1.30907e+07
8.66896e+06
8.6615e+06
6.57073e+06
6.17422e+07
6.1785e+07
1.06959e+07
2.46939e+07
3.67789e+07
2.47524e+07
5.11299e+07
5.1104e+07
1.18362e+07
1.69188e+07
2.52876e+07
5.68182e+06
6.1504e+07
6.15469e+07
3.28843e+07
3.29591e+07
6.38323e+07
1.02051e+07
7.73859e+07
7.74347e+07
2.73532e+07
2.73248e+07
2.22679e+07
5.1325e+07
8.05556e+06
3.70242e+07
3.70556e+07
6.96308e+07
6.95837e+07
3.31268e+06
6.76367e+06
2.78224e+07
6.02192e+07
2.2323e+07
1.452e+07
4.37029e+07
4.37396e+07
1.09976e+07
1.94825e+07
2.67621e+07
4.4663e+07
1.12345e+07
2.63698e+07
4.12039e+07
4.11569e+07
5.69447e+07
6.8631e+07
6.86777e+07
673235
669022
3.30994e+07
2.45259e+07
7.04932e+07
3.00725e+07
3.71754e+07
3.72238e+07
3.77894e+07
2.46623e+07
5.23907e+07
2.21881e+07
1.28195e+07
7.28132e+07
7.28598e+07
4.82367e+07
4.94592e+07
4.95022e+07
7.76984e+07
7.77475e+07
7.04457e+07
268787
266790
2.29207e+07
7.56786e+07
7.57246e+07
3.79567e+07
3.80017e+07
1.0853e+07
1.086e+07
3.72567e+07
1.2145e+07
5.43483e+07
5.42995e+07
1.10311e+07
1.60244e+07
4.29924e+07
4.29548e+07
2.79614e+07
2.08627e+07
5.54209e+07
5.53809e+07
2.33364e+07
1.13337e+07
1.13216e+07
3.94988e+07
8.85578e+06
2.03717e+07
7.82933e+07
7.82409e+07
5.3221e+07
3.5535e+07
3.54894e+07
2.78861e+07
2.79168e+07
6.1745e+06
6.16963e+06
1.28594e+07
4.71699e+07
7.39375e+06
7.40125e+06
4.11275e+07
4.11742e+07
1.32222e+07
8.46742e+06
2.02141e+07
3.7836e+07
1.10701e+07
7.76966e+06
5.80869e+07
5.80429e+07
5.04644e+07
5.04238e+07
8.18603e+07
8.19098e+07
2.24511e+07
2.40987e+07
2.40234e+07
4.94566e+07
4.94127e+07
1.81198e+07
915065
920817
1.16456e+07
4.02206e+07
2.53687e+07
2.53337e+07
6.15444e+07
1.62559e+07
3.27377e+07
6.84416e+07
6.84876e+07
2.15564e+07
2.34055e+07
2.34619e+07
4.29816e+06
1.8843e+07
3.76776e+06
3.88658e+07
4.76773e+07
4.77193e+07
6.69852e+06
1.95927e+07
6.73767e+07
3.89231e+07
3.896e+07
1.29245e+07
5.06333e+07
5.05927e+07
5.78146e+06
1.59063e+07
1.62165e+07
5.22048e+06
1.27758e+07
6.72448e+06
5.27694e+07
5.28186e+07
5.12847e+07
5.1234e+07
9.45076e+06
6.38677e+07
6.39122e+07
6.42719e+06
1.15667e+07
6.43638e+06
2.11567e+07
2.11802e+07
2.21332e+07
2.15327e+07
1.28241e+07
3.99501e+06
2.24205e+07
1.99592e+07
5.11095e+07
5.10582e+07
1.77971e+07
2.10183e+07
4.27627e+07
1.64169e+07
5.87207e+07
4.7593e+07
1.64703e+07
1.70475e+07
5.84564e+06
1.05192e+07
7.03352e+07
7.03809e+07
6.96348e+07
6.96814e+07
3.81115e+06
2.85801e+06
2.86066e+06
2.88498e+07
1.71516e+07
2.24568e+07
2.88992e+06
8.10199e+06
5.28371e+07
5.4121e+06
2.86499e+06
7.10273e+07
7.10736e+07
1.84732e+07
1.60941e+07
5.60708e+07
2.96381e+07
2.96076e+07
4.83728e+07
5.84567e+07
1.32925e+07
4.13645e+07
1.73859e+07
3.60378e+07
6.82737e+06
5.51096e+06
1.50235e+07
1.59806e+07
7.41839e+07
7.42299e+07
3.15138e+06
3.1577e+06
1.9573e+07
3.67656e+06
3.54533e+07
3.54027e+07
1.55528e+07
1.89449e+07
1.93583e+07
3.98732e+07
3.99131e+07
5.65269e+07
5.69623e+06
3.11932e+07
2.21158e+07
5.99973e+06
4.52349e+07
8.61236e+06
2.71495e+07
3.00033e+06
3.49444e+06
1.8727e+07
3.9522e+06
1.59898e+07
3.35099e+07
7.08462e+07
7.07983e+07
3.07814e+07
3.0822e+07
1.93774e+07
1.93536e+07
9.62008e+06
3.91011e+07
2.75424e+07
2.71718e+07
2.72002e+07
5.54755e+07
2.21003e+07
3.46204e+06
2.75566e+07
2.45953e+07
1.59352e+07
1.13057e+07
2.80366e+06
2.80037e+06
2.62099e+07
2.6261e+07
7.74882e+06
7.75449e+06
4.1918e+07
3.47713e+07
2.04684e+07
1.76539e+07
2.2136e+07
1.68137e+07
914977
2.0575e+06
4.42081e+06
1.99939e+07
3.4575e+07
8.95012e+06
8.08614e+06
3.09768e+07
5.08436e+07
5.08488e+07
3.24577e+07
1.14398e+07
7.37867e+06
5.37864e+07
5.37374e+07
4.67106e+07
4.66705e+07
2.29453e+07
1.14594e+07
1.88725e+07
2.17672e+07
2.19682e+07
2.03971e+07
2.15736e+07
7.16058e+06
2.11113e+07
1.36781e+07
1.33878e+07
7.33998e+06
1.57312e+07
1.81581e+06
1.79778e+06
9.33139e+06
3.05954e+07
4.32267e+07
1.05783e+07
2.99306e+07
2.99512e+07
6.2013e+07
3.48423e+07
3.47997e+07
1.16936e+06
1.16155e+06
2.45212e+07
5.00478e+07
5.00078e+07
5.04339e+06
2.71003e+07
1.62061e+07
8.09972e+06
1.41922e+07
1.41832e+07
4.24854e+07
4.25236e+07
1.52033e+07
6.30982e+06
3.05844e+07
6.2791e+07
6.27455e+07
5.02418e+07
5.02045e+07
6.61001e+06
3.04134e+07
3.04437e+07
2.30031e+07
2.05946e+07
5.94799e+07
5.95271e+07
1.09756e+07
2.18828e+07
2.51576e+07
8.09344e+06
75480.7
75546.7
3.82599e+07
3.82999e+07
3.28254e+07
3.28721e+07
6.69371e+06
6.68921e+06
1.79198e+07
3.2251e+06
3.22601e+06
3.70438e+07
5.15865e+07
2.42911e+07
3.57725e+07
3.57293e+07
4.4546e+06
4.34251e+07
4.7822e+06
1.45565e+07
4.75585e+07
3.90391e+07
3.90766e+07
2.10814e+07
1.38834e+07
4.70329e+07
6.91793e+07
6.92274e+07
4.303e+07
4.99073e+07
4.98535e+07
3.06606e+07
3.06216e+07
29840.5
29594.1
2.04558e+07
2.49471e+07
1.36805e+07
6.71165e+07
2.26594e+07
2.52829e+07
2.03995e+07
2.04505e+07
6.59033e+07
6.58571e+07
1.59876e+07
5.96112e+07
5.95642e+07
2.7066e+07
3.21363e+07
3.2179e+07
5.80229e+07
2.59538e+07
5.47499e+07
5.47899e+07
5.21455e+07
2.49638e+07
3.40094e+07
2.00565e+07
2.10415e+07
4.30806e+07
4.3119e+07
2.06945e+07
2.06738e+07
1.65247e+07
4.11102e+06
5.67487e+07
2.17398e+07
6.02759e+06
3.0953e+07
3.10951e+07
1.16692e+07
7.61928e+07
7.62391e+07
5.25049e+07
5.2544e+07
6.76652e+06
1.12903e+07
1.13504e+07
6.65601e+07
4.67403e+07
3.2061e+07
6.32223e+06
6.03418e+07
2.32363e+07
6.37198e+07
5.06635e+06
6.66967e+06
1.42047e+07
1.8888e+07
3.45676e+07
3.52941e+07
3.52515e+07
4.64778e+06
7.90737e+07
7.91236e+07
4.00398e+07
3.99862e+07
2.42208e+07
1.82856e+07
9.43805e+06
9.63583e+06
3.91227e+07
6.24074e+07
6.23599e+07
4.16137e+07
1.45436e+07
1.24223e+07
9.53938e+06
841607
837843
6.49504e+07
3.79501e+06
4.19108e+07
4.18772e+07
2.26704e+07
2.26952e+07
1.58754e+07
1.59026e+07
3.42417e+07
3.47186e+07
4.32919e+06
3.43033e+07
7.26948e+06
2.45141e+07
2.45232e+07
3.49391e+07
2.36894e+07
2.37154e+07
2.67259e+07
4.88244e+07
4.88314e+07
9.80517e+06
1.61605e+07
1.57506e+07
1.94237e+07
1.42865e+07
7.92546e+06
2.17076e+07
6.59779e+07
6.60249e+07
2.94934e+07
2.92748e+07
2.93069e+07
7.99311e+07
7.99793e+07
2.73875e+07
1.68348e+07
4.22802e+07
4.23146e+07
1.56169e+07
2.71024e+07
1.12583e+07
2.47066e+07
1.39038e+07
4.60213e+07
2.74537e+07
2.74253e+07
9.3637e+06
1.0255e+07
1.02496e+07
7.59546e+07
7.59997e+07
2.94489e+07
3.09419e+07
2.02326e+07
2.14701e+07
3.09736e+07