/*--------------------------------*- C++ -*----------------------------------*\
| =========                 |                                                 |
| \\      /  F ield         | OpenFOAM: The Open Source CFD Toolbox           |
|  \\    /   O peration     | Version:  v3.0+                                 |
|   \\  /    A nd           | Web:      www.OpenFOAM.com                      |
|    \\/     M anipulation  |                                                 |
\*---------------------------------------------------------------------------*/
FoamFile
{
    version     2.0;
    format      ascii;
    class       volScalarField;
    location    "3000";
    object      sigmaxz;
}
// * * * * * * * * * * * * * * * * * * * * * * * * * * * * * * * * * * * * * //

dimensions      [1 -1 -2 0 0 0 0];

internalField   nonuniform List<scalar> 
27023
(
1.2674e-13
8.62251e-14
5.57256e-13
4.2717e-13
0
-4.23837e-13
3.52406e-12
-8.70404e-13
-8.2881e-14
-3.89778e-13
-5.22763e-13
-7.54996e-13
-5.35466e-14
2.86238e-14
6.41912e-13
7.89072e-13
-7.14411e-13
0
2.61161e-12
0
-5.72819e-14
-5.8693e-15
-2.03996e-12
-7.26163e-13
1.85589e-12
2.97925e-12
1.38615e-12
6.48122e-12
-1.08396e-12
-3.9982e-12
7.69547e-12
3.20421e-13
3.95836e-12
-3.8282e-13
7.821e-13
-8.45605e-12
1.35346e-12
2.70651e-12
1.53047e-13
-2.21298e-13
-1.64302e-13
-7.14391e-14
-8.54502e-12
-9.01519e-14
9.01391e-14
4.03105e-12
-2.90799e-12
-3.79012e-12
3.79009e-12
-2.55582e-12
2.86233e-12
-1.11779e-12
6.66262e-12
3.56072e-15
8.1864e-14
1.39313e-12
2.2508e-12
1.04848e-11
-1.88991e-12
-8.67944e-13
-5.80997e-13
-1.53354e-11
6.20467e-12
3.512e-12
-9.13374e-12
-1.81265e-12
9.43475e-13
-4.08619e-12
8.98614e-13
-8.94877e-12
0
-2.73367e-12
-2.58488e-13
-1.53576e-12
-1.62601e-12
-9.92105e-13
9.60696e-15
-5.26558e-14
6.08733e-12
-2.77687e-12
9.72036e-13
3.30066e-12
-2.59607e-12
-4.82848e-13
1.21209e-12
-3.89394e-12
-2.09106e-12
2.28581e-12
4.28998e-12
-3.7174e-12
2.18999e-12
1.08844e-13
-2.22074e-13
-3.11579e-13
-6.89953e-14
-2.99324e-12
-3.15601e-12
2.85028e-12
-4.56141e-12
2.47428e-12
-1.68907e-12
-7.08831e-12
-2.71465e-12
-2.40438e-14
1.68726e-12
1.07634e-11
-1.04177e-12
7.52483e-13
-3.98989e-12
2.21002e-11
-1.00459e-11
-7.03994e-14
8.12904e-13
-3.81596e-12
5.80921e-13
1.72616e-12
4.14797e-12
-2.78734e-13
-1.24259e-12
1.93884e-12
-1.08716e-11
6.4476e-12
-6.08474e-13
1.66195e-12
-3.0229e-12
1.41345e-12
-4.66197e-14
2.60154e-13
2.69715e-13
1.87034e-12
-8.60541e-13
2.0176e-14
-9.94069e-15
1.13764e-13
-7.80201e-12
-6.05587e-12
-1.51689e-13
1.8947e-12
1.96702e-12
2.24815e-13
-5.56182e-13
-4.36821e-12
-1.92658e-12
-1.85076e-12
-1.26305e-12
1.44785e-12
-7.26847e-12
-2.59147e-12
9.34863e-13
1.65166e-13
-2.40745e-13
9.26549e-13
-5.26247e-13
2.31178e-12
2.26366e-12
1.63063e-11
-6.94598e-12
4.7184e-12
4.89151e-12
-2.14576e-12
3.4794e-12
-7.75336e-12
7.41878e-12
7.96528e-12
-4.3003e-13
-4.50565e-13
-3.1127e-13
1.68664e-12
-2.67492e-13
-1.30311e-12
1.13077e-12
5.50847e-12
1.91339e-13
-1.80096e-12
0
9.84435e-12
1.03485e-11
-2.57099e-12
-1.88969e-12
3.01981e-13
8.01615e-13
-3.12545e-12
-2.00887e-12
-2.32136e-12
-5.35353e-12
1.51673e-12
1.42984e-12
-9.73481e-13
-5.16024e-12
3.5874e-12
-2.44716e-12
1.57472e-13
-6.64296e-13
-1.83835e-12
1.41181e-12
2.34621e-12
-9.22607e-12
8.76549e-13
5.29758e-13
4.94044e-13
4.08574e-12
9.36133e-13
2.98718e-12
5.76805e-12
0
-5.91901e-13
2.21241e-12
-1.33355e-12
2.62448e-12
3.22778e-12
0
1.0813e-15
-5.61566e-13
2.1843e-12
-2.54871e-13
1.49328e-13
-1.34147e-12
1.403e-12
2.66324e-12
2.08445e-12
2.85916e-12
9.02862e-12
8.07626e-13
7.74067e-14
-2.40866e-12
-1.69533e-12
3.74681e-12
-5.697e-13
-2.16663e-12
2.12517e-14
1.4312e-13
-6.76497e-12
-1.15567e-12
-1.91643e-12
-2.5486e-12
3.19626e-12
-1.36635e-12
4.99772e-12
2.29778e-13
3.92573e-12
-3.92753e-12
2.54126e-12
-2.79134e-13
-9.21548e-12
-8.56132e-13
9.98118e-13
8.58989e-12
7.99939e-13
-6.08505e-13
5.9397e-13
-2.41186e-12
3.66244e-12
-6.0792e-12
-9.60878e-13
2.44138e-12
-6.18283e-12
0
-5.20222e-12
-5.14037e-12
1.94562e-12
6.41669e-13
-1.66021e-12
-7.68728e-12
2.40242e-12
-4.62494e-12
-4.42215e-12
-2.06989e-13
-8.41705e-13
-3.77081e-12
-1.52875e-13
7.953e-14
1.76188e-11
6.64729e-12
8.86746e-13
-4.60405e-12
-1.71577e-12
-4.76733e-14
-3.11664e-14
-5.57672e-12
9.16359e-13
-1.73948e-11
1.79224e-12
2.35541e-11
-3.55102e-12
-1.64152e-14
-1.74385e-14
-4.73827e-12
1.12829e-11
-2.36391e-12
-2.36778e-14
-6.80642e-12
3.04958e-12
-4.73086e-13
2.16977e-12
0
-1.20341e-12
-4.05895e-12
2.30225e-12
2.4272e-12
0
-9.97887e-14
-1.01752e-12
7.56444e-13
0
-1.55177e-13
2.87382e-14
-9.34229e-15
-3.8856e-12
-7.76953e-12
-3.10169e-12
2.09316e-11
4.0447e-14
-4.0375e-14
1.34702e-13
3.26488e-13
3.7959e-12
-1.4776e-12
4.31176e-13
-4.2269e-12
1.66383e-12
-4.3598e-14
-6.84029e-14
8.22097e-13
8.65296e-13
-5.71733e-13
-7.33559e-13
4.58879e-12
-1.23183e-12
-3.11621e-12
4.50328e-13
-1.02399e-13
-2.10218e-12
-5.6917e-12
-2.63486e-13
-7.71185e-12
-4.36495e-13
-7.31287e-13
5.87879e-13
-1.64921e-12
-9.48852e-14
-1.25745e-12
1.98331e-11
-1.07997e-11
0
1.81132e-15
-1.68288e-12
-4.64763e-13
9.91822e-13
-2.43364e-12
2.33894e-12
2.9901e-12
-4.5986e-13
3.37617e-13
-2.0991e-12
2.28155e-14
-1.68287e-14
-6.1202e-13
3.8699e-12
-4.30099e-12
6.84243e-13
1.22076e-12
1.29702e-12
-3.83875e-12
5.90566e-14
1.58153e-12
-7.27671e-12
3.29874e-12
9.29868e-13
-4.33407e-13
4.3405e-13
-2.83359e-12
-1.79823e-12
-1.47099e-12
0
-1.38784e-13
7.43256e-12
-4.74014e-12
-1.80213e-12
5.56163e-12
3.13532e-12
3.40013e-12
2.36204e-12
2.61491e-12
1.1886e-12
-3.03282e-13
-1.30007e-12
-1.01463e-12
4.66282e-12
-1.1546e-12
1.13451e-13
-1.38915e-12
1.99112e-11
5.32259e-13
-5.27661e-12
-5.51396e-13
9.51751e-13
4.99723e-13
-1.19956e-11
-7.55625e-12
0
6.17305e-13
-7.18762e-13
-5.71165e-13
-1.46701e-12
-1.85902e-11
2.98215e-13
-7.05607e-13
1.34808e-12
8.01475e-12
1.62852e-12
2.91375e-12
-2.30768e-12
6.79305e-15
-8.82705e-15
4.55387e-12
2.62126e-13
-3.87164e-13
-5.09573e-12
4.2943e-12
-5.96538e-12
0
-6.2429e-12
2.75038e-13
-3.06787e-12
8.54969e-12
-5.51817e-12
0
-2.78822e-13
7.27871e-12
2.14324e-13
8.35517e-12
0
1.78875e-12
-3.52029e-12
-1.28067e-12
2.53041e-12
-1.17657e-12
7.62042e-14
1.21001e-13
-2.56273e-13
-6.93195e-12
-1.82537e-11
-3.01224e-13
-4.23161e-12
1.70572e-15
-1.09838e-17
-5.15709e-13
4.37618e-12
6.20584e-13
-2.98166e-15
3.00412e-13
1.64266e-13
-1.63145e-13
-5.51389e-13
1.03021e-12
-2.24144e-12
-4.43944e-12
9.90176e-13
1.37794e-12
1.73489e-12
2.59128e-12
-1.15402e-12
-3.65228e-12
-3.48426e-12
-4.28021e-12
-7.13231e-12
-3.39255e-12
1.69277e-12
3.02502e-15
8.94521e-12
2.07716e-11
0
9.93476e-13
-1.03765e-12
1.08159e-12
0
-1.26134e-12
5.66368e-12
9.64991e-12
-3.67556e-13
5.55874e-13
-3.84479e-12
1.78577e-12
-2.00922e-12
3.55352e-12
2.36636e-12
-6.65423e-13
-7.27906e-12
-2.41083e-11
-4.5448e-12
2.06961e-12
3.21221e-12
3.52514e-13
-3.60268e-12
-3.12077e-13
-4.77e-13
-1.6625e-12
-1.34944e-13
-1.19538e-12
7.68798e-12
1.67248e-12
7.19353e-15
-7.75428e-15
-5.50029e-12
5.11185e-13
2.08144e-12
1.52171e-12
1.02608e-13
1.19363e-12
1.72108e-12
-1.42476e-12
-2.20805e-12
-1.08853e-12
2.29656e-13
1.14049e-12
2.42483e-12
-2.15927e-12
-4.00279e-12
4.08492e-12
-4.57704e-13
-4.92192e-12
2.46039e-12
2.51603e-12
-7.88737e-13
1.85749e-12
-7.9842e-12
-3.9081e-12
4.82293e-12
-2.27924e-12
2.01056e-13
7.43755e-12
-1.28571e-12
4.11282e-14
2.45232e-13
3.42509e-13
-3.42623e-13
-4.0576e-12
-3.75256e-12
-6.44758e-13
3.89834e-12
1.63683e-12
8.36401e-12
2.6343e-12
-2.00522e-13
9.04348e-12
3.1117e-13
4.3749e-13
1.89488e-13
-7.4789e-13
-8.45038e-12
-1.07354e-11
4.53538e-12
-6.73491e-13
-1.18594e-12
-1.16062e-12
5.60661e-12
9.33724e-12
3.14026e-12
-2.12504e-13
-8.88884e-12
1.24935e-12
5.20057e-12
1.82586e-12
-4.11129e-12
6.50422e-12
8.32021e-13
0
0
4.61298e-12
4.8005e-12
2.57549e-12
8.92707e-13
1.12026e-13
0
1.36147e-12
9.44057e-13
-2.68974e-13
-5.10178e-13
1.61477e-12
9.31241e-13
-9.72148e-13
-4.7035e-12
7.94822e-13
0
-4.7543e-12
1.60336e-12
6.60166e-14
-5.03518e-12
7.73748e-13
-2.11158e-13
0
-5.11583e-12
9.83849e-13
-2.23112e-12
-4.94645e-12
2.60116e-12
-2.47697e-12
-1.0682e-11
-2.17081e-12
1.36319e-12
-3.1844e-12
3.55767e-12
-1.89763e-12
2.72069e-12
9.22092e-13
1.26684e-14
-4.56299e-12
3.66006e-12
-7.92716e-13
3.36274e-12
-3.36334e-12
-5.13434e-12
2.85957e-13
-6.50678e-12
-4.28883e-13
-1.45171e-11
-2.35571e-11
-1.8191e-12
-2.22654e-12
-3.27049e-11
-8.8556e-15
-6.05413e-15
7.5999e-16
6.25372e-16
-4.49801e-12
-5.37899e-14
6.97674e-14
0
-7.85644e-13
-2.72679e-14
2.70516e-14
2.54161e-13
-1.89757e-13
6.32767e-13
-9.91185e-13
2.46245e-12
-8.66895e-13
1.16122e-12
1.62854e-12
-3.97961e-12
-1.87295e-12
-1.96787e-12
-2.58317e-12
2.61831e-12
1.69881e-12
4.0187e-12
-1.38545e-12
-7.73214e-13
2.06462e-12
0
3.07473e-12
-1.07151e-12
2.62214e-12
0
3.23333e-13
1.21564e-12
-2.92431e-12
-2.28743e-12
-1.61993e-15
2.28818e-15
-4.15338e-12
-2.2674e-12
-7.17443e-12
-5.31568e-12
6.34827e-13
7.37524e-12
-1.68553e-12
-4.85998e-13
0
-3.95734e-12
1.42981e-13
-3.77755e-12
-7.50784e-12
-5.77686e-14
5.01187e-12
-8.70751e-12
-1.31394e-12
-9.62194e-12
2.07954e-12
0
4.31498e-12
2.54824e-14
7.89135e-15
-2.97448e-13
2.59939e-12
1.78145e-12
2.04398e-12
-1.80718e-12
-4.95865e-12
2.08774e-11
-3.43588e-12
-6.47252e-13
7.83633e-12
2.76096e-12
-5.33974e-12
-3.62208e-12
-6.91432e-14
-3.86399e-14
-1.29458e-12
-1.45006e-12
1.20056e-14
-9.35174e-12
1.38278e-12
6.90584e-13
2.64645e-12
1.76617e-12
-1.02229e-15
6.0283e-15
-1.72169e-12
-9.2905e-16
-4.6372e-12
4.60008e-13
1.72413e-12
-8.18897e-13
-8.78991e-12
3.02535e-13
8.06485e-14
0
3.78804e-12
-1.26794e-13
-1.69743e-13
1.78942e-12
-2.04572e-13
-8.48756e-12
-6.4248e-13
-5.10703e-12
-1.66825e-12
-3.36348e-12
0
2.37789e-12
-7.89959e-12
6.49839e-13
-2.19194e-12
7.94753e-13
5.00662e-12
-5.69334e-13
-1.13202e-12
5.69409e-13
-5.56408e-13
-3.34938e-13
1.47185e-12
3.64351e-13
1.66795e-12
1.22767e-12
-3.16247e-12
1.33971e-12
3.03881e-12
9.83411e-13
4.33883e-13
-6.3705e-13
-3.14754e-12
-5.59318e-13
-3.74818e-12
4.1064e-13
5.94777e-12
0
6.09011e-12
4.9622e-13
1.10955e-11
2.18144e-12
2.92942e-12
-8.53185e-13
-3.62607e-13
6.29849e-12
-1.38623e-12
-6.76202e-13
-3.41634e-12
-2.32497e-12
-7.76644e-13
2.0019e-12
-5.12109e-14
-3.87005e-12
9.51042e-13
6.41931e-14
-5.59622e-12
2.77501e-12
8.24864e-13
-4.58283e-12
-3.64196e-12
0
1.36618e-13
-6.39989e-13
-7.42538e-12
0
2.2368e-12
4.67238e-13
-3.17221e-12
-7.39235e-12
1.97993e-12
4.13894e-12
-1.77028e-13
0
0
6.45901e-12
-1.01548e-12
3.21081e-12
9.36068e-12
-8.00199e-12
8.08492e-15
0
7.47975e-12
7.21044e-12
2.12382e-13
-5.68865e-13
-1.01037e-12
-4.89729e-13
2.30142e-13
1.49914e-12
5.03182e-12
2.94984e-13
3.87379e-13
5.12874e-14
-1.15762e-13
-2.72323e-13
1.68661e-11
3.91455e-12
-8.67995e-12
-1.42484e-11
-1.74356e-13
-1.00433e-12
-1.24068e-11
-3.26326e-14
-1.04924e-12
0
-8.77244e-12
2.30202e-12
-1.91387e-12
-4.97441e-14
-6.06576e-13
-4.719e-12
-8.31292e-13
-4.34512e-12
2.4358e-12
-6.29988e-13
2.77378e-12
9.88581e-12
-1.53176e-13
-7.40483e-14
2.39451e-13
-1.99143e-12
1.41534e-12
1.1349e-12
6.64815e-12
0
-5.56615e-12
2.68421e-12
-1.04707e-12
9.64686e-12
-1.94504e-12
-3.7517e-12
4.23894e-13
6.06851e-13
3.60456e-12
-2.11863e-12
9.04757e-15
4.30221e-14
-2.37243e-12
2.7681e-12
-1.07191e-12
-1.96603e-12
8.27358e-13
-1.18542e-12
0
7.49053e-12
6.63864e-12
7.2902e-12
4.67074e-12
-3.86811e-13
2.84035e-14
-2.03607e-14
4.74488e-13
1.05021e-12
7.37378e-12
-7.72266e-13
1.40541e-12
-1.22546e-13
-4.38229e-12
6.96317e-13
6.22266e-12
-1.93505e-13
7.59964e-14
-2.44084e-12
-2.69543e-12
3.81838e-13
2.11134e-11
3.2285e-11
6.03542e-13
2.2795e-12
-1.25796e-13
-1.01805e-12
0
1.31019e-12
8.3542e-12
-5.05065e-13
2.45322e-12
1.50095e-13
-3.71409e-13
-1.00489e-12
6.79026e-13
6.9332e-13
4.02927e-12
2.45133e-12
5.14904e-12
-1.91143e-12
1.5674e-13
-4.73731e-14
3.30998e-12
-2.69103e-13
-3.93009e-13
-3.5463e-12
1.47814e-13
-3.76977e-12
-4.04293e-12
1.47406e-12
-4.65502e-13
1.34445e-12
-1.32452e-12
-1.87666e-11
4.68521e-13
-1.62074e-12
0
-4.97948e-12
3.13814e-13
-2.6628e-12
6.20165e-12
-1.72832e-12
1.23987e-12
1.98811e-12
1.09854e-13
-4.01926e-12
8.92237e-12
-6.02688e-12
-7.23587e-12
0
-1.60442e-13
-9.8298e-13
-2.33309e-13
2.58383e-13
-1.77152e-12
6.12995e-12
4.49566e-13
-1.17019e-12
0
2.84626e-13
6.05701e-14
1.70429e-12
7.97293e-12
1.03581e-13
0
2.88264e-12
1.319e-13
1.73427e-12
1.38001e-12
-1.48392e-12
2.93974e-12
1.61597e-12
-1.27688e-12
2.81124e-12
1.50731e-12
-2.03057e-13
-4.97188e-15
6.18971e-13
3.21932e-12
1.10517e-11
1.23904e-12
2.61955e-12
-3.23677e-12
-1.48929e-12
3.82763e-12
1.00851e-11
7.95919e-14
-1.13418e-13
0
3.55989e-13
-5.35224e-13
4.6005e-13
3.17183e-12
-2.84809e-12
4.90779e-14
7.60751e-12
1.2368e-12
1.98173e-12
-1.18789e-12
1.24365e-12
3.18113e-12
-1.42764e-14
3.38615e-12
-4.57211e-13
-3.27612e-13
1.64194e-12
-1.86571e-12
4.99536e-12
-7.41695e-13
-1.39724e-13
5.903e-12
-6.81513e-13
-6.46704e-13
0
2.46986e-12
-1.45607e-12
2.42915e-12
-2.38328e-12
7.58833e-13
1.1442e-13
1.0109e-11
-6.86703e-13
5.60252e-14
-7.21138e-15
-1.25943e-12
-9.42862e-15
-2.98672e-12
1.89695e-12
-9.11821e-13
-6.45282e-12
-8.6988e-13
1.65197e-12
4.41517e-13
-5.02743e-12
1.87148e-12
0
-2.54119e-13
-1.4796e-13
1.24792e-13
-8.47279e-12
-1.01085e-12
-2.82172e-12
-7.98213e-13
1.78877e-12
-2.17177e-13
-1.67488e-12
-1.37943e-12
1.06993e-12
2.56681e-14
-1.03945e-14
1.59692e-13
-1.67988e-12
-4.57535e-13
1.13916e-12
-1.94078e-12
-4.58102e-13
3.32794e-12
1.54193e-12
-2.74088e-13
-4.0451e-13
4.57711e-12
-7.8023e-12
-4.45351e-14
-2.39241e-12
2.87472e-12
8.78524e-13
9.45738e-14
-2.28606e-12
-4.07736e-12
-9.29009e-14
-1.86674e-12
-3.71882e-12
1.26301e-12
1.10327e-12
-5.78404e-12
9.08388e-13
1.37492e-13
-6.28479e-14
-5.46783e-12
5.22626e-12
5.30063e-13
7.19458e-13
-9.35355e-12
8.40588e-13
3.8548e-12
-1.12872e-12
1.87003e-12
2.01921e-13
-2.70832e-12
-2.68158e-12
2.12269e-12
-5.99172e-13
-4.9747e-12
-1.11294e-12
-2.06767e-12
5.1139e-12
-7.22048e-12
9.48496e-13
2.18925e-12
-4.74463e-13
3.86644e-12
7.64536e-13
-3.35087e-12
-7.33367e-12
2.0986e-13
1.68935e-12
4.74283e-12
7.37156e-12
1.77919e-12
3.32899e-12
-7.1247e-13
-8.47572e-12
-1.27594e-12
3.05025e-13
1.29212e-12
3.42741e-14
-4.89236e-12
-4.89565e-12
8.1689e-13
-1.44713e-12
1.78617e-13
-3.42205e-13
6.96009e-14
2.18431e-13
8.96438e-14
-1.82164e-11
-1.9351e-11
2.68904e-12
-2.1577e-13
1.5076e-12
-9.34153e-14
-2.04634e-13
4.2169e-13
1.79347e-12
-3.39402e-12
3.54173e-12
-1.58823e-11
4.74148e-13
-2.02585e-15
9.90089e-16
3.28759e-13
3.29921e-12
5.07018e-12
1.93098e-11
2.35127e-12
-2.4874e-12
1.22326e-12
1.39228e-11
7.98729e-12
-3.22377e-12
-4.8169e-12
1.60565e-12
1.86528e-13
-1.47057e-12
-5.84818e-12
-1.45092e-12
8.98404e-13
7.15728e-13
0
2.23242e-12
-1.7106e-12
-6.60968e-13
1.69827e-12
4.39941e-12
-5.69979e-13
6.98247e-13
8.06684e-13
-2.25023e-13
7.23401e-14
6.83894e-13
-9.08893e-13
-2.72533e-13
-2.73162e-13
-1.11507e-11
-9.81536e-13
5.91587e-12
-2.10495e-12
1.74893e-12
8.61446e-12
-1.16351e-12
-1.64039e-13
-1.47146e-11
-1.31142e-12
1.23077e-12
7.18989e-12
1.20098e-12
-2.54468e-13
4.58414e-13
4.42589e-12
-2.85301e-11
-1.06336e-12
1.01428e-12
2.65347e-12
8.4988e-12
6.51214e-12
-1.5973e-12
2.2677e-12
-1.42544e-13
8.16009e-14
-8.1391e-14
-7.46549e-12
-1.9042e-13
-5.43102e-13
2.28239e-13
-7.4509e-13
2.93123e-11
-1.47605e-12
2.17333e-12
-7.5447e-13
1.34225e-12
-2.06152e-12
5.5615e-14
-1.87054e-13
2.73102e-12
-2.14061e-12
4.57474e-12
-3.81139e-12
1.56317e-13
3.50359e-12
6.2928e-13
-7.09573e-12
1.28012e-12
-4.739e-12
9.24442e-14
-8.91256e-13
1.57855e-12
6.81199e-13
-2.28261e-12
5.99948e-13
-4.30377e-12
3.15275e-13
3.58785e-13
-1.71567e-13
-3.32977e-12
-1.73828e-13
1.81885e-13
7.69206e-13
4.85083e-13
-5.68318e-13
2.84582e-12
-9.12245e-13
-1.28207e-13
1.13989e-12
-1.25448e-13
-2.94935e-12
-1.45382e-11
3.77812e-11
-2.62934e-11
-1.64817e-12
-3.20201e-12
-3.20619e-12
1.1027e-12
-1.85197e-12
1.38131e-11
-6.30469e-13
-2.75229e-12
-8.3429e-13
-1.79847e-12
9.09327e-12
-4.21278e-13
-3.06909e-12
4.40801e-12
-1.02802e-12
-7.17259e-13
8.00852e-13
6.99941e-12
2.02465e-12
-5.08311e-12
7.49861e-12
1.44332e-13
-5.04361e-12
1.58356e-12
1.64647e-12
4.38497e-12
-2.75693e-12
6.34446e-13
0
-1.33655e-12
2.17117e-13
1.6975e-12
3.352e-13
-4.5294e-12
8.25513e-12
-1.23694e-12
-1.84069e-12
2.67181e-13
2.21515e-12
-1.10379e-11
5.18667e-15
0
-1.68553e-11
0
2.38734e-12
1.2168e-14
-6.65515e-14
-2.67038e-12
1.75172e-13
2.80663e-12
5.13585e-12
-3.3212e-13
0
0
6.68385e-13
-4.38758e-13
1.4191e-12
1.64505e-12
-1.35804e-11
-2.52662e-12
3.53833e-12
-1.77594e-11
-5.90986e-12
-7.96317e-12
6.98195e-13
5.7457e-13
-1.75962e-12
1.0369e-12
0
7.59866e-13
-1.94026e-12
2.39599e-12
0
-6.13561e-15
8.19455e-15
-3.47245e-12
1.02838e-12
5.95932e-13
2.38743e-13
-2.9655e-12
2.30336e-12
1.62913e-12
2.91123e-12
-1.86978e-12
3.39086e-13
1.57635e-12
-1.0312e-11
3.70422e-14
-3.25004e-14
0
1.64553e-14
3.26352e-13
-4.0472e-12
0
-1.56482e-12
-2.53294e-12
-6.60849e-13
1.08277e-12
-6.1833e-13
5.5002e-13
-8.37657e-12
-1.35136e-12
1.2958e-12
1.25399e-12
1.51487e-13
1.40859e-12
1.02895e-12
0
-2.10166e-12
6.81469e-12
1.6831e-12
-7.35604e-13
-2.32991e-12
7.95603e-13
-1.26703e-12
3.49159e-12
6.16269e-12
4.09058e-13
-1.06638e-12
-1.09569e-12
-2.58506e-12
2.14251e-12
1.70657e-12
-2.20422e-12
-2.18352e-12
0
1.13904e-12
4.58038e-12
3.41631e-12
4.73826e-12
-1.46901e-12
-6.17513e-14
-2.98628e-12
4.70608e-13
2.50316e-12
5.16956e-12
7.75575e-13
-3.89879e-12
-1.32225e-15
-1.00299e-15
-2.5615e-13
-1.1097e-12
-8.07056e-12
2.63417e-12
8.40871e-13
-4.44366e-15
4.18644e-12
-3.67156e-14
2.67685e-13
-3.99092e-12
-8.66741e-12
-2.00821e-13
1.36238e-13
4.16621e-12
-1.14968e-11
-3.36662e-12
1.04375e-12
4.78767e-13
-4.24605e-13
4.21869e-12
-1.2113e-13
1.08362e-14
1.85784e-14
3.93947e-12
8.7773e-13
6.71612e-12
-1.69893e-12
-1.27395e-12
4.09888e-13
-1.45843e-13
-9.29984e-14
7.73403e-12
4.25464e-12
-3.96662e-12
6.81354e-13
-9.06518e-13
5.29897e-13
7.52952e-12
2.32537e-12
3.07603e-13
1.2159e-12
2.64266e-13
-6.13738e-13
-1.20556e-12
-2.96914e-12
1.97226e-12
-1.24394e-12
-8.51438e-13
-5.5281e-12
1.35065e-12
9.84252e-13
1.24754e-11
6.72441e-13
2.00417e-13
2.54005e-12
-3.74894e-13
1.34573e-12
0
-2.30462e-12
1.22261e-12
-1.21999e-12
-5.01361e-13
1.93158e-12
1.55652e-12
-3.60197e-13
-1.71575e-13
3.11459e-12
-1.83312e-13
1.7043e-13
-1.20857e-12
-7.44021e-12
1.38584e-12
-2.19105e-12
-3.76081e-12
4.72852e-13
-2.85812e-13
-6.86224e-12
4.06138e-12
0
-2.76704e-13
-3.16834e-12
-1.4655e-13
9.96263e-13
-1.58969e-12
-1.00988e-12
-4.33091e-12
5.70462e-12
-2.24086e-14
0
2.38666e-13
-8.11981e-14
6.83028e-13
-3.84897e-12
-8.22896e-12
3.46611e-12
5.42761e-13
-2.80558e-13
1.32389e-13
-3.94358e-12
1.45491e-12
-3.33613e-13
1.37884e-12
1.82929e-12
-7.99264e-14
2.7135e-12
5.1591e-14
2.52463e-13
2.4465e-12
2.5775e-16
-1.16387e-15
3.57384e-12
-1.98082e-12
2.18848e-12
0
-8.11392e-14
-9.70893e-12
-7.91514e-13
-1.71763e-13
5.70141e-13
9.0346e-13
1.44202e-12
2.80944e-12
-2.33458e-13
-2.34422e-13
0
-1.63642e-13
-3.09154e-13
1.04699e-12
2.90023e-12
5.1949e-12
9.75254e-14
-2.4268e-13
-1.25757e-11
8.55557e-12
-2.49898e-12
1.31102e-12
3.19691e-12
3.19635e-12
8.95925e-12
4.15309e-12
4.79712e-12
-1.80674e-12
-2.26907e-13
-8.67936e-12
3.05796e-12
-6.28298e-12
-3.88123e-12
-1.00927e-12
2.1752e-12
-3.44361e-13
8.28494e-13
0
-2.35622e-12
-1.96905e-12
1.16021e-12
3.52314e-13
-1.44123e-12
1.90054e-12
-5.18781e-12
3.48212e-12
-4.54356e-12
2.03973e-12
-2.37562e-12
4.61339e-13
-1.94764e-13
-6.40166e-14
-9.96714e-14
1.95566e-12
1.8127e-12
2.38727e-12
-1.0787e-12
-7.68747e-13
-2.82022e-12
-6.89233e-13
-2.98805e-12
1.37796e-12
1.41186e-12
1.43782e-14
1.19363e-12
1.25054e-13
2.36002e-12
-3.11282e-12
-3.52796e-13
6.95017e-13
-2.31967e-12
-1.21502e-12
7.13733e-12
-7.40361e-12
0
-1.53196e-12
-1.53177e-12
-2.96825e-12
-6.41154e-12
5.74726e-12
-5.08074e-13
1.70568e-12
3.55378e-12
-6.7718e-12
-4.87571e-13
4.33304e-13
-4.13395e-12
-1.16066e-11
6.40022e-12
3.2299e-13
-1.35163e-14
1.7916e-12
1.99738e-13
-7.81476e-13
0
7.65389e-12
-2.26266e-12
-4.27476e-12
-2.29907e-13
4.65431e-13
1.57249e-12
1.2526e-12
5.24296e-13
-1.0278e-12
2.2652e-12
-4.61077e-12
-2.63352e-14
-1.6554e-12
-5.35835e-13
1.52283e-12
1.60178e-11
3.56144e-12
2.16733e-12
-4.49736e-12
4.49728e-12
2.02252e-13
-2.31787e-13
-2.41158e-12
-2.09767e-12
-1.12318e-12
4.782e-12
-7.61804e-13
-1.52923e-13
1.73703e-12
-1.76692e-13
-3.18303e-13
-1.86265e-11
1.18744e-11
4.17083e-12
1.83292e-11
1.02187e-11
-9.07163e-12
6.45582e-12
7.90457e-13
-7.36988e-12
-1.37819e-13
1.36888e-13
2.86403e-13
0
-2.63439e-12
-1.71409e-12
1.62754e-12
-1.31415e-11
-8.87359e-13
3.24899e-12
4.34707e-13
-6.45445e-13
-6.32948e-13
3.18541e-12
-1.01489e-12
-9.27176e-14
8.45298e-14
-1.90412e-12
-1.56306e-12
8.68376e-13
6.67653e-13
-7.18364e-13
-1.80375e-13
1.02808e-11
9.95412e-13
-3.02669e-12
-1.82049e-12
8.0725e-14
2.62824e-13
8.15574e-13
-4.4231e-13
-2.67257e-12
0
-3.69223e-12
-1.6041e-11
9.71113e-13
8.82295e-13
4.42349e-12
6.78861e-13
2.73016e-13
-6.64295e-12
-2.46939e-13
2.11421e-12
-6.98088e-13
-1.10922e-12
-8.82748e-14
3.19134e-12
-9.06886e-14
2.86959e-12
5.13555e-13
9.45628e-13
1.10611e-12
6.83723e-13
-2.1253e-12
9.99823e-13
0
2.15035e-12
-1.38461e-12
-3.95152e-13
3.0645e-12
-1.07667e-12
-6.21222e-12
-1.23753e-12
1.96778e-12
-3.47738e-14
4.92795e-14
-1.2879e-13
2.78694e-12
2.92264e-12
-8.83405e-13
-1.11673e-12
4.51074e-12
-1.46132e-12
-1.44923e-13
-8.40345e-13
-1.03835e-11
-2.56012e-12
-1.28454e-12
-6.33822e-12
9.1688e-13
-3.23898e-13
1.63663e-12
-5.96132e-13
1.82976e-13
-9.44271e-14
1.98206e-12
-3.99808e-13
-1.06409e-11
-7.20423e-13
-5.70165e-13
4.46129e-12
-8.42184e-12
8.42469e-12
-2.08031e-13
2.62771e-13
-1.46534e-12
-5.09698e-13
2.21382e-12
-1.82776e-12
-8.97056e-12
1.18875e-12
2.60923e-13
2.48709e-12
9.54087e-12
-9.50818e-13
3.56938e-13
-1.28312e-13
9.5006e-13
-4.66734e-12
1.7861e-15
-5.45188e-13
-2.06984e-12
2.81896e-12
7.0128e-12
-5.13415e-15
2.35359e-13
1.95028e-12
3.20475e-12
1.6811e-12
-1.88074e-12
1.16965e-12
0
3.31106e-11
1.70375e-12
2.27493e-12
-2.27664e-12
-2.16516e-12
0
-9.19819e-12
-1.78662e-12
-7.85259e-12
-2.1755e-12
-3.22902e-12
-7.43863e-12
-3.8606e-12
-1.60764e-12
2.40648e-12
-1.03538e-12
-1.3118e-12
4.43196e-13
-2.14133e-13
2.96781e-12
4.12434e-12
2.37607e-12
5.44376e-12
-7.26236e-12
-2.74058e-13
-4.05806e-13
5.39215e-13
0
-5.05484e-13
-7.7523e-12
-3.55378e-13
6.1584e-12
0
5.04865e-12
-3.64839e-12
-3.67843e-12
-1.714e-12
2.985e-13
4.80494e-12
4.45918e-12
4.23699e-13
-1.56917e-12
5.58738e-14
-1.63338e-11
8.96393e-12
0
-3.62237e-12
-1.77125e-12
-8.70534e-13
9.82287e-12
-2.59428e-12
8.22389e-13
-5.3026e-12
-1.27135e-15
1.67999e-15
2.30255e-12
1.2613e-11
2.40403e-12
-3.41126e-12
-4.84384e-12
-3.68845e-13
-1.28839e-12
-9.05075e-13
-1.59639e-12
1.85646e-12
4.25403e-13
-2.55455e-13
2.14602e-12
0
-1.77027e-12
8.54959e-13
-1.29222e-12
-2.01387e-12
3.96935e-13
-3.84315e-12
1.16194e-11
1.67106e-12
6.46655e-12
2.83223e-12
9.08022e-13
-4.21931e-13
3.40525e-12
1.2587e-12
-3.70733e-13
2.71595e-13
0
5.67451e-13
4.97571e-12
2.1564e-11
-1.89453e-12
-2.95417e-12
-4.63611e-13
1.28789e-12
-5.04407e-12
0
0
4.78519e-13
2.63429e-12
1.62272e-12
3.47939e-12
3.21559e-12
-5.58834e-12
1.20504e-12
2.51177e-12
-7.1133e-13
8.36363e-13
-2.63819e-12
3.50574e-12
-3.50695e-12
-6.45246e-13
-6.72315e-12
1.37233e-12
1.25336e-11
-2.21298e-14
-5.85871e-13
4.07545e-13
-5.78504e-12
-1.83113e-11
-1.05711e-13
9.94541e-13
2.49311e-12
-5.8381e-12
2.75092e-12
-2.45924e-12
-1.26896e-11
-9.95463e-13
0
1.92996e-12
-8.42452e-12
-1.55622e-12
6.86647e-12
-6.13202e-12
-4.22321e-13
5.20898e-13
5.09514e-12
5.95066e-12
-3.55173e-13
0
5.79411e-12
-2.31822e-12
2.82117e-12
-1.11574e-13
1.29896e-12
-1.34045e-12
1.74445e-12
2.87818e-12
-4.68743e-13
0
5.69449e-13
-1.85077e-12
3.70508e-12
-5.65783e-13
-1.64508e-13
-1.11676e-14
-1.09126e-13
2.63691e-13
-3.25089e-13
3.23363e-12
-8.71145e-13
-6.36777e-12
1.21169e-13
-1.32914e-11
-4.09227e-12
1.7443e-12
1.8998e-13
1.76201e-15
-1.35904e-12
-3.91615e-12
-5.15308e-12
-9.27995e-14
1.21015e-13
8.76553e-13
-1.56935e-12
3.52351e-13
1.13737e-12
1.90529e-13
-3.75064e-13
-8.58914e-13
-3.81601e-12
-8.5606e-14
-7.27299e-14
-2.96343e-12
7.10617e-12
-1.66491e-12
8.86671e-12
-7.00633e-13
-2.36279e-12
-3.656e-12
0
2.65517e-12
-1.83777e-12
-2.69413e-11
7.62101e-13
-2.06137e-12
1.20982e-12
-1.19299e-12
3.69904e-12
5.99916e-12
-4.78994e-12
6.46341e-13
-1.49842e-12
-7.64129e-12
1.37559e-11
1.04577e-12
-2.86788e-12
9.1912e-12
-2.76453e-13
-1.07245e-12
4.31786e-12
1.43231e-14
-6.51653e-14
-5.1176e-12
4.76791e-14
-1.41513e-13
2.73413e-12
0
0
-1.54188e-12
-2.61321e-12
7.10684e-13
0
6.92968e-12
-1.29888e-12
-8.85178e-13
1.87596e-12
1.6109e-11
-6.16087e-12
9.46771e-14
-9.16465e-13
7.35576e-13
-1.60572e-11
4.01235e-12
1.77846e-12
-2.11354e-13
1.45318e-12
-4.61134e-13
1.46153e-13
2.74868e-12
6.05097e-12
1.32387e-11
0
-1.1106e-12
-3.96471e-12
-1.03639e-12
-3.02653e-12
1.17974e-12
7.09257e-13
-2.23927e-12
-1.2861e-13
-1.63262e-12
1.41984e-13
2.58158e-12
-1.30217e-12
-4.53151e-12
2.93974e-13
7.37775e-12
-4.16966e-12
1.14199e-13
2.24395e-12
1.71852e-13
4.39732e-12
4.02553e-12
-7.62586e-13
0
8.94932e-16
2.29815e-12
-1.22595e-12
7.08632e-12
7.59963e-13
2.44029e-12
1.80481e-12
4.19995e-14
-4.08127e-13
-4.69926e-13
-1.66078e-12
5.66074e-12
1.13021e-12
2.16112e-12
-2.72119e-12
-5.92333e-13
8.73897e-14
3.39276e-12
-2.56361e-12
-4.85013e-14
2.34417e-15
-3.35164e-15
-4.02162e-12
-6.31639e-12
6.8724e-13
-9.30029e-13
1.08448e-12
2.7856e-13
9.87374e-14
0
2.49225e-12
-2.03099e-12
-2.07333e-12
4.31252e-13
-7.35437e-12
1.2715e-12
-1.38685e-12
-2.55481e-13
6.63609e-13
-2.06158e-12
6.21863e-13
-4.1732e-13
-3.1521e-13
-1.68267e-13
-8.28857e-13
1.75553e-12
9.00568e-14
2.37807e-12
-9.14207e-13
-9.70449e-13
-2.68492e-12
-6.37641e-13
3.32662e-13
-1.33406e-13
1.85339e-13
-3.70036e-13
0
2.25547e-12
1.20833e-13
-2.95983e-13
-3.9871e-12
2.61279e-12
0
0
-7.92642e-13
-3.52348e-12
1.61932e-11
2.42714e-12
-6.74086e-13
6.7402e-13
1.77885e-12
-1.05818e-12
-4.02666e-13
3.20963e-12
4.38302e-12
4.27234e-12
2.80836e-12
-8.44867e-13
3.67124e-12
4.87909e-13
1.088e-15
1.72158e-15
-3.2221e-12
-1.17303e-13
-2.29339e-12
-2.31824e-12
-1.89259e-12
5.70085e-12
-2.12773e-12
4.54899e-12
5.64448e-13
-2.79874e-12
-4.2279e-13
-2.28182e-13
-1.13025e-11
6.55009e-13
3.67438e-11
-9.00298e-12
-6.01949e-13
1.40036e-12
5.1448e-12
1.20597e-12
-5.92674e-12
-7.41898e-13
1.81042e-13
-2.90616e-12
-5.52683e-13
-1.06315e-12
-6.9572e-12
6.4194e-13
3.03122e-12
-3.88499e-12
1.46006e-12
-6.67877e-12
-1.20238e-13
1.99426e-12
3.07404e-12
1.7851e-12
2.4614e-11
2.47146e-12
2.88638e-12
3.21526e-14
-3.8963e-14
1.60954e-13
2.49655e-14
-2.32094e-13
2.39187e-12
6.90696e-13
2.09197e-12
3.35031e-11
2.83235e-13
-1.58287e-12
3.42418e-12
7.81396e-12
6.53927e-13
-1.58991e-12
-5.14529e-12
7.59703e-13
2.35711e-12
-8.88575e-13
1.1069e-11
-1.66309e-12
7.04487e-12
2.2333e-12
-3.27724e-12
7.10624e-13
4.91857e-12
-1.01532e-12
-7.20469e-12
-1.72294e-14
3.02482e-14
-1.23225e-12
1.32309e-12
-6.46695e-13
-2.75846e-12
2.07388e-12
3.0596e-13
-2.28444e-12
-1.56285e-11
0
1.42972e-12
1.0846e-12
9.66055e-14
8.12683e-12
0
-1.45083e-12
2.24144e-14
-1.28152e-12
-1.77386e-12
3.04986e-12
2.84843e-12
6.19096e-12
-1.65682e-12
-4.96985e-12
-3.30065e-12
9.07648e-13
1.90984e-12
-1.69181e-12
1.37919e-13
8.60849e-14
5.80547e-13
-4.92357e-12
9.70569e-14
1.19817e-12
-1.14663e-12
3.45201e-13
-9.67026e-13
1.77478e-12
3.79267e-12
9.55974e-12
-3.38743e-12
9.91263e-13
-1.43125e-12
-2.31537e-12
-7.2731e-12
-2.21727e-12
-1.73556e-13
3.56689e-12
-4.5631e-12
0
5.25432e-12
-1.47499e-13
-1.62991e-12
-5.18153e-12
-8.0234e-14
5.85888e-12
2.01802e-12
1.44158e-11
1.15466e-11
3.09268e-12
-6.39842e-12
-3.03126e-13
6.30581e-13
3.06707e-15
4.1529e-12
2.6831e-12
5.36465e-13
-1.04022e-12
1.1185e-13
3.35931e-12
-9.01885e-13
3.77177e-14
-4.41156e-14
-1.70926e-12
4.07059e-12
-1.3777e-13
7.31858e-14
-2.58608e-12
6.78319e-13
1.32595e-12
1.0986e-12
-2.9565e-12
-1.85323e-13
2.17733e-12
-1.3706e-12
1.39879e-12
4.10445e-12
8.11347e-13
-1.33418e-12
1.83733e-12
-2.54197e-12
-5.34593e-12
-5.89778e-12
3.76211e-12
-2.21105e-13
2.24307e-12
-2.70424e-12
0
6.14699e-13
-3.05187e-12
1.46063e-12
-1.31256e-11
-3.39326e-12
0
2.45401e-12
-2.77428e-12
3.1997e-12
-3.50017e-12
1.14135e-12
2.82829e-11
2.93338e-11
5.70335e-12
5.87489e-13
1.93982e-14
-1.41236e-14
-5.80715e-12
-6.98895e-13
1.27003e-12
-1.23261e-12
-7.53043e-13
6.09429e-13
1.42039e-12
2.02191e-12
7.12049e-13
0
2.45668e-15
4.87609e-12
2.90895e-12
3.21445e-13
5.65728e-12
1.55841e-12
2.36012e-13
-1.47962e-13
-9.13634e-12
-1.75202e-11
3.92413e-12
-2.4251e-12
1.88305e-12
-2.86037e-12
-6.17332e-13
-1.22491e-12
-7.84965e-13
-6.02077e-14
-1.02943e-12
-1.33552e-12
1.88401e-12
7.22803e-13
1.34015e-12
1.00206e-11
2.05968e-12
-2.09901e-13
1.32309e-13
1.58643e-12
-4.07719e-13
1.10064e-12
-1.07075e-14
-9.23425e-15
4.42143e-12
-3.52011e-12
-9.22552e-13
-2.49009e-12
9.01952e-14
-1.85102e-13
2.32093e-12
-4.66727e-14
1.42082e-13
-3.87013e-12
-2.15561e-12
7.19431e-13
5.54673e-12
0
1.65105e-12
-5.7289e-12
2.60284e-13
1.87943e-12
6.16651e-12
1.82925e-13
1.84483e-13
-3.63079e-12
2.08103e-11
-4.68132e-12
-4.30917e-12
3.99217e-12
2.11002e-12
1.4829e-12
-1.30716e-12
-2.82604e-12
1.36867e-12
4.19435e-15
7.04938e-15
-4.49015e-13
-1.63862e-13
9.64914e-13
5.64181e-12
-1.48621e-13
4.27195e-13
-3.48832e-12
-1.76189e-12
3.57064e-12
3.6887e-12
-2.37445e-12
3.54908e-12
-2.75219e-12
1.67821e-12
-1.77079e-12
-2.13683e-12
-7.05937e-12
-5.58334e-12
-3.47873e-12
2.79708e-12
-8.73283e-12
-1.55325e-12
2.12967e-12
4.93714e-13
-1.66755e-11
2.90625e-12
-1.70433e-13
4.16359e-13
-2.50192e-13
2.06967e-12
-5.37411e-13
-4.59126e-12
-3.20616e-12
-1.67521e-12
5.03138e-12
9.87231e-12
4.65511e-12
-3.7729e-12
2.34021e-12
-1.7604e-12
0
9.16507e-12
1.64896e-11
0
-4.52492e-12
1.2475e-12
1.831e-12
1.67829e-12
3.08525e-13
9.83436e-12
-1.14229e-12
1.571e-12
3.75213e-15
1.63906e-13
-6.67608e-13
-1.37147e-14
3.73666e-13
-2.11531e-13
1.06106e-14
-1.58354e-12
3.59484e-13
-4.89162e-12
1.78192e-12
-2.32999e-13
3.89125e-12
1.22748e-12
1.66432e-12
-4.56619e-12
-1.98076e-12
-1.06744e-12
9.09841e-12
-1.20023e-12
-2.05195e-13
3.35549e-12
-9.84721e-14
7.83402e-14
-7.73055e-12
2.05077e-11
0
-2.49821e-12
5.01393e-14
-5.00872e-14
-1.66825e-14
1.62412e-14
-8.47103e-14
8.32057e-12
-1.17123e-11
0
0
-3.30859e-13
-1.51807e-12
-1.7722e-11
1.53027e-13