/*--------------------------------*- C++ -*----------------------------------*\
| =========                 |                                                 |
| \\      /  F ield         | OpenFOAM: The Open Source CFD Toolbox           |
|  \\    /   O peration     | Version:  v3.0+                                 |
|   \\  /    A nd           | Web:      www.OpenFOAM.com                      |
|    \\/     M anipulation  |                                                 |
\*---------------------------------------------------------------------------*/
FoamFile
{
    version     2.0;
    format      ascii;
    class       volScalarField;
    location    "3000";
    object      sigmaxx;
}
// * * * * * * * * * * * * * * * * * * * * * * * * * * * * * * * * * * * * * //

dimensions      [1 -1 -2 0 0 0 0];

internalField   nonuniform List<scalar> 
27023
(
-1.54087e+07
1.54243e+07
9.95447e+06
-9.94463e+06
-1.55581e+07
1.55738e+07
8.30367e+07
-8.29848e+07
3.75768e+06
-3.75098e+06
6.01675e+07
-6.01215e+07
684012
-698509
-2.39612e+07
1.97595e+06
1.34418e+06
-5.13872e+07
5.14421e+07
3.77142e+07
-3.76627e+07
8.25654e+07
-8.25132e+07
4.22055e+07
-4.2165e+07
6.6577e+06
-2.94925e+07
3.11723e+06
-2.91063e+07
2.84658e+07
1.37836e+07
3.77457e+07
-3.76959e+07
-3.83057e+07
-2.37206e+07
2.97812e+07
3.43835e+07
-3.43261e+07
3.60502e+06
-3.60113e+06
-9.9192e+06
9.92941e+06
-1.93214e+07
-1.48336e+07
1.48488e+07
5.07618e+07
-5.07067e+07
3.99154e+07
-3.98654e+07
2.63735e+07
3.85221e+07
-3.84719e+07
-3.73638e+07
502.37
-509.289
4.21226e+07
1.75376e+07
3.10413e+07
-1.42367e+07
9.49134e+06
-9.48215e+06
2.58582e+07
4.03135e+06
4.61647e+06
-1.87605e+07
1.22389e+07
3.35651e+07
8.24444e+06
-2.9925e+07
-1.80306e+07
3.29237e+07
-3.2866e+07
5.7507e+07
-5.74617e+07
7.64727e+07
-7.64213e+07
144008
-142350
-9.01764e+07
9.023e+07
-2.23699e+07
5.81328e+07
-5.80869e+07
5.60159e+07
-5.59708e+07
-8.11365e+07
8.11879e+07
-3.34139e+07
3.21574e+06
-1.50354e+07
1.44314e+07
1.92787e+07
-1.92591e+07
1.67808e+07
-6.90175e+06
-4.22957e+07
4.23315e+07
-2.23181e+07
-1.49828e+07
742360
-2.45213e+07
-1.53639e+07
1.56604e+07
6.74091e+07
-6.73627e+07
2.73483e+06
7.53493e+07
-7.52996e+07
4.15787e+07
2.90307e+07
1.78106e+07
7.55783e+07
-7.55289e+07
4.17648e+07
-4.17255e+07
7.71423e+07
-7.70906e+07
1.86389e+07
-3.05226e+07
-2.26836e+07
1.84553e+07
1.9529e+06
-6.27141e+07
6.27599e+07
8.94457e+07
-8.93913e+07
1.8939e+07
-1.89194e+07
6.85156e+07
-6.84692e+07
-1.37656e+07
-1.67524e+06
1.70419e+06
-1.28949e+07
1.59369e+07
-8.13696e+07
8.14212e+07
7.86671e+06
5.27828e+07
-5.27279e+07
-7.76388e+07
7.76892e+07
-5.44551e+06
8.03189e+07
-8.0268e+07
-1.29643e+07
-1.41591e+07
3.84192e+07
3.41819e+07
3.25347e+07
-3.25035e+07
4.06941e+07
-4.066e+07
-2.30849e+07
-2.44378e+07
-2.51979e+07
2.51774e+07
2.41205e+07
5.21534e+07
-5.20987e+07
-4.71264e+07
-1.94764e+07
-4.05264e+07
2.82696e+06
-4.84706e+07
4.85108e+07
-7.05121e+07
7.05603e+07
-1.59948e+07
1.69143e+06
4.53593e+06
-9.07046e+07
9.07578e+07
-1.65224e+07
1.64459e+07
-2.56798e+07
2.1046e+06
-5.07972e+06
-1.68569e+07
8.27635e+06
-3.42647e+07
-7.41132e+07
7.41623e+07
-2.56371e+07
-4.68932e+07
-4.99299e+07
-4.00634e+07
4.00989e+07
-4.25644e+07
-1.51955e+07
-7.04839e+07
7.05317e+07
-2.14877e+07
3.6328e+06
8.99991e+07
-8.99452e+07
-5.27848e+07
-6.81618e+07
6.82097e+07
-2.86612e+07
2.5521e+07
-3.03663e+07
7.49716e+07
-7.49184e+07
-1.46801e+07
1.46952e+07
-1.92033e+07
-5.21113e+07
7.48238e+07
-7.47706e+07
22336
-22140
1.63106e+07
-2.04796e+07
-8.78748e+06
8.79827e+06
-2.51898e+07
1.97159e+06
5.33553e+06
-7.99499e+07
8.00012e+07
-1.38191e+07
-6.31012e+07
6.31469e+07
-2.39951e+07
7.04913e+07
-7.04395e+07
5.80176e+07
-5.79733e+07
1.53543e+06
-1.53503e+06
3.78342e+06
7.25944e+07
-7.25424e+07
-4.80855e+07
7.03745e+07
-7.03224e+07
7.75001e+07
2.90835e+07
-8.73064e+07
8.73598e+07
3.09987e+07
4.95258e+07
4.93001e+07
-3.92403e+07
1.82038e+07
232459
-2.69134e+07
4.09923e+07
-3.84153e+07
-8.33803e+07
8.34327e+07
-1.78301e+07
-1.32851e+07
-5.23322e+07
-5.30436e+07
6.39198e+07
-4.85819e+07
4.23403e+07
-4.22865e+07
1.67762e+07
2.87994e+06
4.46494e+07
7.23473e+07
-7.2295e+07
7.96376e+07
-7.95868e+07
6.02654e+06
-1.14247e+07
6.20875e+07
-6.20415e+07
3.10248e+07
-1.80762e+07
-3.37826e+07
7.91765e+06
4.671e+06
-4.91071e+07
4.91476e+07
-4.22366e+07
4.22925e+07
3.54434e+07
-4.38068e+07
8.74778e+06
-8.54849e+06
-20400.9
19990.3
-1.8141e+07
-2.26039e+07
1.04589e+07
3.61407e+07
2.04794e+06
-1.74301e+07
-6.89072e+07
6.89582e+07
-7.99722e+07
8.0023e+07
-3.86777e+07
5.16692e+07
-7.48678e+07
7.49196e+07
1.19385e+06
6.7147e+06
-6.92023e+07
6.92491e+07
-1.05939e+07
1.19803e+07
-1.19641e+07
2.54525e+07
2.60541e+07
-5.01385e+06
-171787
-797.876
829.555
759497
-759555
3.49652e+07
-3.91949e+07
3.92489e+07
1.1308e+06
2.54463e+07
1.55831e+06
-1.55905e+06
-3.17825e+07
-2.14225e+07
-1.71394e+07
2.64067e+07
-6.07382e+07
8.13259e+06
3.56682e+07
-4.27963e+07
-1.49961e+07
4.28265e+07
-6.91146e+07
7.11973e+06
2.95584e+07
-2.56692e+07
2.56948e+07
-1.37715e+07
8.92849e+06
6.56215e+07
-6.55752e+07
-5.0596e+07
5.08599e+07
55633.4
-55233.7
-2.77205e+07
1.51003e+07
-1.50847e+07
-2.16161e+07
1.02134e+07
-3.91035e+07
3.9132e+07
7.47192e+07
-7.46672e+07
-28735.4
28704.9
4.96057e+06
-8.70614e+07
8.71145e+07
-4.52046e+06
-3.42026e+07
-7.25309e+07
7.25831e+07
-7.67305e+07
7.67817e+07
1.45565e+07
-3.14704e+07
-5.15041e+06
-2.2234e+07
2.22565e+07
-8.61147e+07
8.6167e+07
-1.44292e+07
-4.84862e+07
-1.79229e+07
-4.91938e+07
-4.89787e+07
-2.92759e+07
-3.19106e+07
3.22897e+07
2.46123e+07
-3.22285e+07
8.47124e+07
-8.46597e+07
-2.59254e+07
1.01632e+07
1.39011e+07
-5.01162e+07
-4.05019e+07
-2.85176e+06
-2.54343e+07
9.52188e+06
3.4327e+07
3.58671e+06
1.55823e+06
-7.44952e+06
3.13624e+07
1.69411e+07
-7.13611e+07
-3.3639e+07
5.75395e+07
-5.74954e+07
2.15519e+07
-2.09016e+07
9.98182e+06
-2.32431e+07
2.32667e+07
878101
1.69566e+07
-3.85956e+07
2.3326e+06
3.85697e+07
84036.9
-84027.3
-1.44533e+07
4.15986e+07
3.13591e+07
5.11387e+07
2.75076e+07
-3.61732e+07
1.56121e+07
-4.51402e+07
1.3026e+07
5.66872e+06
3.79927e+06
-6.80553e+07
-7.28145e+07
7.28656e+07
-6.31428e+07
5.94558e+06
4.84469e+07
-2.45515e+07
7.02844e+07
-7.02321e+07
-5.0206e+07
5.02516e+07
5.0732e+07
4.76652e+06
4.34568e+06
-4.34256e+06
-6.37076e+07
6.36891e+07
4.5112e+07
-4.50585e+07
9032.9
-9070.79
-1.56827e+07
-1.12115e+07
-4.04268e+07
-4.19909e+06
-1.07957e+07
-6.97966e+07
6.98453e+07
-6.838e+07
6.84284e+07
4.46655e+07
-4.46142e+07
3.78279e+07
-3.77942e+07
-9.64521e+06
276627
-9.82246e+06
-3.89112e+07
1.78003e+07
4.7319e+07
-1.62609e+07
-8.71383e+07
8.71926e+07
-4.27828e+07
2.1608e+07
1.08829e+07
5.73608e+07
4.93515e+07
-3.35701e+07
-1.21418e+07
6.98064e+07
-6.9756e+07
-1.94548e+07
1.95131e+07
1.13486e+07
-1.13358e+07
7.17539e+07
-7.17018e+07
1.87993e+06
1.03063e+07
-1.20514e+07
1.58703e+07
6.9075e+07
7.49089e+06
-5.991e+07
5.99561e+07
-2.78168e+07
3.46321e+07
2.22295e+06
-3.95732e+07
3.96277e+07
1.96476e+07
-1.96277e+07
2.55474e+07
-5.94642e+07
-3.45739e+07
-2.39893e+07
2.4014e+07
-3.81426e+07
-6.20529e+06
3.49334e+07
-3.48784e+07
-2.94525e+07
8.05306e+07
-8.0476e+07
6.10321e+07
-6.09859e+07
-3.97401e+07
-5.46627e+07
5.47051e+07
-2.00278e+07
-2.84544e+07
6.63679e+07
-6.63149e+07
-5.1079e+07
-7.34607e+07
7.3512e+07
4.2477e+07
-6.63952e+07
6.64435e+07
-4.2267e+07
4.23254e+07
-1.01111e+07
4.2709e+07
-4.26733e+07
-3.39943e+07
-6.89649e+06
-8.10866e+06
-1.11489e+07
4.89763e+07
-4.89359e+07
-8.29066e+07
8.29584e+07
-3.10876e+07
-5.22034e+07
2.93153e+07
3.16992e+06
-3.54736e+07
-3.25796e+07
1.77016e+07
-4.11364e+06
4.11672e+06
-6.05385e+07
-8.04823e+07
8.05335e+07
3.07122e+07
3.17231e+06
-6.6785e+07
6.68321e+07
-3.34992e+07
-4.09044e+07
4.09216e+07
432168
4.93294e+06
-1.20807e+07
-2.78739e+07
-2.64463e+07
3.43128e+07
-3.42583e+07
-3.67493e+07
-841586
5.88162e+07
-5.8763e+07
1.35104e+07
-3.70251e+07
3.70733e+07
-1.08102e+07
2.25439e+07
-2.25214e+07
-6.60244e+07
6.60712e+07
-2.63819e+07
2.64077e+07
4.09984e+07
-2.7323e+07
2.73108e+07
4.03501e+07
-3.32657e+07
3.32971e+07
-2.86231e+07
1.3646e+07
-1.55268e+07
-4.28465e+07
3.17766e+06
-8.08691e+06
-1.48767e+07
-6.79009e+07
3.96376e+07
-3.95961e+07
3.12745e+07
4.04e+07
-4.03596e+07
-2.95172e+07
-5.50891e+07
5.51337e+07
-1.07039e+07
-2.84189e+06
-3.77347e+07
3.77848e+07
6.90136e+07
-6.8961e+07
5.26437e+07
1.9368e+07
3.14354e+07
5.76462e+07
-5.75964e+07
7.82363e+07
-7.81845e+07
2.48673e+07
-1.95021e+07
9.98511e+06
-1.02495e+07
2.7963e+07
-2.78952e+07
-3.16117e+07
-196870
-360291
362698
198195
-1.95201e+07
649570
-655056
-3.31489e+07
3.31806e+07
-1.72458e+07
1.72637e+07
2.19982e+07
-2.19761e+07
5.02789e+06
4.98568e+07
-4.9815e+07
-4.05679e+07
-1.91443e+07
-4.70238e+07
4.70651e+07
-2.43013e+07
5.45002e+07
-5.4452e+07
-3.18182e+07
-2.38972e+07
4.96691e+07
-2.4465e+07
2.44891e+07
4.88105e+07
3.66245e+06
-9412.09
-2.31167e+07
-6.83412e+07
6.83903e+07
-6.80167e+06
3.88955e+07
-8.6825e+07
8.68779e+07
9118.74
-9151.72
4.39036e+07
-4.38571e+07
3.78904e+07
-6.04798e+06
8.7097e+07
-8.70463e+07
-2.54881e+07
-3.91184e+07
7.25364e+06
1.72154e+07
3.33559e+07
2.84811e+07
1.58118e+07
-1.40673e+06
-1.12398e+07
-4.74303e+07
3.05376e+07
4.48503e+07
-4.27819e+07
-2.18055e+07
-1.78915e+07
42812.3
-43000.8
5.49268e+07
-5.48819e+07
3.27114e+07
-2.63118e+06
-1.92101e+07
-6.88899e+06
3.8982e+07
4.20208e+07
-3.91891e+07
-4.23747e+06
2.71142e+07
-2.97103e+07
-1.01477e+07
1.78221e+07
-1.78035e+07
3.51191e+07
5.4993e+07
-5.21859e+06
-2.73032e+07
6.96833e+07
-6.9633e+07
-7.56217e+07
7.56747e+07
-13963.5
13632.7
-3.71484e+06
-5.04787e+06
-2.18207e+07
-2.65666e+06
-3.61873e+07
3.62281e+07
2.3713e+07
3.06628e+06
-3.06477e+06
-8.02289e+07
8.02808e+07
-6.27583e+07
6.18029e+07
-6.17556e+07
-1.10785e+07
4.993e+07
-3.13099e+07
-1.81405e+07
4.94656e+07
5.52485e+06
6.58162e+07
-6.57639e+07
2.63607e+07
-7.62566e+06
7.65644e+07
-7.65127e+07
-2.64272e+07
-7.10316e+07
-2.08196e+07
7.10792e+07
1.88722e+07
-1.8821e+07
3.58108e+07
2.62059e+07
-3.74865e+07
-1.50507e+06
-3.75228e+07
-1.74643e+07
6.5624e+07
-1.21641e+07
2.32057e+07
-2.3181e+07
-7.53652e+07
7.54171e+07
1.89619e+07
5.18251e+06
-6.66352e+07
6.66844e+07
-4.13174e+07
3.40546e+07
2.75789e+07
1.31571e+07
3.0745e+07
1.5267e+07
-1.52513e+07
-1.06785e+07
3.74555e+07
-3.74112e+07
-7.45437e+07
7.45957e+07
863874
-2.84018e+07
-5.25107e+06
-6.55704e+07
5.52836e+07
-5.52381e+07
2.8063e+07
3.24088e+06
-1.9976e+07
-4.46079e+07
-1.82497e+07
-2.6653e+07
-1.02762e+07
-2.65428e+07
3.16009e+07
7.59239e+07
-7.58723e+07
6.1271e+07
-6.12246e+07
4.92942e+07
-4.84695e+07
-1.09418e+07
4.94576e+06
7.3797e+07
-7.37453e+07
-5.17329e+07
-4.68952e+07
1.38921e+06
-1.91602e+07
5.87432e+06
2.69441e+06
-2.68735e+06
-1.99964e+07
-7.91196e+06
8.05008e+07
-8.04491e+07
-2.06966e+06
2.13192e+07
-4.14906e+06
8.95052e+07
-8.94527e+07
-2.66223e+07
2.66532e+07
-3.15728e+07
-1.57687e+07
1.57857e+07
-1.09931e+07
-5.01321e+06
2.61555e+06
4.7714e+06
6.88772e+07
-6.88251e+07
-9.78391e+06
-3.88509e+07
3.89042e+07
7.72519e+07
-7.71977e+07
-2.58971e+07
2.57633e+07
3.78662e+07
-3.78327e+07
-7.70589e+07
7.711e+07
8.91456e+06
-4.85108e+07
7.91206e+07
-7.90691e+07
-5.0705e+07
-3.71671e+06
3.77671e+07
-3.77339e+07
6.12683e+07
-6.12153e+07
-4.32678e+07
-6.86709e+07
6.87205e+07
-8.45917e+07
8.46421e+07
4.32987e+07
2.08619e+07
3.00115e+07
1.34774e+07
5.3947e+07
-5.3892e+07
-6.78608e+07
4.13001e+06
5.26298e+06
6.79067e+07
2.16464e+07
3.47699e+07
-3.01071e+07
3.72895e+07
-3.72455e+07
790564
9.95299e+06
-3.64984e+07
5.41052e+07
-5.41241e+07
2.11212e+07
-2.37401e+06
53808.1
-52665.1
-2.71425e+07
-3.11678e+07
-2.51246e+07
7.89427e+07
-7.88922e+07
-4.55801e+07
-3.72521e+07
-4.4625e+07
2.32352e+07
3.60269e+07
-3.5994e+07
-4.82625e+07
1.82765e+07
4.56491e+07
-2.66414e+07
2.69049e+07
4.46602e+07
-4.46929e+07
3.87508e+07
-3.87171e+07
-6.74089e+07
6.74609e+07
4.38171e+07
-1.55086e+07
2.84232e+07
6.29311e+07
-6.28846e+07
-6.16735e+07
6.17258e+07
102607
-2.31612e+07
5.42669e+07
-5.42121e+07
-3.13526e+07
5.89887e+06
-5.89367e+06
-2.47724e+07
-2.5387e+07
6.81249e+07
-4.08858e+07
-4.2847e+07
-5.11976e+07
2.77703e+07
-2.95968e+07
-9.92073e+06
7.77441e+07
-7.76926e+07
-4.22898e+06
1.01478e+06
1.36657e+07
-3.01289e+07
-1.28384e+07
-7.14802e+06
-4.20992e+06
2.84731e+07
-2.25899e+07
2.03144e+06
1.15104e+07
-2.6913e+07
2.21271e+07
-6.2065e+07
1.54643e+07
-1.59489e+07
-4.21829e+06
4.22163e+06
2.64402e+07
-8.2206e+06
8.22739e+06
-2.13401e+07
-1.20224e+07
5.02118e+07
-5.01711e+07
2.71703e+07
5.94735e+06
-5.94323e+06
-2.26229e+07
-1.32842e+07
2.53994e+07
-3.31499e+07
3.79215e+07
2.41508e+07
-7.22691e+07
2.94749e+07
2.43621e+07
4.08123e+07
1.66284e+07
-1.66114e+07
9.85125e+06
-1.00001e+07
230885
-231356
4.0322e+07
-1.16467e+06
2.96892e+07
2.2232e+07
-2.94808e+07
2.95344e+07
-5.01561e+07
-9.12617e+06
2.53663e+07
-62322.3
62103.2
-2.82366e+07
-1.93505e+07
-585056
3.40419e+06
-1.41807e+07
4.91386e+07
2.53417e+07
-3.66914e+07
-3.06056e+07
3.06572e+07
-5.74924e+07
-4.49217e+07
963487
5.52475e+06
-3.32377e+07
-5.23528e+07
5.23977e+07
2.1811e+06
-2.26449e+07
-5.52211e+07
-4.45567e+06
4.4592e+06
-2.93482e+07
1.34552e+07
2.98227e+07
-6.9208e+07
6.92595e+07
-1.28614e+07
-3.65009e+07
3.65478e+07
4.78778e+07
-4.78356e+07
2.23268e+07
-2.99415e+07
187279
-185438
-2.43648e+07
1.20447e+06
8.80186e+06
7.55557e+07
-7.55036e+07
-8.72571e+06
8.18939e+07
-8.18396e+07
4.60004e+06
3.60145e+07
-1.21435e+07
-5.35232e+07
-2.25052e+07
-7.63798e+06
5.35692e+07
5.4233e+07
6.38002e+06
-2.26675e+07
-3.21908e+07
3.22425e+07
3.12417e+07
-3.21046e+07
4.86057e+07
2.40557e+07
3.29029e+07
-7.32975e+06
5.54677e+06
-1.13091e+07
-1.82607e+07
2.14074e+06
7.08419e+06
-1.1284e+07
-7.47475e+06
394065
3.1463e+07
1.84852e+07
-4.09133e+07
-3.00058e+07
-1.36269e+07
-5.02672e+07
4.7129e+07
-4.43455e+07
4.43821e+07
9.27308e+06
-3.71717e+06
-2.89155e+07
2.89653e+07
5.9198e+07
-5.91446e+07
-1.99496e+07
-7.8438e+06
4.0533e+07
-4.73444e+06
4.73748e+06
7.34234e+07
-7.33719e+07
5.03117e+06
1.10595e+06
-2.60414e+07
-7.33758e+06
-6.0078e+06
-1.4278e+06
-6.46466e+06
-1.61022e+06
5.01164e+07
4.86662e+07
-4.86248e+07
2.82701e+07
-2.81939e+07
1.26809e+07
1.21087e+07
7.36284e+07
-7.35762e+07
6.4519e+06
1.2923e+07
2.86368e+07
-1.0701e+07
-4.59051e+07
-1.94601e+07
1.78177e+07
-1.49423e+07
5.47192e+07
-8.39992e+06
-1.70197e+07
6.50056e+07
5.05261e+07
-5.04841e+07
-5.78641e+07
9.92777e+06
3.20858e+07
-2.39699e+07
2.48821e+07
6.40058e+07
-6.39474e+07
-2.52654e+07
-6.65594e+07
-2.82899e+06
2.83169e+06
5.07479e+06
-5.0708e+06
1.85562e+07
2.64116e+07
-2.42638e+07
7.58978e+07
-6.93569e+07
6.94058e+07
1.07848e+07
-1.07708e+07
-1.22994e+07
7.78265e+07
-7.77746e+07
-3.1043e+07
3.06458e+07
-8.42773e+06
-16531.9
16472.7
-2.56262e+07
-1.21544e+07
6.15769e+07
-1.64023e+07
-7.13686e+07
7.14167e+07
2.74716e+07
5.86151e+07
-5.8164e+07
2.21522e+07
1.45639e+07
-1.99739e+06
2.91918e+07
-2.91524e+07
-7.30422e+07
7.30943e+07
-1.36473e+07
-3.40788e+07
3.41151e+07
-6.86383e+07
6.86897e+07
1.51711e+07
-3.69844e+07
3.10326e+07
-1.22156e+07
2.7132e+07
-2.71012e+07
-2.3908e+07
1.10828e+07
5.31741e+07
-508665
-2.20169e+07
2.20391e+07
-3.16913e+07
1.52936e+07
6.33406e+07
6.3856e+07
-6.38039e+07
4.73875e+07
-6.2401e+06
-2.40951e+07
2.36082e+07
7.88566e+07
-7.88039e+07
-3.37212e+07
5.35577e+07
-5.35104e+07
3.28512e+07
-5.25915e+07
-4.19137e+07
4.19118e+07
2.83071e+07
1.94377e+07
1.52036e+06
-2.29623e+06
-3.91882e+07
1.24394e+07
-1.00237e+07
30252.7
-30427.2
5.2629e+07
6.40364e+06
-6.39779e+06
6.32611e+07
-6.32146e+07
65695.8
7.72532e+07
-7.72021e+07
-5.19263e+07
5.19673e+07
-8.31709e+07
8.32209e+07
2.15227e+07
7.6704e+07
-7.66522e+07
6.18049e+06
-2.57139e+07
-1.10628e+06
-2.38443e+07
1.6607e+07
-2.24871e+07
5.96313e+07
-5.95827e+07
-1.58297e+07
1.58494e+07
1.57399e+07
-2.13928e+06
1.22934e+06
4.84903e+07
8.47977e+06
3.54235e+07
-5.25503e+07
8.06946e+06
-1.05e+07
2.34655e+06
-2.34565e+06
4.8946e+07
-3.37933e+07
4.82597e+07
-3.13429e+07
-1.52461e+07
6.22516e+06
3.25824e+07
-3.25234e+07
3.19871e+07
1.76685e+07
-2.83028e+07
2.84032e+07
-1.19882e+07
-3.75331e+07
-7.43601e+07
-3.97756e+07
3.98164e+07
5.2253e+07
-2.53214e+07
3.08525e+07
-3.26467e+07
3.94965e+07
7.44092e+07
3.26781e+07
4.13885e+07
3.39666e+07
1.99326e+07
3.12369e+07
-1.00874e+07
2.72483e+07
2.0448e+07
1.55723e+07
-4.84099e+06
-1.67046e+07
2.85383e+07
-3.07881e+07
-1.88506e+07
6.04639e+07
-6.04108e+07
-4.34195e+07
1.21291e+07
-1.10682e+07
-1.29914e+07
5.16544e+07
-5.01966e+07
6.03132e+06
-6.17056e+07
-2.14251e+07
9.39908e+06
5.0245e+07
2.72586e+07
-4.03517e+07
1.72215e+07
-7.40073e+06
4.69201e+07
-4.61907e+07
3.19451e+07
48098.7
-48928.6
-5.22489e+07
-5.72466e+07
5.72925e+07
2.73168e+06
6.57038e+07
-6.5658e+07
7.86079e+06
1.39996e+07
-1.39853e+07
-3.4159e+07
275318
7.94991e+06
8.02102e+07
-8.01552e+07
-3.81002e+06
-6.13739e+07
6.68788e+07
-2.45218e+07
6.3532e+07
-6.34857e+07
-3.5089e+07
9.84581e+06
6.10788e+06
-5.70091e+07
3.01851e+07
-3.01378e+07
9085.21
-9145.1
4.02614e+06
1.87517e+07
3.61343e+07
-3.61014e+07
6.777e+07
-6.77222e+07
-5.62804e+07
1.24112e+07
2.50946e+07
6.25277e+07
-6.24826e+07
3.07812e+06
-125598
124796
-5.86564e+07
5.86459e+07
-6.77312e+07
6.77796e+07
-6.26306e+07
7.33296e+07
-7.32773e+07
4.6946e+07
-4.69048e+07
3.45447e+07
-1.60402e+07
-6.81372e+07
6.68706e+07
2.8455e+07
1.89929e+06
-6.68232e+07
1.21837e+07
3.51153e+07
3.70147e+07
4.0412e+07
2.37129e+07
6.99583e+07
-6.99066e+07
-1.80556e+07
-5.36303e+07
5.36721e+07
7.56234e+07
-7.55736e+07
-2.64349e+07
-5.04379e+07
5.04826e+07
3.01643e+07
-3.01168e+07
-2.99302e+07
2.88883e+07
-2.88353e+07
2.97847e+07
-7.56933e+07
7.57455e+07
1.91223e+07
-1.31606e+07
-3.03492e+07
-5.71903e+06
2.60797e+07
-2.59868e+07
1.15344e+07
-2.89323e+07
1.39773e+07
-2.29591e+07
-2948.18
2936.44
-8.28036e+07
8.28553e+07
-1.1657e+07
2.10994e+07
8.01269e+07
-8.00741e+07
-3.18969e+07
2.77734e+07
1.51805e+07
-4.92175e+07
4.9517e+07
3.01392e+07
-1.87509e+06
-5.15817e+07
6.76312e+06
-7.92606e+07
7.9312e+07
-3.27116e+07
3.27641e+07
-4.78522e+07
4.79074e+07
1.24816e+06
-1.25882e+06
1.34614e+07
-4.71077e+07
-9.43333e+06
-2.64387e+07
-2.77028e+07
-5.69817e+06
866740
-867035
-1.35655e+07
-1.76775e+06
2.60617e+07
-2.99986e+07
3.00301e+07
2.34721e+07
-1.73253e+06
-3.60977e+07
5.25089e+07
-5.2461e+07
-3.20113e+07
5.08799e+06
-5.31738e+07
5.32282e+07
-2.21811e+07
-5.29137e+07
5.29568e+07
-4.35665e+07
-2.40091e+07
-3.00391e+07
-1.57127e+07
1.79967e+07
-1.80448e+07
6.76629e+07
1.51748e+07
3.92286e+07
-3.9195e+07
1.81842e+06
3.1516e+07
-3.14848e+07
5.32488e+06
5.81149e+07
-5.80678e+07
-1.87732e+07
1.87921e+07
-3.23559e+06
-1.76816e+07
1.77062e+07
-5.82769e+07
5.83309e+07
3.58713e+07
-2.11583e+07
-3.56336e+07
3.09356e+07
-3.09055e+07
3.54756e+07
-1.18883e+07
-3.18077e+07
3.18629e+07
7.88135e+06
6.81198e+07
-6.80713e+07
9.51304e+06
4.58382e+07
7.39386e+07
-7.38871e+07
-160911
162323
-3.01858e+06
6.55694e+07
-6.55224e+07
8.13483e+06
3.05005e+07
-3.04464e+07
3.13481e+06
-3.13283e+06
-912372
2.98677e+07
6.77436e+07
-6.76954e+07
-8.58705e+07
8.59232e+07
2.76866e+07
3.23899e+06
-4.0247e+06
4.02761e+06
1.98822e+07
-19022.9
18933.5
-7.89965e+07
7.90475e+07
-2.12295e+07
6.44308e+06
-6.43741e+06
9.48734e+06
-6.76865e+07
6.77352e+07
-1.76442e+07
-9.22374e+06
-7.4538e+07
7.45902e+07
-6.79051e+07
6.79532e+07
-2.07629e+07
1.88178e+06
-4.9363e+07
2.32084e+07
-1.52532e+07
-7.86233e+06
2.56119e+07
2.82915e+07
-3.20488e+07
3.21333e+07
-6.05561e+07
6.06093e+07
7.43009e+07
-7.42485e+07
5.90417e+07
-3.11867e+07
-6.93195e+06
2.58701e+06
-6.96218e+07
-3.04625e+07
4.82608e+07
4.48597e+07
-4.86413e+07
4.07439e+07
-4.0691e+07
-2.45333e+07
2.45579e+07
6.06323e+06
-8.49916e+06
-2.98026e+07
1.45541e+06
-3.06725e+06
2.49009e+07
-2.73941e+07
-1.14897e+07
3.26624e+07
-3.26086e+07
744366
-3.64858e+07
3.65417e+07
-1.50831e+07
-7.66104e+07
7.66634e+07
-7.16757e+07
7.17236e+07
-1.08418e+07
-5.37197e+07
5.37641e+07
9.07855e+07
-9.0732e+07
5.99716e+07
-5.99275e+07
2.92087e+07
-2.91804e+07
6.58335e+07
1.60206e+07
2.08544e+07
-9.72616e+06
-2.55847e+07
2.56106e+07
-5.45914e+07
5.46353e+07
-1.87528e+07
1.84134e+07
-1.59852e+07
8.55399e+07
-8.54885e+07
3.18877e+07
-4.31877e+07
4.31975e+07
-2.50225e+07
-3.114e+07
4.53398e+07
-1.37685e+07
2.90317e+07
-2.89414e+07
4.1525e+06
-3.22154e+07
2.97075e+07
651317
-651642
5.5816e+07
1.1532e+07
1.14425e+07
-1.6356e+07
-3.95567e+07
-6.43618e+07
1.54857e+07
1.01418e+07
-1.01315e+07
6.44842e+07
-6.44316e+07
3.31051e+07
-3.30731e+07
-1.79967e+07
1.54417e+07
1.49706e+07
8.7373e+06
-1.58618e+07
-5.45535e+07
1.99406e+07
2.18129e+07
9.62394e+06
-6.19068e+07
6.18858e+07
1.09045e+06
-1.09056e+06
1.70344e+07
1.36979e+07
-4.24233e+07
4.24753e+07
2.96593e+07
-2.96309e+07
7.92091e+07
-7.91539e+07
-2.02889e+07
-1.03394e+07
1.02947e+07
5.13475e+06
-5.72028e+07
5.79379e+07
-7.08098e+07
7.08625e+07
3.19716e+07
-1.20085e+06
5.32603e+07
-5.32151e+07
-3.39516e+07
3.37809e+07
2.53246e+07
-1.00382e+07
-3.27556e+07
-1.61013e+07
2.70945e+07
-2.70132e+07
4.16766e+07
-4.16416e+07
-4.76685e+07
7.0465e+07
-7.04128e+07
6.06164e+07
-6.05703e+07
6.48328e+07
2.8114e+07
-2.80522e+07
-1.79259e+07
1.7945e+07
1.01786e+07
-1.86037e+07
-3.82009e+07
-2.97308e+07
2.97887e+07
-3.53749e+06
3.53986e+06
1.72529e+06
3.77669e+07
-4.86344e+07
4.86784e+07
3.83603e+07
1.67045e+07
-8.49309e+07
8.49837e+07
1.62599e+07
4.51793e+07
-5.72366e+07
1.78137e+07
-5.07481e+07
-5.87697e+07
5.8816e+07
2.03415e+07
6.26823e+07
-6.26349e+07
1.18447e+07
2.03465e+07
5.0788e+07
-4.54142e+07
4.546e+07
-2.33155e+07
2.4825e+07
-262750
7.30416e+07
-7.29896e+07
6.49551e+06
-1.10749e+07
4.20794e+07
-4.20267e+07
2.61871e+07
-2.73096e+07
2.71656e+07
3.02551e+06
2.03602e+06
-1.90528e+06
4.02807e+07
-4.02279e+07
8.45676e+06
-1.23581e+07
-2.73404e+07
5.09076e+07
-3.84558e+06
-1.39366e+07
-4.75218e+06
1.92134e+06
2.63927e+07
6.15356e+07
-2.12945e+07
5.9244e+07
-5.91989e+07
-2.8049e+07
944116
-944168
6.34973e+07
-6.34519e+07
2.14818e+07
-6.74988e+07
6.75461e+07
2.72447e+07
6.08737e+07
-8.60631e+06
-71453.4
71288.8
4.3371e+06
-5.457e+07
5.46212e+07
-3.51877e+07
3.78539e+06
3.63174e+07
-424266
-5.89908e+07
2.7838e+07
-1.8834e+07
1.88582e+07
3.31292e+07
-3.30976e+07
-3.11039e+07
1.40438e+07
2.70928e+07
-6.12005e+07
6.12448e+07
-6.92508e+06
4.11934e+06
-4.11598e+06
-728062
-7.43848e+07
7.44363e+07
-1.0503e+07
1.8248e+07
-2.47228e+07
2.14523e+07
-2.14578e+07
3.43802e+07
-3.4326e+07
-2.47706e+07
2.69684e+07
-3.55994e+07
3.57019e+07
4.38395e+07
-3.011e+07
-4.51652e+07
3.41762e+06
-5.5752e+07
-1.182e+07
2.88237e+07
-2.87662e+07
-831298
1.13211e+07
-1.13096e+07
6.05747e+07
-6.05307e+07
5.00177e+07
6.81732e+07
4.54728e+06
1.08012e+07
2.92735e+07
2.40088e+06
-5.66342e+07
-5.45668e+07
3.76025e+07
2.34969e+07
-3.11992e+07
-1.03137e+07
3.09071e+07
-3.92573e+07
3.93079e+07
3.99179e+07
-3.98779e+07
4.92841e+07
-4.97997e+07
2.22755e+07
-3.73439e+07
3.73982e+07
3.92513e+06
-4.13771e+07
4.13554e+07
-6.17551e+07
6.18016e+07
1.56037e+07
4.21412e+07
-9.07109e+06
-3.09978e+07
-5.55709e+07
6524.33
-6581.34
2.69377e+07
-1.45457e+07
1.77057e+07
-1.54769e+07
8.29962e+06
2.92148e+07
-2.91826e+07
-5.12757e+07
5.13174e+07
2.78906e+07
-5.90837e+07
7.64311e+07
-7.63793e+07
-4.56802e+07
4.57206e+07
2.43587e+07
1.72354e+07
1.95698e+07
2.53023e+07
4.32566e+07
-4.33444e+07
1.75603e+07
-3.87511e+07
3.87779e+07
-2.71355e+07
2.7162e+07
4.13836e+07
1.75016e+07
-1.74838e+07
2.88581e+07
-2.8799e+07
3.75403e+07
-2.21794e+07
2.21354e+07
-1.36584e+07
1.205e+07
1.4063e+06
-1.55959e+07
-2.77542e+07
2.92612e+06
-2.92175e+06
-2.32424e+07
2.78214e+07
-4.78437e+07
4.7897e+07
1.88006e+07
2.47137e+07
2.6301e+07
3.05539e+07
2.64963e+07
-2.64695e+07
3.24146e+07
-7.35185e+07
7.35682e+07
3.19687e+07
3.11155e+07
-1.54775e+07
-4.87035e+07
4.35758e+07
-4.3532e+07
1.5346e+07
3.63471e+07
2.96544e+07
-6.80521e+07
6.81038e+07
4.42658e+07
-4.42541e+07
2.30248e+07
-2.43709e+07
-2.00164e+07
-5.38148e+06
2.07419e+07
1.80637e+07
2.40737e+07
-2.24379e+07
2.64148e+06
-3.10388e+06
-5.16634e+07
5.17064e+07
6.33302e+06
7.79151e+07
-5.59696e+07
5.60151e+07
5.00694e+07
-3.5699e+07
2.97136e+07
-2.47767e+07
3.57528e+07
-7.20545e+07
7.21058e+07
1.03182e+07
3.7251e+07
-5.39124e+07
5.39541e+07
3.0897e+07
-2.65501e+07
4.2867e+07
6420.13
-6343.15
2.65764e+07
6.46607e+07
-6.46147e+07
2.55354e+07
-1.77106e+06
2.1879e+07
5.12172e+07
-4.13576e+07
-1.84681e+06
-7.78645e+07
47129.2
-47424.6
-1.67885e+07
3.63969e+07
1.20125e+07
70898.6
-69598.6
3.38697e+07
-4.87887e+07
4.88359e+07
8.04866e+07
-8.04352e+07
-2.59358e+07
2.59612e+07
2.98582e+07
1.52008e+06
-1.50713e+06
-3.02493e+07
-1.48609e+07
2.13176e+07
2.27257e+06
-2.71521e+07
-2.54768e+07
5.73557e+07
-5.73225e+07
-5.4712e+07
5.47636e+07
-7.03281e+06
-2.81658e+07
-6.95102e+07
1.83377e+07
-3.47347e+07
-1.01404e+06
3.26256e+07
3.40794e+07
8.05439e+07
-8.04899e+07
-5.47301e+07
-1.97101e+07
-4.20577e+07
4.21146e+07
-9.00773e+06
-2.51124e+06
836011
2.43752e+07
9894.49
-9823.65
-1.33064e+07
6.9224e+06
-6.91701e+06
-505864
-7.09388e+07
7.09864e+07
-1.19527e+07
-3.08039e+07
4.06149e+07
3.08649e+07
-5.65738e+07
5.65551e+07
1.32965e+07
-1.59213e+07
-2.84269e+07
3.86822e+06
-7.02932e+07
7.03404e+07
3.67234e+07
-3.67569e+07
-7.08256e+07
1.14152e+07
-8.50445e+07
8.50973e+07
1.57489e+07
-1.57327e+07
-2.72143e+07
5.64332e+07
-7.68088e+06
-4.55369e+07
4.55768e+07
7.72887e+07
-7.72356e+07
-760829
-4.36809e+06
3.30966e+07
6.68662e+07
2.72749e+07
1.70506e+07
-5.22371e+07
5.2283e+07
-1.27419e+07
2.14131e+07
-3.24996e+07
-4.96129e+07
-1.25612e+07
-3.13189e+07
4.74371e+07
-4.73834e+07
6.26885e+07
-7.62037e+07
7.62554e+07
100528
-100092
3.67119e+07
2.97264e+07
7.80966e+07
-3.6322e+07
-4.16938e+07
4.17471e+07
-4.22779e+07
2.81002e+07
-5.8211e+07
2.66694e+07
-1.35065e+07
-8.14703e+07
8.15222e+07
-5.31903e+07
-3.99461e+07
3.99808e+07
-8.60047e+07
8.60584e+07
-7.8043e+07
-8891.73
8861.97
2.52577e+07
-8.39752e+07
8.40262e+07
-4.44431e+07
4.44958e+07
-3.04168e+06
3.04341e+06
4.10835e+07
1.33669e+07
6.12233e+07
-6.11695e+07
-1.14381e+07
-1.69366e+07
5.13338e+07
-5.12869e+07
-3.16498e+07
-2.30353e+07
6.48144e+07
-6.47686e+07
-2.69932e+07
7.7363e+06
-7.72836e+06
4.3839e+07
107833
-2.31729e+07
8.28104e+07
-8.27554e+07
5.9079e+07
4.08353e+07
-4.07821e+07
-3.08019e+07
3.08354e+07
2.87819e+06
-2.87679e+06
1.37646e+07
5.21778e+07
-5.06532e+06
5.06912e+06
-4.74231e+07
4.74764e+07
-1.59977e+07
5.49781e+06
2.12543e+07
4.23274e+07
1.22361e+07
9.28593e+06
5.86982e+07
-5.86538e+07
5.92445e+07
-5.91962e+07
-9.016e+07
9.02141e+07
-2.44602e+07
-2.7817e+07
2.76053e+07
5.73538e+07
-5.73027e+07
-2.26271e+07
-227049
228026
-1.18645e+07
-4.46167e+07
2.96752e+07
-2.96257e+07
-6.84893e+07
1.75091e+07
-3.59552e+07
-7.58935e+07
7.59451e+07
-2.36728e+07
-2.93292e+07
2.93844e+07
1.5966e+06
2.15921e+07
-1.87824e+06
-4.28565e+07
-5.34492e+07
5.34942e+07
-6.4626e+06
-2.43837e+07
7.50343e+07
-3.50218e+07
3.50542e+07
1.42735e+07
5.93451e+07
-5.92971e+07
867166
-1.79157e+07
-1.81251e+07
4.93781e+06
-1.2767e+07
5.51852e+06
-5.91019e+07
5.91557e+07
5.70488e+07
-5.69944e+07
-9.94022e+06
-7.30019e+07
7.30527e+07
-5.21835e+06
1.09561e+07
5.21552e+06
-2.3081e+07
2.31037e+07
2.63003e+07
-2.28312e+07
1.32599e+07
4.71535e+06
-2.54062e+07
1.96565e+07
5.6855e+07
-5.68013e+07
-1.45695e+07
-2.62033e+07
4.70667e+07
-1.9262e+07
-6.51456e+07
-5.24976e+07
-1.84481e+07
1.22014e+07
5.57771e+06
1.04477e+07
-7.96563e+07
7.97078e+07
-7.75832e+07
7.76349e+07
2.1434e+06
2.03816e+06
-2.04881e+06
-3.24406e+07
-1.45412e+07
2.54511e+07
-3.19234e+06
6.44035e+06
-5.84772e+07
-5.54683e+06
2.53452e+06
-7.93047e+07
7.93562e+07
-1.6954e+07
5.35875e+06
6.23376e+07
1.66867e+07
-1.66693e+07
-5.35413e+07
6.49537e+07
1.5127e+07
4.57056e+07
1.89411e+07
-4.06858e+07
4.61085e+06
-4.88404e+06
-1.52971e+07
416799
-8.21916e+07
8.22424e+07
2.36807e+06
-2.35451e+06
2.15548e+07
3.7864e+06
4.18379e+07
-4.17835e+07
1.87876e+07
-1.48145e+07
1.87545e+07
-4.74293e+07
4.74787e+07
6.26421e+07
-4.70825e+06
3.83294e+07
-2.6257e+07
936532
-5.01895e+07
1.66121e+06
-2.99587e+07
-492172
2.60557e+06
2.05566e+07
2.09381e+06
1.91957e+07
-3.69567e+07
7.8723e+07
-7.86693e+07
-3.5384e+07
3.54314e+07
2.17711e+07
-2.17484e+07
8.29843e+06
-4.34376e+07
3.25141e+07
-2.51196e+07
2.51453e+07
-6.15489e+07
2.43897e+07
-1.99985e+06
3.27584e+07
-3.04733e+07
-1.97951e+07
-1.09695e+07
-1.88424e+06
1.90272e+06
-3.12593e+07
3.1318e+07
-2.99691e+06
2.99846e+06
4.64427e+07
-4.2594e+07
2.01289e+07
-1.21608e+07
-2.45282e+07
1.96922e+07
617273
-2.38042e+06
-4.20027e+06
-2.17654e+07
4.24076e+07
-1.77067e+06
9.50947e+06
3.87395e+07
5.62346e+07
-5.62352e+07
3.55079e+07
-2.76972e+06
-8.85767e+06
6.04973e+07
-6.04432e+07
5.50661e+07
-5.50177e+07
-2.79142e+07
-1.15972e+07
-2.0739e+07
-2.57504e+07
2.59732e+07
2.43209e+07
-2.3208e+07
-6.84972e+06
-2.27925e+07
-1.44236e+07
1.41614e+07
-7.55817e+06
-6.591e+06
1.04936e+06
-1.0521e+06
9.78008e+06
-3.73751e+07
4.77778e+07
-1.10968e+07
-3.75148e+07
3.7547e+07
-6.92567e+07
4.16751e+07
-4.16231e+07
337075
-335999
2.633e+07
5.87957e+07
-5.87479e+07
135183
-3.002e+07
705503
1.78335e+06
-1.63994e+07
1.63981e+07
-5.07204e+07
5.07674e+07
-1.58811e+07
4.37564e+06
3.74171e+07
6.91301e+07
-6.90818e+07
5.97544e+07
-5.97099e+07
2.80946e+06
-3.79054e+07
3.79438e+07
2.79798e+07
2.25688e+07
-6.69832e+07
6.70358e+07
1.04484e+07
-2.37647e+07
-2.72748e+07
9.29266e+06
-29351.3
29212
-4.56631e+07
4.57124e+07
-3.84788e+07
3.85328e+07
2.44828e+06
-2.44731e+06
-1.9497e+07
861279
-861509
-4.12176e+07
-5.72051e+07
2.63593e+07
4.25662e+07
-4.25141e+07
5.00751e+06
-4.798e+07
4.5892e+06
-4.45885e+06
-5.26023e+07
-3.34728e+07
3.35046e+07
-2.3532e+07
-1.39605e+07
-5.22262e+07
-7.49917e+07
7.50426e+07
4.76104e+07
5.55612e+07
-5.55071e+07
3.75113e+07
-3.74612e+07
-22005
21911.3
2.48182e+07
2.89948e+07
1.64073e+07
7.44869e+07
2.77547e+07
2.98732e+07
-2.47521e+07
-2.43624e+07
7.39498e+07
-7.38981e+07
3.36587e+06
6.62979e+07
-6.62453e+07
-2.9643e+07
-3.67548e+07
3.68019e+07
-6.43e+07
2.8616e+07
-6.43396e+07
6.43869e+07
-5.80689e+07
2.89788e+07
4.19517e+07
2.08734e+07
2.31411e+07
-5.12652e+07
5.13128e+07
2.31633e+07
-2.31315e+07
-1.22946e+07
-2.10153e+06
6.28843e+07
2.35911e+07
-6.05371e+06
-3.36801e+07
3.38151e+07
-1.10771e+07
-8.47703e+07
8.48218e+07
-6.20589e+07
6.21055e+07
5.76624e+06
-1.30598e+07
1.31101e+07
7.39115e+07
-5.1662e+07
3.56361e+07
-6.10744e+06