/*--------------------------------*- C++ -*----------------------------------*\
| =========                 |                                                 |
| \\      /  F ield         | OpenFOAM: The Open Source CFD Toolbox           |
|  \\    /   O peration     | Version:  v3.0+                                 |
|   \\  /    A nd           | Web:      www.OpenFOAM.com                      |
|    \\/     M anipulation  |                                                 |
\*---------------------------------------------------------------------------*/
FoamFile
{
    version     2.0;
    format      ascii;
    class       volScalarField;
    location    "3000";
    object      sigmaxy;
}
// * * * * * * * * * * * * * * * * * * * * * * * * * * * * * * * * * * * * * //

dimensions      [1 -1 -2 0 0 0 0];

internalField   nonuniform List<scalar> 
27023
(
-1.2747e+07
-1.27611e+07
-9.4503e+06
-9.44013e+06
-1.21445e+07
-1.21583e+07
-1.18039e+07
-1.1794e+07
-4.78715e+06
-4.78248e+06
-1.16291e+07
-1.1616e+07
-1.13005e+06
-1.13511e+06
-2.27462e+06
8.88195e+06
8.48232e+06
-2.21042e+06
-2.21772e+06
-1.85115e+06
-1.8436e+06
-1.06235e+07
-1.06141e+07
-1.2867e+06
-1.27648e+06
-538729
2.86158e+06
-1.30157e+06
2.61409e+06
-2.68502e+06
-839113
-2.208e+06
-2.20164e+06
-1.93089e+06
-1.55934e+06
-1.71747e+06
-1.1125e+06
-1.10197e+06
-4.77902e+06
-4.77507e+06
-9.45295e+06
-9.46315e+06
-1.82378e+06
-1.23001e+07
-1.23141e+07
-2.14992e+06
-2.14262e+06
-1.51583e+06
-1.50847e+06
-2.37639e+06
-853282
-845529
-2.09202e+06
-73323.2
-73137.7
-1.94049e+06
-1.62724e+06
-1.39856e+06
-2.61456e+06
-9.77532e+06
-9.76522e+06
-1.55186e+06
-1.89864e+06
-896988
-2.78431e+06
-533986
-1.68206e+06
-217815
3.04267e+06
-2.53623e+06
-1.40767e+06
-1.39707e+06
-3.61266e+06
-3.60267e+06
-1.27545e+06
-1.27488e+06
-298631
-296749
-4.81855e+06
-4.82219e+06
937598
-1.10345e+07
-1.10214e+07
-3.97485e+06
-3.96492e+06
-645113
-644898
-1.67349e+06
-2.58178e+06
-2.45477e+06
-2.38424e+06
-1.24663e+07
-1.24517e+07
6.55563e+06
-1.7742e+06
-546809
-554272
1.39999e+06
-2.81157e+06
-3.03556e+06
-1.72696e+06
-304932
-264343
-7.4553e+06
-7.44419e+06
-1.92625e+06
-7.58847e+06
-7.57941e+06
-2.03021e+06
-1.62033e+06
-3.09142e+06
-7.94408e+06
-7.93483e+06
-541340
-532293
-784368
-783651
2.24174e+06
256864
-1.25792e+06
-1.92258e+06
-1.45729e+06
-2.38493e+07
-2.38669e+07
-1.13016e+07
-1.12938e+07
-1.20275e+07
-1.2013e+07
-8.0482e+06
-8.03671e+06
-1.65034e+06
-1.27055e+06
-1.26804e+06
-1.19877e+06
-2.30258e+06
15183.3
15372.4
2.68409e+06
-2.4959e+06
-2.49004e+06
-1.30854e+07
-1.30978e+07
2.5934e+06
-1.15439e+07
-1.15333e+07
-738994
-1.92715e+06
-41554.7
-2.26737e+06
-1.88601e+07
-1.88418e+07
-1.60339e+07
-1.60182e+07
-2.72331e+06
-951540
-668843
-663931
-1.88016e+06
-2.56378e+06
-2.55815e+06
-1.61866e+06
-2.54685e+06
-1.28112e+06
-2.86769e+06
-1.68809e+07
-1.68944e+07
-1.17878e+07
-1.18008e+07
1.76553e+06
1.91963e+06
-3.34396e+06
-5.99557e+06
-5.99962e+06
-2.55499e+06
-2.36408e+06
-2.22459e+06
-1.90469e+06
2.40186e+06
-2.75067e+06
3.41676e+06
-2.26373e+06
-1.22098e+07
-1.22219e+07
-1.92264e+06
-1.88548e+06
-1.55353e+06
-533710
-540356
-1.41266e+06
-2.70622e+06
-1.28669e+07
-1.28804e+07
2.36994e+06
-2.44647e+06
-1.14798e+07
-1.14718e+07
-620953
-1.34379e+07
-1.34516e+07
552442
-2.35578e+06
2.72805e+06
-862416
-859312
-1.15713e+07
-1.15849e+07
-225732
-1.65473e+06
-388244
-385444
-158360
-157251
7.38762e+06
-844676
-4.56018e+06
-4.56243e+06
2.04303e+06
2.50496e+06
-3.11954e+06
-2.58387e+06
-2.58585e+06
-1.4359e+06
-2.3178e+07
-2.31951e+07
-1.42917e+06
-3.59595e+06
-3.59205e+06
-4.06561e+06
-4.05465e+06
-2.31218e+06
-2.31132e+06
-2.44323e+06
-2.8488e+06
-2.84527e+06
-1.49112e+06
-2.07877e+06
-2.07658e+06
-225121
-1.89748e+06
-1.34969e+07
-1.35064e+07
2.28119e+06
-1.76974e+06
-1.8574e+06
-2.30374e+06
6.47491e+06
-3.32564e+06
3.95088e+06
-871542
-1.88618e+06
-6.00468e+06
-6.01077e+06
-2.60432e+06
6.00945e+06
-431877
-1.0685e+06
-1.35084e+06
-649531
-2.4545e+06
-2.44882e+06
3.02315e+06
4.68853e+06
280804
-1.52953e+06
-1.52741e+06
-1.13641e+07
-1.13539e+07
-1.66387e+06
6.50297e+06
-2.09602e+07
-2.09446e+07
-1.12008e+06
-1.7116e+06
-1.51135e+06
-1.73347e+06
-2.33139e+06
-1.63061e+07
-1.63191e+07
-1.83743e+06
-1.84479e+06
-2.28075e+06
-1.92968e+06
-2.72277e+06
-2.59e+06
-70712.7
-70378
-2.12958e+06
-1.84838e+06
8.78249e+06
-3.67441e+06
-1.37984e+06
-2.63201e+06
-4.28256e+06
-4.28767e+06
-932668
-932942
-1.92448e+06
-1.85569e+06
-854818
-855853
-1.37113e+06
8.28228e+06
-1.0133e+07
-1.01453e+07
-339611
-5.80138e+06
-5.79172e+06
1.70848e+06
-2.37354e+06
-3.28426e+06
-1.75594e+06
10688.1
9890.06
-2.04002e+06
-2.03974e+06
-2.26644e+06
-2.1311e+06
-2.14072e+06
-111162
-2.56857e+06
-1.95798e+06
-1.96435e+06
1.649e+06
4.47214e+06
1.07339e+06
-2.66672e+06
-456640
-2.22867e+06
1.13911e+06
-2.91363e+06
4.34343e+06
-2.854e+06
-784459
-1.74593e+06
-1.61395e+06
-1.78868e+07
-1.79047e+07
-945455
7.81907e+06
-6.12917e+06
-6.11897e+06
-658061
-646197
-148610
-147574
3.74187e+06
-1.44344e+07
-1.44192e+07
-1.14479e+06
-1.51489e+06
-2.21753e+06
-2.23082e+06
-3.09196e+06
-3.08866e+06
-5911.14
-5872.87
9.67715e+06
-5.24655e+06
-5.25113e+06
-1.99899e+06
-253207
-554814
-557116
-1.75747e+07
-1.75886e+07
-2.84539e+06
-2.44815e+06
8.14227e+06
-1.44731e+07
-1.44887e+07
-4.7867e+06
-4.79025e+06
7.19796e+06
-2.02207e+06
1.25955e+06
-1.63327e+06
-1.70076e+06
904335
-654817
-917138
-1.81229e+06
-908860
-1.0702e+07
-1.06928e+07
3.67476e+06
1.82465e+06
-1.83179e+06
-2.06785e+06
-784372
3.19306e+06
4.72008e+06
-2.20851e+06
-283348
-3.20108e+06
8.8429e+06
-2.91151e+06
-1.71043e+06
-1.58727e+06
-600519
-1.5743e+06
-4.49255e+06
-4.48149e+06
6.03448e+06
2.34337e+06
-1.44467e+06
-1.42147e+07
-1.42301e+07
876743
-2.25827e+06
48130.5
-469172
190584
-341285
-339208
-2.89942e+06
-1.56498e+06
-3.85519e+06
-1.9968e+06
-1.63439e+06
-1.63196e+06
3.03831e+06
-1.16326e+06
3.56892e+06
2.41303e+06
-1.43128e+06
-839601
-1.15365e+06
-1.15596e+06
-315253
-2.9951e+06
-1.46928e+06
2.07816e+06
-1.16684e+06
-1.16502e+06
-2.91331e+06
-2.92234e+06
-1.4022e+06
3.2262e+06
-6.19034e+06
-6.18547e+06
-161320
-161075
-2.40427e+06
-2.39693e+06
-180990
-182279
2.78347e+06
-2.3698e+06
-2.15287e+06
8.09323e+06
6.82223e+06
-1.59146e+07
-1.59287e+07
-1.63154e+07
-1.63295e+07
-1.71528e+06
-1.70139e+06
-1.9238e+07
-1.92197e+07
3.66749e+06
2.95079e+06
-1.14237e+06
-2.33634e+06
3.90133e+06
-317702
-2.28874e+06
-1.20699e+07
-1.20788e+07
-1.36825e+06
-1.5188e+06
-2.63296e+06
-1.63716e+06
-1.8312e+06
1.82944e+06
-590421
-4.35559e+06
-4.34947e+06
-526469
-784762
-8.0254e+06
-8.01559e+06
-3.43411e+06
-3.43059e+06
-1.22962e+06
4.51041e+06
-350440
3.47504e+06
40955.5
-2.65793e+06
-1.32968e+07
-1.33098e+07
-2.12933e+06
-3.78389e+06
-866772
-1.59848e+06
-1.60859e+06
-1.55133e+07
-1.54969e+07
4.73412e+06
-468156
-2.40154e+06
-8.13408e+06
-8.14665e+06
-2.03896e+06
8.30993e+06
-723738
-717604
1.29962e+06
-1.9748e+07
-1.97338e+07
-1.19341e+07
-1.19208e+07
-262475
-2.25004e+07
-2.25175e+07
-1.80478e+06
-1.43969e+06
-1.42558e+06
-1.42233e+06
-2.03703e+06
-1.35114e+06
-1.35218e+06
-969618
-4.99941e+06
-5.00691e+06
-2.36011e+06
-2.36893e+06
-1.01644e+06
-2.49872e+07
-2.49661e+07
-1.57098e+06
-2.02014e+06
-1.27989e+06
1.71016e+06
-3.05822e+06
-3.04566e+06
-5.6251e+06
-5.62986e+06
-2.32079e+06
-1.84666e+06
920950
-1.40767e+06
751492
1.85017e+06
-2.81902e+06
-6.02851e+06
-6.0333e+06
-921165
-385928
-386378
-2.50953e+06
-788288
-5.65432e+06
-5.66448e+06
-993962
-1.41371e+06
-1.42961e+06
767818
3.84517e+06
-1.99326e+06
2.90108e+06
-2.48062e+06
-734281
-727975
-1.79318e+06
9.29265e+06
-2.71488e+06
-2.70986e+06
-2.44439e+06
-2.30871e+06
-2.31408e+06
-1.75755e+06
-1.79626e+07
-1.79445e+07
-1.29973e+07
-1.3011e+07
-2.07971e+07
-2.08172e+07
-1.31205e+06
1.5065e+06
1.46652e+06
-2.24254e+06
-1.95711e+07
-1.95899e+07
-1.69965e+06
6.52031e+06
1.15218e+06
-2.20947e+06
8.99535e+06
-1.49294e+06
8.00884e+06
-249494
-611921
-602531
-2.70496e+06
-469580
-460028
-2.66263e+06
-3.35345e+06
-3.36375e+06
-1.737e+06
-2.80734e+06
-1.69618e+06
-1.70172e+06
-1.38728e+06
-1.38488e+06
-978517
3.06723e+06
2.11267e+06
-3.71674e+06
-3.70982e+06
-2.2659e+06
-2.26347e+06
-2.90201e+06
-2.6601e+06
-862364
-890912
-92988.7
-81564.2
-116739
-9857.38
-106736
-107502
-9987.22
-1.9683e+06
-1.0341e+06
-1.03782e+06
-1.70881e+07
-1.71051e+07
-1.21873e+07
-1.22017e+07
-1.84218e+07
-1.84033e+07
5.72518e+06
-2.6262e+06
-2.61481e+06
-1.7603e+06
-3.40071e+06
-2.3802e+06
-2.39159e+06
-2.05757e+06
-3.11831e+06
-3.11038e+06
-1.67326e+06
-1.82436e+06
-1.06259e+06
-2.00877e+07
-2.01073e+07
-2.09049e+06
-2.79648e+06
2.35431e+06
-3.24585e+06
-4.68746e+06
-4.69497e+06
9.03657e+06
344404
-4.58047e+06
-4.58454e+06
-202820
-204235
-2.4134e+06
-2.39896e+06
-1.77172e+06
-1.53957e+06
-770882
-770402
1.08415e+06
-666858
5.24936e+06
-275187
-1.08141e+06
-2.3795e+06
-1.97914e+06
-1.41186e+06
2.30396e+06
-1.96279e+06
-1.68367e+06
-1.5619e+06
-1.28166e+06
4.26832e+06
-2.67296e+06
-95451.9
-96051.1
-3.41204e+06
-3.40194e+06
842447
461125
-2.26194e+06
-1.27555e+06
-373777
-1.4217e+06
-58795.5
-1.72023e+06
-324409
-31216.2
3.03464e+06
-1.02876e+07
-1.02741e+07
1.77243e+06
-1.37127e+06
-2.65058e+06
-2.69628e+06
-4.70524e+06
-4.69948e+06
-396439
-397816
-18197.4
-18080.9
-1.6009e+06
7.5646e+06
-1.53307e+06
3.95002e+06
1749.87
-5703.68
-1.66879e+06
-4.80222e+06
-4.79905e+06
-1.81736e+06
-1.81929e+06
-1.05564e+06
-4.35488e+06
-4.34666e+06
7.28583e+06
-1.54288e+06
-1.9831e+06
-2.92337e+06
-2.14856e+06
-2.04915e+06
-2.03375e+06
-2.03025e+06
-1.75573e+06
777186
-1.64956e+07
-1.64822e+07
-1.48185e+06
-684946
4.02842e+06
-681318
-1.74795e+06
-1.70955e+06
-1.92498e+06
1.99808e+06
-2.21797e+06
8.64211e+06
-2.21448e+06
1.87517e+06
-333849
-418288
-6.92935e+06
-6.91727e+06
-668677
-669230
-2.72473e+06
-1.8701e+06
-4.46884e+06
-4.47575e+06
-1.7562e+06
-1.47238e+06
-2.64119e+06
-1.35975e+06
-2.49322e+06
-1.44109e+07
-1.43957e+07
-2.21748e+06
-696257
-690483
-962322
-963440
-1.2574e+06
-2.49856e+06
-2.24932e+06
-340985
-1.19584e+07
-1.19466e+07
-2.20613e+06
4.41575e+06
-2.81434e+06
-1.60992e+06
-1.70719e+06
3.45473e+06
3.4939e+06
3.98161e+06
-2.43242e+06
-1.4193e+06
-1.41841e+06
-1.38666e+07
-1.38533e+07
-2.25673e+06
-2.18304e+06
-905790
6.68464e+06
-1.82883e+06
-1.82734e+06
-1.72702e+06
-1.96387e+06
-1.53002e+06
-1.46624e+06
-1.47934e+06
-2.72304e+06
-2.72032e+06
-1.71752e+06
-1.60743e+06
-1.23409e+07
-1.23299e+07
2.03568e+06
-3.01639e+06
4.25284e+06
-3.52665e+06
-3.52437e+06
-6.08436e+06
-6.09372e+06
1.96106e+06
-1.02233e+07
-1.02366e+07
-1.63278e+06
-2.01126e+06
-3.00405e+06
-3.27656e+06
-1.88219e+06
-1.87951e+06
-3.09284e+06
-2.05944e+06
-2.07037e+06
-214357
-213323
2.37441e+06
2.24923e+06
-2.016e+07
-2.01412e+07
-1.44837e+07
-1.44965e+07
-708614
-1.20301e+06
-1.38936e+07
-1.38818e+07
-1.27791e+06
2.09577e+06
-1.62625e+07
-1.6246e+07
-1.69111e+06
-1.68527e+06
-4.7417e+06
-4.9975e+06
-5.00422e+06
-73527.7
-73536.8
-4.75179e+06
-2.53037e+06
-1.69632e+06
-1.89076e+06
-2.14953e+06
-2.14384e+06
-559667
2.77536e+06
-2.28658e+06
-557557
794773
1.05415e+06
-2.56237e+06
-130356
-124523
2.85617e+06
2.69462e+06
-1.58147e+06
-149917
-156984
-2.89235e+06
23005.3
-118215
-118422
3.46861e+06
2.62477e+06
-2.84054e+06
-1.23831e+07
-1.2372e+07
-4.12346e+06
-1.20327e+06
-4.50278e+06
-1.21574e+06
-2.10229e+07
-2.10032e+07
-1.51621e+06
3.95918e+06
-4.10174e+06
-2.38077e+06
-2.32973e+06
-4.51211e+06
-1.84695e+06
-1.57719e+07
-1.57559e+07
-1.14569e+06
-1.15008e+06
-1.47179e+06
1.53026e+06
-1.70598e+06
-1.26215e+07
-1.2608e+07
-3.14617e+06
-3.15151e+06
7.50257e+06
-1.43684e+06
-2.50227e+06
-2.49629e+06
-2.37051e+06
-4.88818e+06
-4.88342e+06
-2.29019e+06
-3.24332e+06
-674978
-2.28214e+06
-2.21882e+06
-1.67676e+06
-1.61046e+06
-1.6724e+06
-1.80682e+06
-2.27443e+06
-2.27252e+06
-2.99122e+06
6.2881e+06
-726486
-1.83623e+06
-3.10783e+06
9.13775e+06
1.52867e+06
-2.77036e+06
-2.9844e+06
7.98863e+06
3.62779e+06
3.99553e+06
1.16019e+06
57451
-2.9167e+06
-2.12671e+06
-6.30964e+06
-6.3147e+06
3.86288e+06
-4.66239e+06
-4.6654e+06
-2.22507e+06
-577462
-2.70095e+06
-2.68826e+06
1.95252e+06
-3.74847e+06
-3.74271e+06
4.76478e+06
-2.28574e+06
-3.26248e+06
-4.78663e+06
-180870
4.45195e+06
228782
1.30983e+06
-2.82729e+06
-1.81605e+06
-1.37769e+07
-1.37618e+07
-1.97865e+06
3.53399e+06
-821175
-821666
-1.46979e+06
-2.20978e+06
-1.05946e+06
-2.11977e+06
-1.75825e+06
-1.75924e+06
-1.42794e+06
852332
-2.47545e+06
-235820
-235565
-560932
-1.8008e+06
7.71848e+06
-1.86865e+06
5.5892e+06
-2.01195e+06
4.08754e+06
-2.50837e+06
-1.32912e+06
-1.33455e+06
-1.78549e+06
-1.35501e+06
6.01985e+06
6.00039e+06
-2.47049e+06
-1.25503e+07
-1.25619e+07
3.13063e+06
-1.41396e+06
-1.64775e+06
-6.57346e+06
-6.57879e+06
-2.79429e+06
7.98101e+06
-2.86863e+06
-3.8894e+06
-3.89454e+06
-801924
811903
797108
-1.26144e+07
-1.26049e+07
-2.39067e+06
-2.21213e+06
-298493
-298091
1.99267e+06
-1.23888e+06
-2.60536e+06
-1.44663e+06
-1.44474e+06
-2.68391e+06
-2.01688e+07
-2.01551e+07
-3.26377e+06
-2.68946e+06
-898876
-9.12517e+06
1.64157e+06
-2.82108e+06
-9.13733e+06
-655267
-8789.6
-1.3512e+06
-1.62745e+06
-1.63686e+06
972465
897837
-1.29306e+06
2.54398e+06
-2.2899e+06
-1.67212e+06
-3.00241e+06
-2.24558e+06
1.72176e+06
-2.545e+06
-2.67002e+06
7.73687e+06
821474
5.53204e+06
-291669
-1.39953e+06
-1.13621e+06
-1.37094e+06
6.47858e+06
-1.6253e+06
-1.72881e+06
-2.48257e+07
-2.48466e+07
8.06974e+06
-3.36655e+06
-1.25826e+06
-1.25962e+06
-3.04808e+06
-3.04276e+06
-757520
-2.31326e+06
-1.13901e+06
-3.1612e+06
-3.16677e+06
-1.70779e+06
-1.70651e+06
-2.67198e+06
7.39389e+06
-2.69491e+06
7.30714e+06
-1.79943e+06
9.57379e+06
2.96832e+06
4.06401e+06
-1.17859e+06
-1.99631e+06
-1.98486e+06
2.01271e+06
2.08068e+06
4.28785e+06
-1.62895e+06
-1.01068e+06
-1.00938e+06
7.79514e+06
1.03437e+06
3.61472e+06
-2.09069e+06
-1.29733e+06
-2.67171e+06
-896290
-1.67567e+06
-1.57732e+06
-2.12165e+06
-2.94884e+06
-1.38736e+06
-3.00605e+06
-2.99449e+06
-1.76144e+06
3.24997e+06
-2.84371e+06
-1.50512e+06
-1.12546e+06
-99232
-99330
3.98944e+06
-19872.9
-3.97705e+06
-3.98066e+06
-5.19098e+06
-5.18661e+06
6.95892e+06
-3.06471e+06
-2.82904e+06
-57787.7
-1.71545e+07
-1.71688e+07
-5.88657e+06
-5.87849e+06
7.05281e+06
-1.76529e+06
-1.76337e+06
-1.09524e+06
-862056
-607724
-132125
-131134
4.43969e+06
5.56352e+06
513743
-1.75008e+06
-1.07434e+07
-1.0756e+07
3.59081e+06
-1.74715e+06
-1.96939e+06
-2.54954e+06
-2.60949e+06
-920556
2.07993e+06
2.09215e+06
-1.95676e+06
-1.9587e+06
-477448
612556
602147
-3.83143e+06
-3.8362e+06
-202800
-2.07429e+06
-1.43295e+06
-2.1919e+06
-7.59359e+06
-7.58387e+06
2.93058e+06
6.49686e+06
-619392
-2.55719e+06
-1.46568e+07
-1.46727e+07
-1.64713e+06
-1.06126e+06
-483381
-3.53293e+06
-3.52826e+06
-1.98414e+06
1.10662e+06
-2.35474e+06
-3.35489e+06
-1.73967e+07
-1.73834e+07
-2.46052e+06
-2.99247e+06
-2.98409e+06
-2.35641e+06
-838605
-716259
-538902
3.06818e+06
-2.10747e+06
-2.67083e+06
-1.6799e+06
-1.51602e+06
4.24841e+06
2.61507e+06
-106918
-106563
-847875
-5.41516e+06
-5.40988e+06
-1.33519e+07
-1.33383e+07
-2.40502e+06
-1.62516e+07
-1.6238e+07
-2.08351e+07
-2.08514e+07
-43394.5
-43354.1
-1.9016e+06
-943911
-942828
-1.66752e+06
-1.70133e+06
-1.3779e+06
-1.40926e+06
-2.55279e+06
-2.97711e+06
-1.31383e+06
-1.30014e+06
-6.9233e+06
-6.93561e+06
-1.40756e+06
-1.31421e+06
4.31843e+06
-1.01005e+06
-1.86775e+06
-1.62234e+06
-1.86748e+06
8.72862e+06
-1.84323e+06
-3.13113e+06
-3.12903e+06
-1.08787e+06
1.98436e+06
-1.16644e+06
-1.43744e+06
2.94993e+06
5.17914e+06
-161383
-155865
2.57614e+06
-1.52811e+06
769906
723919
-2.00754e+06
-1.89639e+06
65814.9
-836877
-846178
-2.08908e+06
3.85704e+06
-241143
-7.32079e+06
8148.13
68407.7
-7.33411e+06
-2.01461e+06
-1.71264e+06
1.04284e+06
-1.70151e+06
2.97361e+06
-2.17819e+06
-2.24183e+06
-2.45482e+06
-2.87951e+06
-2.37613e+06
-1.37053e+06
-232165
-1.87227e+06
-1.85244e+06
-1.84669e+06
-1.41225e+06
8.02837e+06
2.3281e+06
4.22653e+06
-1.30423e+06
-6.10819e+06
-146798
512210
-1.8115e+06
-2.07179e+06
-6.1244e+06
-2.94052e+06
-2.36309e+06
-2.07253e+06
-2.88474e+06
-232670
-331017
-2.01658e+06
-226904
-225379
-1.18433e+06
-1.2272e+07
-1.22846e+07
2.98231e+06
-1.06277e+07
-1.06141e+07
8.4681e+06
-1.37586e+07
-1.37441e+07
-1.5327e+06
-753505
-1.31183e+06
157910
159854
-3.168e+06
-1.49406e+06
-695561
-1.77202e+06
-1.25512e+07
-1.25376e+07
-4.71593e+06
2.47488e+06
3.51469e+06
-1.5481e+06
-1.65725e+06
-1.641e+06
-35424.8
-35189.2
3.15964e+06
-1.94645e+06
-2.05494e+07
-2.05302e+07
-5.34815e+06
-5.33888e+06
-987711
-1.6521e+06
-1.11664e+06
-5.51205e+06
-5.50062e+06
-2.80805e+06
-201908
-201835
-1.76536e+06
-1.76103e+06
-5.26959e+06
-5.27726e+06
-845707
-1.47499e+06
-1.473e+06
-1.22814e+07
-1.22717e+07
-2.33799e+06
-2.42551e+06
-64015.3
-778277
3.64905e+06
2.7382e+06
-777018
1.63374e+06
877978
-2.23074e+06
-2.37962e+06
-2.09305e+06
-1.73611e+06
-1.73392e+06
866069
-2.12525e+07
-2.12688e+07
-7.11612e+06
-7.10801e+06
3.01223e+06
-2.8066e+06
-2.81622e+06
-1.14424e+06
-1.13102e+06
-1.68967e+06
-1.02545e+06
-1.00388e+06
-2.77423e+06
-402016
-402358
-2.22702e+06
-1.38012e+06
-1.715e+06
8.40422e+06
1.779e+06
1.85004e+06
-1.91503e+06
-1.64102e+06
3.95605e+06
-2.58071e+06
9695.13
9635.87
-7.18452e+06
-7.19092e+06
-1.82583e+06
-1.5988e+06
-1.82515e+07
-1.82377e+07
-1.91597e+06
-4909.22
-2.79595e+06
455533
233566
2.64711e+06
2.61135e+06
-1.31768e+06
-2.90249e+06
-1.57786e+07
-1.57913e+07
-1.6275e+06
-1.63575e+06
-2.43898e+06
-2.44496e+06
-1.10351e+06
-1.09749e+06
-2.41638e+06
-1.44585e+06
-1.80641e+06
-2.42584e+06
5929.94
7.50236e+06
-1.74559e+06
-1.74533e+06
-2.23314e+06
-1.75801e+06
-1.95392e+06
-8.25356e+06
-8.26604e+06
4.87986e+06
-2.49751e+06
-1.03566e+06
-3.07935e+06
-3.07148e+06
1.17548e+06
9.1754e+06
-2.23035e+06
-2.23742e+06
5.45055e+06
-2.98216e+06
-2.99318e+06
-1.53346e+06
-885895
1.88893e+06
-1.18948e+06
-1.21381e+06
-1.18823e+06
-569324
-524092
-1.47763e+07
-1.47613e+07
-2.32716e+06
-1.549e+07
-1.54741e+07
2.80032e+06
-3.90981e+06
-3.90161e+06
-1.43722e+07
-1.43877e+07
-2.02671e+06
-5.09896e+06
-5.11218e+06
-2.12612e+06
-2.13151e+06
-972218
2.45489e+06
-1.32692e+06
-1.77506e+07
-1.77331e+07
-1.41833e+06
-1.74191e+06
629764
627762
-2.85725e+06
-2.3118e+07
-2.3101e+07
3.06946e+06
-2.24595e+06
-1.3067e+06
-1.30591e+06
-232590
-231324
-4.25693e+06
-5.52485e+06
-5.51552e+06
-1.13783e+06
-896221
-884579
-3.27427e+06
-3.27177e+06
6.2601e+06
-354910
-2.23394e+07
-2.23228e+07
-9.09917e+06
-9.10645e+06
2.21536e+06
5.67464e+06
-5.66534e+06
-5.66967e+06
-1.5628e+06
-91841.4
-91110.7
-938084
-938192
4.4957e+06
-8.12545e+06
-8.11796e+06
-1.38083e+06
-4.73986e+06
-4.74791e+06
909828
8.00414e+06
-2.47095e+06
-2.47393e+06
-1.67286e+07
-1.67429e+07
-1.11193e+06
7.73587e+06
-1.08152e+06
5.558e+06
-1.87733e+06
1.41431e+06
4.43398e+06
3.16846e+06
-2.64658e+06
-2.68062e+06
-2.61947e+06
-2.62414e+06
-1.28026e+06
-1.27868e+06
-1.53929e+06
-2.30003e+06
-3.07493e+06
9.23738e+06
-529145
-2.22904e+06
-1.46528e+06
-1.19003e+06
-2.06166e+06
-2.30578e+06
-2.29728e+06
-1.6781e+07
-1.67982e+07
2.85279e+06
-2.75785e+06
-344327
6.17023e+06
7.5056e+06
-1.5828e+06
1.47707e+06
-1.13098e+06
-1.58735e+06
-1.574e+06
4.70765e+06
-1.02358e+06
-1.03123e+06
-191544
-2.21975e+07
-2.22132e+07
-1.15791e+07
-1.15916e+07
6.59744e+06
-3.62176e+06
-3.632e+06
-7.47967e+06
-7.47457e+06
-5.39667e+06
-5.38522e+06
-2.0405e+07
-2.03854e+07
-1.16558e+06
344262
-1.50656e+06
-2.08302e+06
-1.42105e+07
-1.42258e+07
-3.83052e+06
-3.84098e+06
-1.16984e+06
-1.15377e+06
910165
-828194
-827383
-2.34033e+06
-1.99401e+06
-1.85288e+06
2.98332e+06
-2.19299e+06
-2.23685e+06
-1.52363e+06
362221
368332
-2.4843e+06
-2.53464e+06
-2.47508e+06
-1.41509e+06
-1.41604e+06
-670055
-1.80624e+06
3.38316e+06
-1.86684e+06
-1.62669e+06
-1.25216e+06
-1.98151e+06
-9.90275e+06
-9.89218e+06
-3.1146e+06
-3.10982e+06
-1.52772e+07
-1.52614e+07
-1.8505e+06
-2.88716e+06
-917368
4.93811e+06
2.23151e+06
-1.21771e+06
-1.39686e+06
-2.87802e+06
-40426.1
-117181
-117659
-2.27744e+06
-2.27695e+06
-1.52475e+06
4.35966e+06
-2.37791e+06
-2.39268e+06
-2.20123e+07
-2.19914e+07
-689223
-687801
-77434
-964215
-949395
804232
1.01765e+06
837495
-1.54385e+06
-1.54615e+06
-2.32618e+06
-1.89762e+06
-1.06825e+07
-1.0671e+07
-795624
-855535
-1.85583e+06
-2.96806e+06
-2.41986e+06
-1.66587e+06
2.46085e+06
2.49213e+06
-1.83799e+07
-1.83632e+07
-1.90792e+06
-2.9226e+06
-2.91875e+06
-1.28093e+07
-1.27963e+07
-320979
1.41235e+06
1.45604e+06
-1.04794e+07
-1.04932e+07
2.01871e+06
-1.49326e+06
390701
-821460
-832173
-5.60948e+06
-5.61373e+06
9.49282e+06
212776
-2.21747e+06
-2.22712e+06
-1.33855e+06
-2.00644e+06
-8.31689e+06
-8.32442e+06
-2.49047e+06
-1.1724e+06
-1.23414e+06
-2.67145e+06
-5.48524e+06
-4.09867e+06
-4.10806e+06
3.76485e+06
-4.44581e+06
-4.4371e+06
8.21346e+06
-98652
-5.49667e+06
-1.99958e+06
-2.0083e+06
-1.45379e+06
-345400
1.99023e+06
-2.98647e+06
-2.98347e+06
3.22953e+06
-2.26906e+06
-1.97904e+06
-1.97166e+06
-642999
-1.76854e+06
-1.74771e+06
-4.26206e+06
-1.89326e+06
-1.86833e+06
-1.99295e+06
-1.98521e+06
7.65762e+06
-853149
-1.70922e+06
-1.34722e+06
-2.01522e+06
1.29461e+06
-525039
-2.9112e+06
4.04397e+06
-1.33508e+06
-1.07181e+06
-1.97949e+07
-1.97799e+07
-5.22997e+06
-1.62654e+06
-1.6265e+06
-9.5027e+06
-9.4893e+06
-626410
-1.2157e+07
-1.21706e+07
-1.53015e+06
-74908.9
-2.86627e+06
-386344
-386043
3.92755e+06
-2.95532e+06
-2.96153e+06
390981
-2.02741e+06
832338
8.75321e+06
-1.53687e+06
-2.63701e+06
-4.70741e+06
-4.72125e+06
-1.80024e+07
-1.79847e+07
-2.133e+06
-3.05062e+06
-3.1432e+06
-6.06398e+06
-6.0759e+06
-2.92733e+06
-3.74384e+06
-3.73972e+06
-1.34335e+06
-1.63636e+06
-1.63747e+06
-2.53112e+06
1.36779e+06
-2.40974e+06
-2.09305e+06
-2.10466e+06
-1.32108e+06
-1.30845e+06
-324890
-2.66377e+06
-1.9609e+06
-1.85822e+06
-2.12906e+06
-2.29477e+06
-2.10919e+06
-2.40527e+06
-1.36451e+06
7.59793e+06
-1.35918e+06
-1.34546e+06
3.52942e+06
-9.71007e+06
-9.69937e+06
-1.23325e+06
-1.21717e+06
-1.32073e+06
-62691.5
-1.48433e+06
550686
2.62145e+06
2.76952e+06
-563539
-1.8048e+06
-1.91819e+06
2.77954e+06
-2.22046e+06
-3.00862e+06
-2.29825e+06
-2.36339e+06
-2.36841e+06
-224409
-216365
-176872
-148101
5.66799e+06
-1.84581e+06
-1.85694e+06
-2.64589e+06
-2.03829e+06
-1.17471e+06
-4.56811e+06
-4.57722e+06
523734
-2.20445e+06
-1.79517e+06
-2.55573e+06
-920718
2031.16
1910.29
-1.28241e+06
-3.44305e+06
-1.72979e+06
920165
-1.94451e+06
-7.40227e+06
-7.39196e+06
-3.50665e+06
-3.51874e+06
4.04063e+06
-1.20684e+06
-1.25516e+06
-1.25375e+06
-2.10468e+06
-2.11621e+06
-1.83726e+06
6.21067e+06
-2.60324e+06
-1.90752e+06
-2.76467e+06
-2.4614e+06
-1.59397e+06
-1.33231e+06
-1.4302e+06
-2.06805e+07
-2.07004e+07
-2.09757e+06
-1.38993e+07
-1.38842e+07
-819303
-804787
-12893
-825191
-852227
1.62152e+06
7.33239e+06
-2.61357e+06
6.59154e+06
-38661.6
-4.15775e+06
-4.15387e+06
2.22284e+06
-50916.2
-2.48684e+06
-2.49415e+06
-817458
-2.98846e+06
-1.49417e+06
-2.19748e+06
-1.60012e+07
-1.59848e+07
-1.33137e+06
-1.38205e+07
-1.38335e+07
273492
-2.37574e+06
1.16488e+06
-1.54812e+06
-1.7856e+06
-1.77676e+06
-1.01526e+06
-1.19797e+06
-2.36924e+06
-1.27002e+06
-1.27452e+06
-2.51336e+06
-2.51362e+06
2.32161e+06
2.38805e+06
-2.03254e+06
7.02719e+06
-2.08689e+06
-2.49503e+06
-2.29111e+06
-2.25983e+06
-1.68659e+06
-2.84889e+06
-3.28535e+06
-3.29632e+06
-2.73288e+06
-20267.1
-3.46249e+06
-3.47198e+06
-1.89942e+06
594411
-1.61737e+06
3.65505e+06
612127
-1.15197e+06
-1.15553e+06
-1.80513e+06
-521727
-4.60838e+06
-4.62161e+06
3.02538e+06
-1.67132e+06
-2.1277e+06
-41128.4
-40642.8
1.56619e+06
-1.1618e+07
-1.16044e+07
-2.85989e+06
4.7199e+06
-1.72891e+06
-1.14942e+06
-1.19839e+06
664144
-20596.4
-271910
-272527
-3.12444e+06
-2.38444e+06
-1.56635e+06
-235557
-234815
1.19474e+06
-2.33431e+06
-2.34262e+06
-1.37965e+07
-1.37845e+07
-2.01956e+07
-2.02152e+07
-2.47683e+06
-1.47196e+06
-1.4673e+06
-2.54403e+06
-3.1826e+06
5.88649e+06
-1.95964e+06
2.71006e+06
4.11735e+06
-1.0408e+06
-1.01458e+06
-3.24922e+06
-3.25558e+06
-2.57129e+06
3.44606e+06
146181
-727466
-1.76727e+06
45633.3
-1.18378e+06
-2.30524e+06
-2.10406e+07
-2.10258e+07
-1.34174e+06
-2.64462e+06
-2.42114e+06
-2.42794e+06
-2.15066e+06
-648252
847459
-2.56409e+06
14687.8
14433
-2.61917e+06
-4.11307e+06
-4.10873e+06
3.78916e+06
-9.74936e+06
-9.76162e+06
-955174
66891.8
-2.27061e+06
60979.5
150335
163479
-1.34264e+06
6.22275e+06
-1.25462e+06
-2.58203e+06
-1.02217e+07
-1.02343e+07
-821995
-622662
484606
-1.13783e+06
-1.35574e+07
-1.35675e+07
-1.51164e+07
-1.51007e+07
-585079
-1.35286e+06
-2.66821e+06
-1.32178e+06
-1.33272e+06
-638383
-637825
-1.88018e+06
-3.24804e+06
-2.97315e+06
-268425
-598833
-999185
-2.98433e+06
-2.99344e+06
-666433
-1.72726e+06
1.79342e+06
-1.00263e+06
-976698
2.05749e+06
-2.62735e+06
-2.6202e+06
-1.43305e+06
-1.77408e+06
-1.77553e+06
-364445
-362152
-1.57544e+06
3.0052e+06
-724262
-2.44955e+06
-1.7572e+06
-1.77317e+06
-1.85866e+06
-5.26158e+06
-865410
3.52584e+06
-2.53661e+06
-2.3835e+06
-2.38599e+06
-1.25115e+06
-2.44319e+07
-2.44532e+07
-1.22997e+07
-1.23095e+07
-725649
-79178.4
-78519.5
-1.41857e+06
-1.5614e+06
-1.56238e+06
-2.01402e+06
-2.02176e+06
-5.23861e+06
-5.24218e+06
-2.30373e+06
3.15121e+06
-2.45985e+06
-2.45518e+06
-2.40733e+06
-2.95823e+06
-3.00818e+06
-2.99965e+06
-1.98852e+06
-1.14409e+06
-6.1191e+06
-6.10855e+06
-3.09354e+06
-6.14242e+06
-6.13598e+06
-1.1996e+06
5.1128e+06
-1.96286e+06
-1.98039e+07
-1.97898e+07
-393761
-2.20729e+06
-2.1994e+06
-8.32401e+06
-8.3354e+06
-3.42299e+06
-3.4202e+06
3.94337e+06
-1.86817e+06
-3.95871e+06
-3.96291e+06
-2.67258e+06
-2.67947e+06
357645
-3.739e+06
4.79902e+06
-1.87621e+06
-644436
842952
-2.03306e+07
-2.03153e+07
-4.05191e+06
-4.04422e+06
-1.22604e+07
-1.22688e+07
-2.62275e+06
-1.43029e+06
-1.31267e+06
-3.60622e+06
-3.59986e+06
2.20918e+06
-490247
-493318
-2.74625e+06
-1.60078e+06
-1.71306e+06
-1.70294e+06
641404
-1.71249e+06
-1.9288e+06
-1.04299e+06
-1.04341e+06
-2.0698e+06
1.54143e+06
1.55261e+06
-2.35265e+06
-1.6958e+06
-2.00822e+06
-1.60957e+06
-1.22482e+07
-1.22594e+07
-1.75619e+06
2.6665e+06
-47090.2
-1.76995e+07
-1.7717e+07
-1.94741e+06
-3.66023e+06
-3.65255e+06
-3.29444e+06
4.29421e+06
-2.04079e+06
-1.59325e+06
4.6417e+06
-2.59488e+06
-2.05141e+06
-2.05714e+06
-1.94866e+06
-1.94077e+06
-930020
-4.76245e+06
-4.76769e+06
-3.1231e+06
-2.27363e+06
-3.13119e+06
-5.84092e+06
-5.85444e+06
-1.05268e+06
4.8826e+06
-2.63336e+06
-658535
-4.16923e+06
6.51134e+06
-1.24143e+06
-1.23319e+06
6.66528e+06
843395
-1.9469e+06
-1.07042e+06
-1.02945e+06
-1.42682e+06
-1.15947e+06
7.84351e+06
-1.82277e+06
-2.61518e+06
-4.7619e+06
-4.76679e+06
-2.15523e+06
-2.15732e+06
-1.83588e+06
-1.5464e+06
-1.54614e+06
-1.93039e+06
7.06288e+06
-4.18325e+06
568341
3.67713e+06
-1.49164e+06
1.6594e+06
-1.27866e+06
-2.9126e+06
-2.91513e+06
6.91525e+06
8.85144e+06
44191.9
-1.64251e+07
-1.64082e+07
-1.46909e+06
-155652
-1.49354e+06
-2.21853e+06
-2.17707e+06
-483108
3.25365e+06
-1.81899e+06
5.12575e+06
9.22425e+06
-1.26741e+06
-1.26827e+06
-1.68632e+06
-1.69394e+06
-1.92939e+06
-1.14024e+06
-5.81501e+06
-5.80578e+06
-488025
7.68326e+06
6.55616e+06
-2.70198e+06
-2.70932e+06
-1.46746e+06
-2.08741e+06
-273560
-1.07154e+06
3.4458e+06
-1.32512e+06
4.92066e+06
-1.8949e+06
-1.70833e+06
-1.52289e+06
-1.81949e+06
-2.02818e+06
-142598
-2.057e+06
75635.1
75218
-1.65225e+06
-1.65804e+06
-611199
-456685
-3.61548e+06
-1.62112e+06
-2.53239e+06
-1.22247e+07
-1.22385e+07
-886609
-1.91253e+06
-1.71573e+06
244219
2.22562e+06
2.23456e+06
-2.99738e+06
-1.49562e+06
-1.48979e+06
-798955
-809834
-3.9746e+06
-3.97823e+06
-1.29279e+06
-3.02788e+06
5.6427e+06
8.0445e+06
-1.51642e+06
3.92223e+06
-393069
-232573
-1.04343e+06
-2.22359e+06
-2.92856e+06
5.10213e+06
-564422
15356.5
-1.65751e+06
-1.66387e+06
-2.47163e+06
6.40977e+06
1.04718e+06
-2.37352e+06
-2.36911e+06
-3.6381e+06
-3.63051e+06
-478880
-2.10149e+06
-2.27186e+06
-1.21948e+06
-1.24267e+06
-708895
-2.52436e+06
-2.18681e+06
-2.53043e+06
-2.30711e+06
-2.18943e+06
-1.65771e+06
8.52671e+06
-1.0041e+06
-993465
-1.9896e+06
25100.6
-1.24851e+06
-2.17955e+06
321120
331235
-136257
-1.57623e+06
-1.56882e+06
-668487
-663980
-2.99464e+06
-3.63948e+06
-3.63129e+06
-2.90969e+06
-2.05248e+06
9.34709e+06
4.46913e+06
-259076
-225472
-2.67152e+06
-2.67985e+06
-2.82951e+06
2.98906e+06
-64000.2
-1.38352e+07
-1.38217e+07
-4.48341e+06
-4.47226e+06
3.63409e+06
-196426
-211376
-491092
-1.31469e+06
-2.9358e+06
-2.93959e+06
-395074
-2.08668e+06
-2.62048e+06
1.65539e+06
-2456.33
-2451.65
-2.02365e+06
-2.03117e+06
-1.75179e+06
-1.76219e+06
-3.46292e+06
-3.46031e+06
-1.77771e+06
-1.50138e+06
-1.50249e+06
-1.11726e+06
-379193
-2.83965e+06
-1.98578e+06
-1.9782e+06
-951728
-2.14689e+06
1.85081e+06
8.12016e+06
-1.92515e+06
-1.8833e+07
-1.88513e+07
-1.76019e+06
-3.01573e+06
-1.51519e+06
-1.60795e+07
-1.60932e+07
-1.9039e+06
-1.29459e+06
-1.28731e+06
-708129
-700433
-221.717
-219.651
75802.6
3.04908e+06
2.55256e+06
641127
2.75798e+06
-2.04161e+06
94464.7
-777544
-3.23707e+06
-3.23387e+06
9.09401e+06
-1.37252e+06
-1.36866e+06
-1.43213e+06
-1.72251e+06
-1.72603e+06
-513377
-1.27887e+06
-4.88455e+06
-4.89361e+06
-512678
-2.27863e+06
-577994
5.74028e+06
-1.32543e+06
-2.89162e+06
-2.89979e+06
-3.1441e+06
-3.13698e+06
7.61003e+06
-2.11359e+06
-1.24038e+06
-2.85762e+06
-1.7086e+06
-2.52737e+06
-2.57568e+06
4.38177e+06
-1.09467e+06
-1.09582e+06
-4.36606e+06
-4.37561e+06
-2.39948e+06
-238417
-234916
-17418.3
-1.74587e+06
-1.68704e+06
-1.98205e+06
-1.09906e+06
-1.02761e+06
-180486
-2.8417e+06
-1.6773e+06
7.94688e+06
2.70731e+06
-1.23347e+06
-2.1606e+06
-2.15356e+06
286366
-1.36218e+07
-1.36317e+07
-1.75859e+06
-1.74787e+06
2.80828e+06
-2.19386e+06
-393637
-3.89148e+06
-1.69737e+06
-2.22416e+06
-2.22092e+06
-1.88907e+06
-1.65944e+06
5.6471e+06
-1.70991e+06
-264850
-263209
-868036
-2.05162e+06
-2.58888e+06
-2.57686e+06
-1.24917e+07
-1.25054e+07
-5.99404e+06
-6.00682e+06
-4.79378e+06
-2.35088e+06
-2.28677e+06
-4.81044e+06
-2.26209e+06
447993
444008
-2.30811e+06
-9.25564e+06
-9.26847e+06
1.30429e+06
-1.8686e+06
-1.88003e+06
-2.32243e+06
5.57217e+06
-390467
2.45241e+06
7.978e+06
1.73483e+06
3.0646e+06
-1.97706e+06
-1.97924e+06
-6.44864e+06
-9.54536e+06
-9.55795e+06
-6.73297e+06
-6.7384e+06
-1.6119e+06
2.3714e+06
-3.51863e+06
-3.53194e+06