0 	31.4807 	-2.69799e-07 	-5.37544e-19
0.000254254 	31.4864 	-2.69486e-07 	9.13001e-16
0.000508509 	31.4921 	-2.69486e-07 	9.13001e-16
0.000762763 	31.4978 	-2.69486e-07 	9.13e-16
0.00101702 	31.5034 	-2.69486e-07 	9.13e-16
0.00127127 	31.5091 	-2.69486e-07 	9.13e-16
0.00152553 	31.5148 	-2.69486e-07 	9.12999e-16
0.00177978 	31.5205 	-2.69486e-07 	9.12999e-16
0.00203403 	31.5262 	-2.69486e-07 	9.12999e-16
0.00228829 	31.5319 	-2.69486e-07 	9.12998e-16
0.00254254 	31.5375 	-2.69486e-07 	9.12998e-16
0.0027968 	31.5508 	-2.74932e-07 	9.12278e-16
0.00305105 	31.5648 	-2.74932e-07 	9.12277e-16
0.00330531 	31.5788 	-2.74932e-07 	9.12276e-16
0.00355956 	31.5928 	-2.74932e-07 	9.12275e-16
0.00381381 	31.6068 	-2.74932e-07 	9.12274e-16
0.00406807 	31.6208 	-2.74932e-07 	9.12273e-16
0.00432232 	31.6349 	-2.74932e-07 	9.12273e-16
0.00457658 	31.6489 	-2.74932e-07 	9.12272e-16
0.00483083 	31.6629 	-2.74932e-07 	9.12271e-16
0.00508509 	31.6769 	-2.74932e-07 	9.1227e-16
0.00533934 	31.6934 	-2.98107e-07 	9.54393e-16
0.00559359 	31.7105 	-2.98107e-07 	9.54392e-16
0.00584785 	31.7276 	-2.98107e-07 	9.54391e-16
0.0061021 	31.7447 	-2.98107e-07 	9.5439e-16
0.00635636 	31.7617 	-2.98107e-07 	9.54389e-16
0.00661061 	31.7788 	-2.98107e-07 	9.54387e-16
0.00686486 	31.7959 	-2.98107e-07 	9.54386e-16
0.00711912 	31.813 	-2.98107e-07 	9.54385e-16
0.00737337 	31.8301 	-2.98107e-07 	9.54384e-16
0.00762763 	31.8472 	-2.98107e-07 	9.54383e-16
0.00788188 	31.865 	-3.38071e-07 	9.50148e-16
0.00813614 	31.8831 	-3.38071e-07 	9.50147e-16
0.00839039 	31.9012 	-3.38071e-07 	9.50146e-16
0.00864464 	31.9193 	-3.38071e-07 	9.50145e-16
0.0088989 	31.9374 	-3.38071e-07 	9.50143e-16
0.00915315 	31.9555 	-3.38071e-07 	9.50142e-16
0.00940741 	31.9736 	-3.38071e-07 	9.50141e-16
0.00966166 	31.9917 	-3.38071e-07 	9.5014e-16
0.00991592 	32.0098 	-3.38071e-07 	9.50139e-16
0.0101702 	32.0279 	-3.38071e-07 	9.50138e-16
0.0104244 	32.0472 	-3.90972e-07 	9.86831e-16
0.0106787 	32.0671 	-3.90972e-07 	9.8683e-16
0.0109329 	32.087 	-3.90972e-07 	9.86828e-16
0.0111872 	32.107 	-3.90972e-07 	9.86827e-16
0.0114414 	32.1269 	-3.90972e-07 	9.86826e-16
0.0116957 	32.1468 	-3.90972e-07 	9.86824e-16
0.0119499 	32.1667 	-3.90972e-07 	9.86823e-16
0.0122042 	32.1866 	-3.90972e-07 	9.86822e-16
0.0124585 	32.2065 	-3.90972e-07 	9.86821e-16
0.0127127 	32.2265 	-3.90972e-07 	9.86819e-16
0.012967 	32.248 	-4.53376e-07 	1.0349e-15
0.0132212 	32.2708 	-4.53376e-07 	1.0349e-15
0.0134755 	32.2936 	-4.53376e-07 	1.0349e-15
0.0137297 	32.3164 	-4.53376e-07 	1.0349e-15
0.013984 	32.3392 	-4.53376e-07 	1.03489e-15
0.0142382 	32.362 	-4.53376e-07 	1.03489e-15
0.0144925 	32.3848 	-4.53376e-07 	1.03489e-15
0.0147467 	32.4076 	-4.53376e-07 	1.03489e-15
0.015001 	32.4304 	-4.53376e-07 	1.03489e-15
0.0152553 	32.4532 	-4.53376e-07 	1.03489e-15
0.0155095 	32.4776 	-5.22703e-07 	1.03851e-15
0.0157638 	32.504 	-5.22703e-07 	1.03851e-15
0.016018 	32.5303 	-5.22703e-07 	1.03851e-15
0.0162723 	32.5567 	-5.22703e-07 	1.03851e-15
0.0165265 	32.5831 	-5.22703e-07 	1.03851e-15
0.0167808 	32.6094 	-5.22703e-07 	1.0385e-15
0.017035 	32.6358 	-5.22703e-07 	1.0385e-15
0.0172893 	32.6622 	-5.22703e-07 	1.0385e-15
0.0175435 	32.6885 	-5.22703e-07 	1.0385e-15
0.0177978 	32.7149 	-5.22703e-07 	1.0385e-15
0.0180521 	32.7427 	-5.9716e-07 	1.04239e-15
0.0183063 	32.773 	-5.9716e-07 	1.04239e-15
0.0185606 	32.8033 	-5.9716e-07 	1.04238e-15
0.0188148 	32.8336 	-5.9716e-07 	1.04238e-15
0.0190691 	32.8639 	-5.9716e-07 	1.04238e-15
0.0193233 	32.8942 	-5.9716e-07 	1.04238e-15
0.0195776 	32.9245 	-5.9716e-07 	1.04238e-15
0.0198318 	32.9548 	-5.9716e-07 	1.04237e-15
0.0200861 	32.9851 	-5.9716e-07 	1.04237e-15
0.0203403 	33.0154 	-5.9716e-07 	1.04237e-15
0.0205946 	33.0468 	-6.75618e-07 	1.04792e-15
0.0208488 	33.0813 	-6.75618e-07 	1.04791e-15
0.0211031 	33.1157 	-6.75618e-07 	1.04791e-15
0.0213574 	33.1502 	-6.75618e-07 	1.04791e-15
0.0216116 	33.1846 	-6.75618e-07 	1.04791e-15
0.0218659 	33.2191 	-6.75618e-07 	1.04791e-15
0.0221201 	33.2536 	-6.75618e-07 	1.0479e-15
0.0223744 	33.288 	-6.75618e-07 	1.0479e-15
0.0226286 	33.3225 	-6.75618e-07 	1.0479e-15
0.0228829 	33.3569 	-6.75618e-07 	1.0479e-15
0.0231371 	33.3922 	-7.57423e-07 	1.05504e-15
0.0233914 	33.431 	-7.57423e-07 	1.05504e-15
0.0236456 	33.4698 	-7.57423e-07 	1.05504e-15
0.0238999 	33.5086 	-7.57423e-07 	1.05504e-15
0.0241542 	33.5474 	-7.57423e-07 	1.05503e-15
0.0244084 	33.5862 	-7.57423e-07 	1.05503e-15
0.0246627 	33.625 	-7.57423e-07 	1.05503e-15
0.0249169 	33.6638 	-7.57423e-07 	1.05503e-15
0.0251712 	33.7026 	-7.57423e-07 	1.05502e-15
0.0254254 	33.7414 	-7.57423e-07 	1.05502e-15
0.0256797 	33.7806 	-8.42001e-07 	1.06343e-15
0.0259339 	33.8239 	-8.42001e-07 	1.06343e-15
0.0261882 	33.8673 	-8.42001e-07 	1.06342e-15
0.0264424 	33.9106 	-8.42001e-07 	1.06342e-15
0.0266967 	33.9539 	-8.42001e-07 	1.06342e-15
0.026951 	33.9973 	-8.42001e-07 	1.06342e-15
0.0272052 	34.0406 	-8.42001e-07 	1.06341e-15
0.0274595 	34.0839 	-8.42001e-07 	1.06341e-15
0.0277137 	34.1272 	-8.42001e-07 	1.06341e-15
0.027968 	34.1706 	-8.42001e-07 	1.0634e-15
0.0282222 	34.2139 	-9.78773e-07 	-2.21698e-18
0.0284765 	34.2619 	-9.27893e-07 	1.07292e-15
0.0287307 	34.3099 	-9.27893e-07 	1.07292e-15
0.028985 	34.358 	-9.27893e-07 	1.07291e-15
0.0292392 	34.406 	-9.27893e-07 	1.07291e-15
0.0294935 	34.454 	-9.27893e-07 	1.07291e-15
0.0297477 	34.502 	-9.27893e-07 	1.07291e-15
0.030002 	34.55 	-9.27893e-07 	1.0729e-15
0.0302563 	34.5981 	-9.27893e-07 	1.0729e-15
0.0305105 	34.6461 	-9.27893e-07 	1.0729e-15
0.0307648 	34.6941 	-9.27893e-07 	1.07289e-15
0.031019 	34.7466 	-1.01302e-06 	1.11544e-15
0.0312733 	34.7995 	-1.01302e-06 	1.11544e-15
0.0315275 	34.8524 	-1.01302e-06 	1.11544e-15
0.0317818 	34.9053 	-1.01302e-06 	1.11543e-15
0.032036 	34.9582 	-1.01302e-06 	1.11543e-15
0.0322903 	35.0111 	-1.01302e-06 	1.11543e-15
0.0325445 	35.064 	-1.01302e-06 	1.11542e-15
0.0327988 	35.1169 	-1.01302e-06 	1.11542e-15
0.0330531 	35.1698 	-1.01302e-06 	1.11542e-15
0.0333073 	35.2227 	-1.01302e-06 	1.11541e-15
0.0335616 	35.2797 	-1.09963e-06 	1.09601e-15
0.0338158 	35.3377 	-1.09963e-06 	1.09601e-15
0.0340701 	35.3957 	-1.09963e-06 	1.09601e-15
0.0343243 	35.4536 	-1.09963e-06 	1.096e-15
0.0345786 	35.5116 	-1.09963e-06 	1.096e-15
0.0348328 	35.5696 	-1.09963e-06 	1.09599e-15
0.0350871 	35.6275 	-1.09963e-06 	1.09599e-15
0.0353413 	35.6855 	-1.09963e-06 	1.09599e-15
0.0355956 	35.7434 	-1.09963e-06 	1.09598e-15
0.0358498 	35.8014 	-1.09963e-06 	1.09598e-15
0.0361041 	35.8632 	-1.18874e-06 	1.1554e-15
0.0363584 	35.9264 	-1.18874e-06 	1.1554e-15
0.0366126 	35.9896 	-1.18874e-06 	1.1554e-15
0.0368669 	36.0528 	-1.18874e-06 	1.15539e-15
0.0371211 	36.1161 	-1.18874e-06 	1.15539e-15
0.0373754 	36.1793 	-1.18874e-06 	1.15538e-15
0.0376296 	36.2425 	-1.18874e-06 	1.15538e-15
0.0378839 	36.3057 	-1.18874e-06 	1.15538e-15
0.0381381 	36.3689 	-1.18874e-06 	1.15537e-15
0.0383924 	36.4321 	-1.18874e-06 	1.15537e-15
0.0386466 	36.4988 	-1.28222e-06 	1.22618e-15
0.0389009 	36.5675 	-1.28222e-06 	1.22618e-15
0.0391552 	36.6362 	-1.28222e-06 	1.22617e-15
0.0394094 	36.7049 	-1.28222e-06 	1.22617e-15
0.0396637 	36.7735 	-1.28222e-06 	1.22616e-15
0.0399179 	36.8422 	-1.28222e-06 	1.22616e-15
0.0401722 	36.9109 	-1.28222e-06 	1.22615e-15
0.0404264 	36.9795 	-1.28222e-06 	1.22615e-15
0.0406807 	37.0482 	-1.28222e-06 	1.22615e-15
0.0409349 	37.1169 	-1.28222e-06 	1.22614e-15
0.0411892 	37.1886 	-1.37947e-06 	1.29962e-15
0.0414434 	37.263 	-1.37947e-06 	1.29962e-15
0.0416977 	37.3373 	-1.37947e-06 	1.29962e-15
0.041952 	37.4117 	-1.37947e-06 	1.29961e-15
0.0422062 	37.486 	-1.37947e-06 	1.29961e-15
0.0424605 	37.5603 	-1.37947e-06 	1.2996e-15
0.0427147 	37.6347 	-1.37947e-06 	1.2996e-15
0.042969 	37.709 	-1.37947e-06 	1.29959e-15
0.0432232 	37.7834 	-1.37947e-06 	1.29959e-15
0.0434775 	37.8577 	-1.37947e-06 	1.29958e-15
0.0437317 	37.9347 	-1.48012e-06 	1.31818e-15
0.043986 	38.0149 	-1.48012e-06 	1.31817e-15
0.0442402 	38.0952 	-1.48012e-06 	1.31817e-15
0.0444945 	38.1754 	-1.48012e-06 	1.31816e-15
0.0447487 	38.2556 	-1.48012e-06 	1.31815e-15
0.045003 	38.3358 	-1.48012e-06 	1.31815e-15
0.0452573 	38.4161 	-1.48012e-06 	1.31814e-15
0.0455115 	38.4963 	-1.48012e-06 	1.31814e-15
0.0457658 	38.5765 	-1.48012e-06 	1.31813e-15
0.04602 	38.6567 	-1.48012e-06 	1.31813e-15
0.0462743 	38.7392 	-1.58408e-06 	1.29892e-15
0.0465285 	38.8255 	-1.58408e-06 	1.29891e-15
0.0467828 	38.9119 	-1.58408e-06 	1.29891e-15
0.047037 	38.9982 	-1.58408e-06 	1.2989e-15
0.0472913 	39.0846 	-1.58408e-06 	1.2989e-15
0.0475455 	39.1709 	-1.58408e-06 	1.29889e-15
0.0477998 	39.2573 	-1.58408e-06 	1.29889e-15
0.0480541 	39.3436 	-1.58408e-06 	1.29888e-15
0.0483083 	39.43 	-1.58408e-06 	1.29887e-15
0.0485626 	39.5163 	-1.58408e-06 	1.29887e-15
0.0488168 	39.6044 	-1.69118e-06 	1.2725e-15
0.0490711 	39.6971 	-1.69118e-06 	1.27249e-15
0.0493253 	39.7898 	-1.69118e-06 	1.27248e-15
0.0495796 	39.8825 	-1.69118e-06 	1.27248e-15
0.0498338 	39.9752 	-1.69118e-06 	1.27247e-15
0.0500881 	40.068 	-1.69118e-06 	1.27247e-15
0.0503423 	40.1607 	-1.69118e-06 	1.27246e-15
0.0505966 	40.2534 	-1.69118e-06 	1.27245e-15
0.0508509 	40.3461 	-1.69118e-06 	1.27245e-15
0.0511051 	40.4388 	-1.69118e-06 	1.27244e-15
0.0513594 	40.5327 	-1.80114e-06 	1.30269e-15
0.0516136 	40.632 	-1.80114e-06 	1.30268e-15
0.0518679 	40.7313 	-1.80114e-06 	1.30267e-15
0.0521221 	40.8306 	-1.80114e-06 	1.30267e-15
0.0523764 	40.93 	-1.80114e-06 	1.30266e-15
0.0526306 	41.0293 	-1.80114e-06 	1.30266e-15
0.0528849 	41.1286 	-1.80114e-06 	1.30265e-15
0.0531391 	41.2279 	-1.80114e-06 	1.30264e-15
0.0533934 	41.3272 	-1.80114e-06 	1.30264e-15
0.0536476 	41.4265 	-1.80114e-06 	1.30263e-15
0.0539019 	41.5265 	-1.91353e-06 	1.28651e-15
0.0541562 	41.6326 	-1.91353e-06 	1.28651e-15
0.0544104 	41.7388 	-1.91353e-06 	1.2865e-15
0.0546647 	41.845 	-1.91353e-06 	1.28649e-15
0.0549189 	41.9511 	-1.91353e-06 	1.28649e-15
0.0551732 	42.0573 	-1.91353e-06 	1.28648e-15
0.0554274 	42.1635 	-1.91353e-06 	1.28647e-15
0.0556817 	42.2697 	-1.91353e-06 	1.28647e-15
0.0559359 	42.3758 	-1.91353e-06 	1.28646e-15
0.0561902 	42.482 	-1.91353e-06 	1.28645e-15
0.0564444 	42.5882 	-2.28352e-06 	-2.13393e-18
0.0566987 	42.7014 	-2.02764e-06 	1.30266e-15
0.056953 	42.8147 	-2.02764e-06 	1.30266e-15
0.0572072 	42.928 	-2.02764e-06 	1.30265e-15
0.0574615 	43.0413 	-2.02764e-06 	1.30264e-15
0.0577157 	43.1545 	-2.02764e-06 	1.30263e-15
0.05797 	43.2678 	-2.02764e-06 	1.30263e-15
0.0582242 	43.3811 	-2.02764e-06 	1.30262e-15
0.0584785 	43.4943 	-2.02764e-06 	1.30261e-15
0.0587327 	43.6076 	-2.02764e-06 	1.30261e-15
0.058987 	43.7209 	-2.02764e-06 	1.3026e-15
0.0592412 	43.8408 	-2.1424e-06 	1.32872e-15
0.0594955 	43.9615 	-2.1424e-06 	1.32871e-15
0.0597497 	44.0821 	-2.1424e-06 	1.3287e-15
0.060004 	44.2027 	-2.1424e-06 	1.32869e-15
0.0602583 	44.3233 	-2.1424e-06 	1.32868e-15
0.0605125 	44.444 	-2.1424e-06 	1.32868e-15
0.0607668 	44.5646 	-2.1424e-06 	1.32867e-15
0.061021 	44.6852 	-2.1424e-06 	1.32866e-15
0.0612753 	44.8058 	-2.1424e-06 	1.32865e-15
0.0615295 	44.9264 	-2.1424e-06 	1.32865e-15
0.0617838 	45.0533 	-2.25777e-06 	1.41353e-15
0.062038 	45.1815 	-2.25777e-06 	1.41353e-15
0.0622923 	45.3097 	-2.25777e-06 	1.41352e-15
0.0625465 	45.4379 	-2.25777e-06 	1.41351e-15
0.0628008 	45.5661 	-2.25777e-06 	1.4135e-15
0.0630551 	45.6943 	-2.25777e-06 	1.41349e-15
0.0633093 	45.8225 	-2.25777e-06 	1.41348e-15
0.0635636 	45.9507 	-2.25777e-06 	1.41348e-15
0.0638178 	46.0789 	-2.25777e-06 	1.41347e-15
0.0640721 	46.2071 	-2.25777e-06 	1.41346e-15
0.0643263 	46.341 	-2.37328e-06 	1.38752e-15
0.0645806 	46.477 	-2.37328e-06 	1.38751e-15
0.0648348 	46.613 	-2.37328e-06 	1.3875e-15
0.0650891 	46.749 	-2.37328e-06 	1.38749e-15
0.0653433 	46.885 	-2.37328e-06 	1.38748e-15
0.0655976 	47.021 	-2.37328e-06 	1.38747e-15
0.0658519 	47.157 	-2.37328e-06 	1.38747e-15
0.0661061 	47.293 	-2.37328e-06 	1.38746e-15
0.0663604 	47.429 	-2.37328e-06 	1.38745e-15
0.0666146 	47.565 	-2.37328e-06 	1.38744e-15
0.0668689 	47.7061 	-2.48764e-06 	1.42734e-15
0.0671231 	47.8501 	-2.48764e-06 	1.42733e-15
0.0673774 	47.9941 	-2.48764e-06 	1.42732e-15
0.0676316 	48.1381 	-2.48764e-06 	1.42731e-15
0.0678859 	48.2821 	-2.48764e-06 	1.4273e-15
0.0681401 	48.4261 	-2.48764e-06 	1.42729e-15
0.0683944 	48.5701 	-2.48764e-06 	1.42728e-15
0.0686486 	48.7141 	-2.48764e-06 	1.42727e-15
0.0689029 	48.8582 	-2.48764e-06 	1.42726e-15
0.0691572 	49.0022 	-2.48764e-06 	1.42725e-15
0.0694114 	49.1507 	-2.60044e-06 	1.46414e-15
0.0696657 	49.3029 	-2.60044e-06 	1.46413e-15
0.0699199 	49.4552 	-2.60044e-06 	1.46412e-15
0.0701742 	49.6075 	-2.60044e-06 	1.46411e-15
0.0704284 	49.7597 	-2.60044e-06 	1.4641e-15
0.0706827 	49.912 	-2.60044e-06 	1.46409e-15
0.0709369 	50.0643 	-2.60044e-06 	1.46408e-15
0.0711912 	50.2165 	-2.60044e-06 	1.46407e-15
0.0714454 	50.3688 	-2.60044e-06 	1.46406e-15
0.0716997 	50.5211 	-2.60044e-06 	1.46405e-15
0.071954 	50.6772 	-2.70179e-06 	1.5015e-15
0.0722082 	50.8379 	-2.70179e-06 	1.50149e-15
0.0724625 	50.9986 	-2.70179e-06 	1.50148e-15
0.0727167 	51.1593 	-2.70179e-06 	1.50146e-15
0.072971 	51.32 	-2.70179e-06 	1.50145e-15
0.0732252 	51.4807 	-2.70179e-06 	1.50144e-15
0.0734795 	51.6414 	-2.70179e-06 	1.50143e-15
0.0737337 	51.8022 	-2.70179e-06 	1.50142e-15
0.073988 	51.9629 	-2.70179e-06 	1.50141e-15
0.0742422 	52.1236 	-2.70179e-06 	1.5014e-15
0.0744965 	52.2874 	-2.76985e-06 	1.54089e-15
0.0747508 	52.4566 	-2.76985e-06 	1.54088e-15
0.075005 	52.6259 	-2.76985e-06 	1.54087e-15
0.0752593 	52.7951 	-2.76985e-06 	1.54086e-15
0.0755135 	52.9643 	-2.76985e-06 	1.54085e-15
0.0757678 	53.1336 	-2.76985e-06 	1.54084e-15
0.076022 	53.3028 	-2.76985e-06 	1.54082e-15
0.0762763 	53.472 	-2.76985e-06 	1.54081e-15
0.0765305 	53.6413 	-2.76985e-06 	1.5408e-15
0.0767848 	53.8105 	-2.76985e-06 	1.54079e-15
0.077039 	53.982 	-2.83103e-06 	1.5332e-15
0.0772933 	54.1597 	-2.83103e-06 	1.53319e-15
0.0775475 	54.3374 	-2.83103e-06 	1.53318e-15
0.0778018 	54.5151 	-2.83103e-06 	1.53317e-15
0.0780561 	54.6928 	-2.83103e-06 	1.53316e-15
0.0783103 	54.8704 	-2.83103e-06 	1.53314e-15
0.0785646 	55.0481 	-2.83103e-06 	1.53313e-15
0.0788188 	55.2258 	-2.83103e-06 	1.53312e-15
0.0790731 	55.4035 	-2.83103e-06 	1.53311e-15
0.0793273 	55.5812 	-2.83103e-06 	1.5331e-15
0.0795816 	55.7604 	-2.87165e-06 	1.53319e-15
0.0798358 	55.9463 	-2.87165e-06 	1.53318e-15
0.0800901 	56.1323 	-2.87165e-06 	1.53317e-15
0.0803443 	56.3183 	-2.87165e-06 	1.53316e-15
0.0805986 	56.5043 	-2.87165e-06 	1.53314e-15
0.0808529 	56.6903 	-2.87165e-06 	1.53313e-15
0.0811071 	56.8763 	-2.87165e-06 	1.53312e-15
0.0813614 	57.0622 	-2.87165e-06 	1.53311e-15
0.0816156 	57.2482 	-2.87165e-06 	1.5331e-15
0.0818699 	57.4342 	-2.87165e-06 	1.53308e-15
0.0821241 	57.6209 	-2.89016e-06 	1.57445e-15
0.0823784 	57.815 	-2.89016e-06 	1.57444e-15
0.0826326 	58.0091 	-2.89016e-06 	1.57443e-15
0.0828869 	58.2032 	-2.89016e-06 	1.57442e-15
0.0831411 	58.3973 	-2.89016e-06 	1.5744e-15
0.0833954 	58.5913 	-2.89016e-06 	1.57439e-15
0.0836496 	58.7854 	-2.89016e-06 	1.57438e-15
0.0839039 	58.9795 	-2.89016e-06 	1.57437e-15
0.0841582 	59.1736 	-2.89016e-06 	1.57435e-15
0.0844124 	59.3676 	-2.89016e-06 	1.57434e-15
0.0846667 	59.5617 	-3.80012e-06 	1.33838e-18
0.0849209 	59.7636 	-2.90066e-06 	1.61878e-15
0.0851752 	59.9655 	-2.90066e-06 	1.61876e-15
0.0854294 	60.1674 	-2.90066e-06 	1.61875e-15
0.0856837 	60.3692 	-2.90066e-06 	1.61874e-15
0.0859379 	60.5711 	-2.90066e-06 	1.61872e-15
0.0861922 	60.773 	-2.90066e-06 	1.61871e-15
0.0864464 	60.9749 	-2.90066e-06 	1.6187e-15
0.0867007 	61.1768 	-2.90066e-06 	1.61868e-15
0.086955 	61.3787 	-2.90066e-06 	1.61867e-15
0.0872092 	61.5806 	-2.90066e-06 	1.61866e-15
0.0874635 	61.7892 	-2.89671e-06 	1.6644e-15
0.0877177 	61.9984 	-2.89671e-06 	1.66439e-15
0.087972 	62.2077 	-2.89671e-06 	1.66437e-15
0.0882262 	62.417 	-2.89671e-06 	1.66436e-15
0.0884805 	62.6262 	-2.89671e-06 	1.66435e-15
0.0887347 	62.8355 	-2.89671e-06 	1.66433e-15
0.088989 	63.0448 	-2.89671e-06 	1.66432e-15
0.0892432 	63.2541 	-2.89671e-06 	1.6643e-15
0.0894975 	63.4633 	-2.89671e-06 	1.66429e-15
0.0897518 	63.6726 	-2.89671e-06 	1.66428e-15
0.090006 	63.8874 	-2.89409e-06 	1.71052e-15
0.0902603 	64.1034 	-2.89409e-06 	1.71051e-15
0.0905145 	64.3195 	-2.89409e-06 	1.7105e-15
0.0907688 	64.5355 	-2.89409e-06 	1.71048e-15
0.091023 	64.7516 	-2.89409e-06 	1.71047e-15
0.0912773 	64.9676 	-2.89409e-06 	1.71045e-15
0.0915315 	65.1836 	-2.89409e-06 	1.71044e-15
0.0917858 	65.3997 	-2.89409e-06 	1.71043e-15
0.09204 	65.6157 	-2.89409e-06 	1.71041e-15
0.0922943 	65.8317 	-2.89409e-06 	1.7104e-15
0.0925485 	66.0521 	-2.88997e-06 	1.75647e-15
0.0928028 	66.2741 	-2.88997e-06 	1.75646e-15
0.0930571 	66.4961 	-2.88997e-06 	1.75644e-15
0.0933113 	66.7181 	-2.88997e-06 	1.75643e-15
0.0935656 	66.9401 	-2.88997e-06 	1.75641e-15
0.0938198 	67.1621 	-2.88997e-06 	1.7564e-15
0.0940741 	67.3841 	-2.88997e-06 	1.75638e-15
0.0943283 	67.6061 	-2.88997e-06 	1.75637e-15
0.0945826 	67.8281 	-2.88997e-06 	1.75636e-15
0.0948368 	68.0501 	-2.88997e-06 	1.75634e-15
0.0950911 	68.2752 	-2.84817e-06 	1.75395e-15
0.0953453 	68.5021 	-2.84817e-06 	1.75394e-15
0.0955996 	68.729 	-2.84817e-06 	1.75393e-15
0.0958539 	68.9559 	-2.84817e-06 	1.75391e-15
0.0961081 	69.1828 	-2.84817e-06 	1.7539e-15
0.0963624 	69.4097 	-2.84817e-06 	1.75388e-15
0.0966166 	69.6366 	-2.84817e-06 	1.75387e-15
0.0968709 	69.8635 	-2.84817e-06 	1.75385e-15
0.0971251 	70.0904 	-2.84817e-06 	1.75384e-15
0.0973794 	70.3173 	-2.84817e-06 	1.75382e-15
0.0976336 	70.5461 	-2.7696e-06 	1.84043e-15
0.0978879 	70.7765 	-2.7696e-06 	1.84041e-15
0.0981421 	71.0068 	-2.7696e-06 	1.8404e-15
0.0983964 	71.2372 	-2.7696e-06 	1.84038e-15
0.0986507 	71.4675 	-2.7696e-06 	1.84037e-15
0.0989049 	71.6979 	-2.7696e-06 	1.84035e-15
0.0991592 	71.9282 	-2.7696e-06 	1.84034e-15
0.0994134 	72.1586 	-2.7696e-06 	1.84032e-15
0.0996677 	72.3889 	-2.7696e-06 	1.84031e-15
0.0999219 	72.6193 	-2.7696e-06 	1.84029e-15
0.100176 	72.8504 	-2.65446e-06 	1.94836e-15
0.10043 	73.0823 	-2.65446e-06 	1.94834e-15
0.100685 	73.3143 	-2.65446e-06 	1.94833e-15
0.100939 	73.5463 	-2.65446e-06 	1.94831e-15
0.101193 	73.7782 	-2.65446e-06 	1.9483e-15
0.101447 	74.0102 	-2.65446e-06 	1.94828e-15
0.101702 	74.2422 	-2.65446e-06 	1.94827e-15
0.101956 	74.4742 	-2.65446e-06 	1.94825e-15
0.10221 	74.7061 	-2.65446e-06 	1.94824e-15
0.102464 	74.9381 	-2.65446e-06 	1.94822e-15
0.102719 	75.1699 	-2.48275e-06 	1.99605e-15
0.102973 	75.4013 	-2.48275e-06 	1.99604e-15
0.103227 	75.6327 	-2.48275e-06 	1.99602e-15
0.103481 	75.8641 	-2.48275e-06 	1.99601e-15
0.103736 	76.0956 	-2.48275e-06 	1.99599e-15
0.10399 	76.327 	-2.48275e-06 	1.99598e-15
0.104244 	76.5584 	-2.48275e-06 	1.99596e-15
0.104498 	76.7899 	-2.48275e-06 	1.99595e-15
0.104753 	77.0213 	-2.48275e-06 	1.99593e-15
0.105007 	77.2527 	-2.48275e-06 	1.99592e-15
0.105261 	77.4833 	-2.3012e-06 	2.08427e-15
0.105516 	77.7118 	-2.3012e-06 	2.08426e-15
0.10577 	77.9403 	-2.3012e-06 	2.08424e-15
0.106024 	78.1688 	-2.3012e-06 	2.08423e-15
0.106278 	78.3972 	-2.3012e-06 	2.08421e-15
0.106533 	78.6257 	-2.3012e-06 	2.0842e-15
0.106787 	78.8542 	-2.3012e-06 	2.08418e-15
0.107041 	79.0827 	-2.3012e-06 	2.08417e-15
0.107295 	79.3111 	-2.3012e-06 	2.08415e-15
0.10755 	79.5396 	-2.3012e-06 	2.08414e-15
0.107804 	79.7671 	-2.02703e-06 	2.18261e-15
0.108058 	79.9901 	-2.02703e-06 	2.1826e-15
0.108312 	80.2131 	-2.02703e-06 	2.18259e-15
0.108567 	80.4361 	-2.02703e-06 	2.18257e-15
0.108821 	80.6591 	-2.02703e-06 	2.18256e-15
0.109075 	80.8821 	-2.02703e-06 	2.18254e-15
0.109329 	81.1051 	-2.02703e-06 	2.18253e-15
0.109584 	81.3281 	-2.02703e-06 	2.18251e-15
0.109838 	81.551 	-2.02703e-06 	2.1825e-15
0.110092 	81.774 	-2.02703e-06 	2.18249e-15
0.110346 	81.9963 	-1.71658e-06 	2.21024e-15
0.110601 	82.211 	-1.71658e-06 	2.21023e-15
0.110855 	82.4258 	-1.71658e-06 	2.21021e-15
0.111109 	82.6405 	-1.71658e-06 	2.2102e-15
0.111363 	82.8552 	-1.71658e-06 	2.21019e-15
0.111618 	83.07 	-1.71658e-06 	2.21017e-15
0.111872 	83.2847 	-1.71658e-06 	2.21016e-15
0.112126 	83.4994 	-1.71658e-06 	2.21015e-15
0.11238 	83.7142 	-1.71658e-06 	2.21013e-15
0.112635 	83.9289 	-1.71658e-06 	2.21012e-15
0.112889 	84.1436 	-2.82134e-06 	4.32555e-18
0.113143 	84.3471 	-1.38769e-06 	2.22769e-15
0.113397 	84.5505 	-1.38769e-06 	2.22768e-15
0.113652 	84.7539 	-1.38769e-06 	2.22767e-15
0.113906 	84.9573 	-1.38769e-06 	2.22765e-15
0.11416 	85.1607 	-1.38769e-06 	2.22764e-15
0.114414 	85.3641 	-1.38769e-06 	2.22763e-15
0.114669 	85.5675 	-1.38769e-06 	2.22761e-15
0.114923 	85.7709 	-1.38769e-06 	2.2276e-15
0.115177 	85.9743 	-1.38769e-06 	2.22759e-15
0.115431 	86.1777 	-1.38769e-06 	2.22757e-15
0.115686 	86.3679 	-9.87846e-07 	2.24167e-15
0.11594 	86.5568 	-9.87846e-07 	2.24166e-15
0.116194 	86.7456 	-9.87846e-07 	2.24165e-15
0.116448 	86.9345 	-9.87846e-07 	2.24163e-15
0.116703 	87.1233 	-9.87846e-07 	2.24162e-15
0.116957 	87.3122 	-9.87846e-07 	2.24161e-15
0.117211 	87.5011 	-9.87846e-07 	2.2416e-15
0.117465 	87.6899 	-9.87846e-07 	2.24159e-15
0.11772 	87.8788 	-9.87846e-07 	2.24157e-15
0.117974 	88.0676 	-9.87846e-07 	2.24156e-15
0.118228 	88.2418 	-5.86903e-07 	2.25049e-15
0.118482 	88.4128 	-5.86903e-07 	2.25048e-15
0.118737 	88.5838 	-5.86903e-07 	2.25047e-15
0.118991 	88.7547 	-5.86903e-07 	2.25046e-15
0.119245 	88.9257 	-5.86903e-07 	2.25045e-15
0.119499 	89.0967 	-5.86903e-07 	2.25044e-15
0.119754 	89.2676 	-5.86903e-07 	2.25043e-15
0.120008 	89.4386 	-5.86903e-07 	2.25041e-15
0.120262 	89.6095 	-5.86903e-07 	2.2504e-15
0.120517 	89.7805 	-5.86903e-07 	2.25039e-15
0.120771 	89.9361 	-1.83581e-07 	2.25481e-15
0.121025 	90.086 	-1.83581e-07 	2.2548e-15
0.121279 	90.2358 	-1.83581e-07 	2.25479e-15
0.121534 	90.3856 	-1.83581e-07 	2.25478e-15
0.121788 	90.5355 	-1.83581e-07 	2.25477e-15
0.122042 	90.6853 	-1.83581e-07 	2.25476e-15
0.122296 	90.8352 	-1.83581e-07 	2.25475e-15
0.122551 	90.985 	-1.83581e-07 	2.25474e-15
0.122805 	91.1349 	-1.83581e-07 	2.25473e-15
0.123059 	91.2847 	-1.83581e-07 	2.25472e-15
0.123313 	91.4194 	2.20046e-07 	2.25498e-15
0.123568 	91.5453 	2.20046e-07 	2.25497e-15
0.123822 	91.6712 	2.20046e-07 	2.25496e-15
0.124076 	91.7972 	2.20046e-07 	2.25495e-15
0.12433 	91.9231 	2.20046e-07 	2.25495e-15
0.124585 	92.0491 	2.20046e-07 	2.25494e-15
0.124839 	92.175 	2.20046e-07 	2.25493e-15
0.125093 	92.301 	2.20046e-07 	2.25492e-15
0.125347 	92.4269 	2.20046e-07 	2.25491e-15
0.125602 	92.5528 	2.20046e-07 	2.25491e-15
0.125856 	92.6646 	5.85213e-07 	2.25076e-15
0.12611 	92.7646 	5.85213e-07 	2.25075e-15
0.126364 	92.8646 	5.85213e-07 	2.25074e-15
0.126619 	92.9645 	5.85213e-07 	2.25074e-15
0.126873 	93.0645 	5.85213e-07 	2.25073e-15
0.127127 	93.1645 	5.85213e-07 	2.25072e-15
0.127381 	93.2645 	5.85213e-07 	2.25072e-15
0.127636 	93.3644 	5.85213e-07 	2.25071e-15
0.12789 	93.4644 	5.85213e-07 	2.25071e-15
0.128144 	93.5644 	5.85213e-07 	2.2507e-15
0.128398 	93.6521 	9.10472e-07 	2.24061e-15
0.128653 	93.7251 	9.10472e-07 	2.24061e-15
0.128907 	93.7981 	9.10472e-07 	2.24061e-15
0.129161 	93.871 	9.10472e-07 	2.2406e-15
0.129415 	93.944 	9.10472e-07 	2.2406e-15
0.12967 	94.017 	9.10472e-07 	2.24059e-15
0.129924 	94.09 	9.10472e-07 	2.24059e-15
0.130178 	94.163 	9.10472e-07 	2.24058e-15
0.130432 	94.236 	9.10472e-07 	2.24058e-15
0.130687 	94.3089 	9.10472e-07 	2.24057e-15
0.130941 	94.3722 	1.18537e-06 	2.2251e-15
0.131195 	94.4183 	1.18537e-06 	2.2251e-15
0.131449 	94.4644 	1.18537e-06 	2.2251e-15
0.131704 	94.5105 	1.18537e-06 	2.22509e-15
0.131958 	94.5566 	1.18537e-06 	2.22509e-15
0.132212 	94.6028 	1.18537e-06 	2.22509e-15
0.132466 	94.6489 	1.18537e-06 	2.22509e-15
0.132721 	94.695 	1.18537e-06 	2.22508e-15
0.132975 	94.7411 	1.18537e-06 	2.22508e-15
0.133229 	94.7872 	1.18537e-06 	2.22508e-15
0.133483 	94.8263 	1.40101e-06 	2.20565e-15
0.133738 	94.8467 	1.40101e-06 	2.20565e-15
0.133992 	94.8671 	1.40101e-06 	2.20565e-15
0.134246 	94.8875 	1.40101e-06 	2.20564e-15
0.134501 	94.9078 	1.40101e-06 	2.20564e-15
0.134755 	94.9282 	1.40101e-06 	2.20564e-15
0.135009 	94.9486 	1.40101e-06 	2.20564e-15
0.135263 	94.969 	1.40101e-06 	2.20564e-15
0.135518 	94.9894 	1.40101e-06 	2.20564e-15
0.135772 	95.0097 	1.40101e-06 	2.20564e-15
0.136026 	95.0258 	1.59411e-06 	2.23364e-15
0.13628 	95.0222 	1.59411e-06 	2.23364e-15
0.136535 	95.0187 	1.59411e-06 	2.23364e-15
0.136789 	95.0151 	1.59411e-06 	2.23364e-15
0.137043 	95.0116 	1.59411e-06 	2.23364e-15
0.137297 	95.008 	1.59411e-06 	2.23364e-15
0.137552 	95.0045 	1.59411e-06 	2.23364e-15
0.137806 	95.0009 	1.59411e-06 	2.23364e-15
0.13806 	94.9974 	1.59411e-06 	2.23364e-15
0.138314 	94.9938 	1.59411e-06 	2.23364e-15
0.138569 	94.9883 	1.74715e-06 	2.16529e-15
0.138823 	94.9629 	1.74715e-06 	2.16529e-15
0.139077 	94.9375 	1.74715e-06 	2.16529e-15
0.139331 	94.9121 	1.74715e-06 	2.16529e-15
0.139586 	94.8868 	1.74715e-06 	2.16529e-15
0.13984 	94.8614 	1.74715e-06 	2.16529e-15
0.140094 	94.836 	1.74715e-06 	2.1653e-15
0.140348 	94.8106 	1.74715e-06 	2.1653e-15
0.140603 	94.7853 	1.74715e-06 	2.1653e-15
0.140857 	94.7599 	1.74715e-06 	2.1653e-15
0.141111 	94.7345 	9.38933e-07 	1.06271e-18
0.141365 	94.6895 	1.87136e-06 	2.13369e-15
0.14162 	94.6445 	1.87136e-06 	2.13369e-15
0.141874 	94.5994 	1.87136e-06 	2.1337e-15
0.142128 	94.5544 	1.87136e-06 	2.1337e-15
0.142382 	94.5094 	1.87136e-06 	2.1337e-15
0.142637 	94.4643 	1.87136e-06 	2.1337e-15
0.142891 	94.4193 	1.87136e-06 	2.13371e-15
0.143145 	94.3743 	1.87136e-06 	2.13371e-15
0.143399 	94.3292 	1.87136e-06 	2.13371e-15
0.143654 	94.2842 	1.87136e-06 	2.13372e-15
0.143908 	94.2232 	1.98745e-06 	2.0625e-15
0.144162 	94.1607 	1.98745e-06 	2.0625e-15
0.144416 	94.0981 	1.98745e-06 	2.06251e-15
0.144671 	94.0356 	1.98745e-06 	2.06251e-15
0.144925 	93.973 	1.98745e-06 	2.06252e-15
0.145179 	93.9104 	1.98745e-06 	2.06252e-15
0.145433 	93.8479 	1.98745e-06 	2.06252e-15
0.145688 	93.7853 	1.98745e-06 	2.06253e-15
0.145942 	93.7227 	1.98745e-06 	2.06253e-15
0.146196 	93.6602 	1.98745e-06 	2.06254e-15
0.14645 	93.5849 	2.09296e-06 	1.96384e-15
0.146705 	93.5067 	2.09296e-06 	1.96385e-15
0.146959 	93.4286 	2.09296e-06 	1.96385e-15
0.147213 	93.3504 	2.09296e-06 	1.96386e-15
0.147467 	93.2722 	2.09296e-06 	1.96386e-15
0.147722 	93.1941 	2.09296e-06 	1.96387e-15
0.147976 	93.1159 	2.09296e-06 	1.96387e-15
0.14823 	93.0378 	2.09296e-06 	1.96388e-15
0.148484 	92.9596 	2.09296e-06 	1.96388e-15
0.148739 	92.8815 	2.09296e-06 	1.96389e-15
0.148993 	92.7933 	2.1934e-06 	1.9445e-15
0.149247 	92.7013 	2.1934e-06 	1.9445e-15
0.149502 	92.6093 	2.1934e-06 	1.94451e-15
0.149756 	92.5174 	2.1934e-06 	1.94452e-15
0.15001 	92.4254 	2.1934e-06 	1.94452e-15
0.150264 	92.3334 	2.1934e-06 	1.94453e-15
0.150519 	92.2414 	2.1934e-06 	1.94453e-15
0.150773 	92.1495 	2.1934e-06 	1.94454e-15
0.151027 	92.0575 	2.1934e-06 	1.94455e-15
0.151281 	91.9655 	2.1934e-06 	1.94455e-15
0.151536 	91.8658 	2.28846e-06 	1.9147e-15
0.15179 	91.7617 	2.28846e-06 	1.9147e-15
0.152044 	91.6576 	2.28846e-06 	1.91471e-15
0.152298 	91.5534 	2.28846e-06 	1.91472e-15
0.152553 	91.4493 	2.28846e-06 	1.91472e-15
0.152807 	91.3452 	2.28846e-06 	1.91473e-15
0.153061 	91.2411 	2.28846e-06 	1.91474e-15
0.153315 	91.1369 	2.28846e-06 	1.91474e-15
0.15357 	91.0328 	2.28846e-06 	1.91475e-15
0.153824 	90.9287 	2.28846e-06 	1.91476e-15
0.154078 	90.8188 	2.37496e-06 	1.88385e-15
0.154332 	90.7042 	2.37496e-06 	1.88385e-15
0.154587 	90.5895 	2.37496e-06 	1.88386e-15
0.154841 	90.4749 	2.37496e-06 	1.88387e-15
0.155095 	90.3603 	2.37496e-06 	1.88387e-15
0.155349 	90.2456 	2.37496e-06 	1.88388e-15
0.155604 	90.131 	2.37496e-06 	1.88389e-15
0.155858 	90.0163 	2.37496e-06 	1.8839e-15
0.156112 	89.9017 	2.37496e-06 	1.8839e-15
0.156366 	89.7871 	2.37496e-06 	1.88391e-15
0.156621 	89.6684 	2.44976e-06 	1.85146e-15
0.156875 	89.5449 	2.44976e-06 	1.85146e-15
0.157129 	89.4214 	2.44976e-06 	1.85147e-15
0.157383 	89.2979 	2.44976e-06 	1.85148e-15
0.157638 	89.1744 	2.44976e-06 	1.85149e-15
0.157892 	89.0509 	2.44976e-06 	1.8515e-15
0.158146 	88.9275 	2.44976e-06 	1.8515e-15
0.1584 	88.804 	2.44976e-06 	1.85151e-15
0.158655 	88.6805 	2.44976e-06 	1.85152e-15
0.158909 	88.557 	2.44976e-06 	1.85153e-15
0.159163 	88.4309 	2.51092e-06 	1.86493e-15
0.159417 	88.3003 	2.51092e-06 	1.86494e-15
0.159672 	88.1696 	2.51092e-06 	1.86494e-15
0.159926 	88.039 	2.51092e-06 	1.86495e-15
0.16018 	87.9083 	2.51092e-06 	1.86496e-15
0.160434 	87.7777 	2.51092e-06 	1.86497e-15
0.160689 	87.6471 	2.51092e-06 	1.86498e-15
0.160943 	87.5164 	2.51092e-06 	1.86499e-15
0.161197 	87.3858 	2.51092e-06 	1.86499e-15
0.161451 	87.2551 	2.51092e-06 	1.865e-15
0.161706 	87.123 	2.55794e-06 	1.89717e-15
0.16196 	86.9869 	2.55794e-06 	1.89718e-15
0.162214 	86.8508 	2.55794e-06 	1.89719e-15
0.162468 	86.7147 	2.55794e-06 	1.8972e-15
0.162723 	86.5786 	2.55794e-06 	1.89721e-15
0.162977 	86.4425 	2.55794e-06 	1.89722e-15
0.163231 	86.3065 	2.55794e-06 	1.89723e-15
0.163485 	86.1704 	2.55794e-06 	1.89723e-15
0.16374 	86.0343 	2.55794e-06 	1.89724e-15
0.163994 	85.8982 	2.55794e-06 	1.89725e-15
0.164248 	85.7614 	2.59123e-06 	1.84982e-15
0.164503 	85.6215 	2.59123e-06 	1.84983e-15
0.164757 	85.4816 	2.59123e-06 	1.84984e-15
0.165011 	85.3417 	2.59123e-06 	1.84985e-15
0.165265 	85.2017 	2.59123e-06 	1.84986e-15
0.16552 	85.0618 	2.59123e-06 	1.84987e-15
0.165774 	84.9219 	2.59123e-06 	1.84988e-15
0.166028 	84.782 	2.59123e-06 	1.84989e-15
0.166282 	84.6421 	2.59123e-06 	1.8499e-15
0.166537 	84.5022 	2.59123e-06 	1.84991e-15
0.166791 	84.3621 	2.6115e-06 	1.81129e-15
0.167045 	84.2199 	2.6115e-06 	1.8113e-15
0.167299 	84.0777 	2.6115e-06 	1.81131e-15
0.167554 	83.9355 	2.6115e-06 	1.81132e-15
0.167808 	83.7933 	2.6115e-06 	1.81133e-15
0.168062 	83.6511 	2.6115e-06 	1.81134e-15
0.168316 	83.5089 	2.6115e-06 	1.81135e-15
0.168571 	83.3667 	2.6115e-06 	1.81136e-15
0.168825 	83.2245 	2.6115e-06 	1.81137e-15
0.169079 	83.0823 	2.6115e-06 	1.81138e-15
0.169333 	82.9401 	1.97092e-06 	-8.3155e-19
0.169588 	82.797 	2.61945e-06 	1.82238e-15