/*--------------------------------*- C++ -*----------------------------------*\
| =========                 |                                                 |
| \\      /  F ield         | OpenFOAM: The Open Source CFD Toolbox           |
|  \\    /   O peration     | Version:  v3.0+                                 |
|   \\  /    A nd           | Web:      www.OpenFOAM.com                      |
|    \\/     M anipulation  |                                                 |
\*---------------------------------------------------------------------------*/
FoamFile
{
    version     2.0;
    format      ascii;
    class       volSymmTensorField;
    location    "13000";
    object      sigma;
}
// * * * * * * * * * * * * * * * * * * * * * * * * * * * * * * * * * * * * * //

dimensions      [1 -1 -2 0 0 0 0];

internalField   nonuniform List<symmTensor> 
24076
(
(-7.93375e+07 2.48898e+06 -5.07389e-12 729523 1.38211e-13 -1.95042e+07)
(-7637.8 -89602.3 4.27013e-15 1.04958e+06 -7.5325e-15 258526)
(-197.334 -1972.07 -6.05998e-17 15523.1 1.55746e-16 3802.62)
(350.715 -1484.1 -1.77445e-17 16034.4 1.22432e-16 4065.47)
(-1.1825e+07 4.52274e+06 2.744e-12 6.17271e+06 -9.98579e-13 -1.40245e+06)
(-3824.25 -68601.1 1.4193e-15 1.21947e+06 4.48936e-14 301626)
(7254.55 -103833 -1.06437e-16 1.08814e+06 -1.42706e-14 271791)
(-8.46084e+07 1.50599e+06 -6.43515e-12 444877 1.61421e-12 -2.08827e+07)
(263.068 -969.015 -1.26077e-18 1170.03 5.10164e-17 355.582)
(-7.22415e+07 -1.22383e+06 5.45467e-12 91362 -1.2734e-11 -1.79019e+07)
(5.62626e+07 -8.36326e+06 -1.11887e-12 1.25837e+07 2.11045e-12 1.70822e+07)
(-7.02325e+07 -1.12907e+06 -2.17287e-12 -20659.1 6.41848e-12 -1.74312e+07)
(-3.48834e+07 9.70348e+06 -2.1648e-12 2.27496e+06 -2.00526e-12 -8.09081e+06)
(-7.54855e+06 5.04948e+06 -2.93824e-12 6.0251e+06 -7.40224e-13 -377998)
(-8.67515e+07 -1.05259e+06 1.06535e-12 -413072 -9.38291e-12 -2.16273e+07)
(-6.74528e+06 -1.87558e+06 -6.14613e-12 -256295 -1.53829e-11 -1.73723e+06)
(4.60524e+07 -824613 8.32028e-12 -51244.6 -3.43618e-11 1.14138e+07)
(-4.67866e+07 -1.14007e+06 -1.038e-11 44024.9 2.74192e-11 -1.15978e+07)
(-596112 -3.21287e+06 -1.12804e-11 406874 6.32696e-12 -46953.9)
(-8.74605e+06 -3.43105e+06 -2.03518e-11 -174537 1.83764e-11 -2.21338e+06)
(-8.54034e+07 217547 5.52372e-13 -374729 -2.85276e-12 -2.12833e+07)
(4.89321e+07 -4.19689e+06 1.35698e-12 6.77317e+06 -3.50047e-12 1.38216e+07)
(-7562.54 -64450 1.79584e-15 1.53763e+06 -1.82382e-16 379640)
(5.71272e+07 -7.57662e+06 1.99288e-12 1.21449e+07 -4.5103e-13 1.71878e+07)
(1.8648e+06 7.70485e+06 3.33693e-13 3.86564e+06 -3.52984e-13 1.42184e+06)
(3.13641e+06 -2.07435e+06 -9.42546e-12 328610 5.73944e-12 859741)
(2.37348e+06 -3.87132e+06 -3.33064e-14 6.06646e+06 1.9269e-14 2.09412e+06)
(5253.47 -83797.9 -2.10022e-15 1.22411e+06 1.10951e-14 305030)
(6.04784e+06 -2.77042e+06 -1.13143e-11 -313791 -9.92981e-13 1.42273e+06)
(4.73645e+06 9.10191e+06 -6.5704e-12 4.00843e+06 -1.98697e-12 2.16978e+06)
(1.34553e+07 -2.20924e+06 4.5903e-12 -327010 8.11041e-12 3.25739e+06)
(13944.9 -74455.4 -1.25642e-15 288495 -3.87445e-15 75041.4)
(-3.15495e+07 -2.18507e+06 1.81153e-11 135090 2.30877e-12 -7.79456e+06)
(-2.5649e+07 -336361 2.70348e-12 3.26457e+06 -7.67055e-12 -5.55403e+06)
(-3.66154e+07 -3.13654e+06 1.52709e-11 -211381 -1.80594e-12 -9.13748e+06)
(-6.19325e+07 -2.35949e+06 8.91567e-12 45815 3.20149e-12 -1.53553e+07)
(-3.41364e+07 9.01148e+06 -4.28066e-12 1.66541e+06 -1.43892e-12 -8.05672e+06)
(4.72795e+07 523068 9.06486e-12 194204 -1.97358e-11 1.17792e+07)
(-4.77297e+07 376437 -1.91472e-12 -232129 4.14683e-11 -1.19003e+07)
(-8.68696e+07 51999.7 -2.48699e-12 -285684 -2.95125e-13 -2.1625e+07)
(2.61275e+07 -9.34574e+06 6.80419e-13 3.51707e+06 -7.17153e-13 7.35542e+06)
(8.9777e+06 -2.19515e+06 -1.55438e-11 345704 -3.19532e-12 2.31333e+06)
(-2.60766e+07 7.26837e+06 -9.12489e-12 3.41619e+06 -3.44459e-12 -5.62252e+06)
(-2.21222e+07 -670250 -4.31547e-12 3.04707e+06 -2.3608e-12 -4.73292e+06)
(-5.80092e+07 -1.03131e+06 4.70458e-12 90138.7 3.97301e-12 -1.43709e+07)
(8.36542e+07 -1.41286e+06 -7.80369e-12 -31013.5 9.8507e-13 2.07486e+07)
(57652.7 -429687 3.40273e-15 1.33799e+06 9.18458e-15 346289)
(-2.08828e+07 -2.59359e+06 5.28877e-14 -9290.39 4.47635e-12 -5.18374e+06)
(3.18979e+06 -4.27375e+06 8.88515e-14 6.26637e+06 -5.03223e-14 2.34626e+06)
(6.16424e+07 -2.48335e+06 1.39283e-11 -136663 4.27111e-12 1.52608e+07)
(624.813 -2519.8 -4.14706e-16 42244.2 -1.10331e-15 10636.7)
(610240 -1.84779e+06 9.24558e-14 5.97382e+06 -1.45857e-13 1.63364e+06)
(1168.74 -2971.71 1.57885e-17 1780.87 -2.00926e-16 731.86)
(4154.77 -112612 5.82823e-15 1.32901e+06 1.36999e-14 330785)
(192.114 -942.076 -3.03738e-18 1124.32 -5.34047e-17 326.633)
(-3.52785e+07 -1.62161e+06 0 -284351 0 -8.82387e+06)
(-1.32174e+07 751814 9.7872e-13 4.24358e+06 1.22582e-12 -2.22658e+06)
(-8.89018e+07 -219923 6.98805e-12 57925.4 5.91839e-12 -2.2044e+07)
(-150122 -2.88722e+06 1.89015e-11 -44158.8 8.20029e-12 -48204.9)
(-4.11585e+07 -2.44269e+06 5.61681e-12 -267465 1.42641e-11 -1.02786e+07)
(8.38391e+07 218592 2.3724e-11 -210478 -3.25221e-11 2.075e+07)
(70611.3 -416994 1.6812e-15 583071 1.96183e-14 162192)
(1.00002e+08 -231134 -3.48516e-13 -127308 1.24003e-11 2.4781e+07)
(5.77273e+07 -971516 -3.42371e-13 23959.1 -7.99973e-12 1.43293e+07)
(4.20901e+07 -3.08083e+06 -4.156e-12 1.11524e+07 -3.37497e-12 1.32106e+07)
(-8.41299e+07 -863950 9.8659e-12 266291 1.14561e-11 -2.08083e+07)
(-2.35682e+07 1.66142e+06 -5.85773e-12 4.31778e+06 -3.16525e-12 -4.77641e+06)
(3.70739e+07 -2.31803e+06 -2.77173e-13 1.12858e+07 1.66811e-12 1.1999e+07)
(6142.95 -150006 3.21542e-15 813712 -1.63473e-15 203423)
(-2.19477e+07 1.10871e+06 2.93505e-12 3.97567e+06 -5.80674e-13 -4.45922e+06)
(-294347 -2.99467e+06 -4.00668e-11 -27539.3 -1.09993e-13 -79866.5)
(61087.2 -229836 -1.67278e-14 2.22307e+06 2.88948e-14 566746)
(6.27625e+07 -1.12171e+06 -2.7621e-12 -124255 -1.35968e-12 1.55418e+07)
(43289.9 -124246 -1.18148e-16 144078 -1.81347e-14 46489.7)
(2.41983e+07 -9.28409e+06 1.14962e-12 3.66855e+06 -1.12469e-12 6.91432e+06)
(-1.50784e+07 -1.89753e+06 -2.5725e-11 490627 1.039e-11 -3.61952e+06)
(5.10363e+07 -5.90154e+06 3.30743e-12 7.44677e+06 -2.42288e-12 1.45108e+07)
(6.05828e+07 -1.69006e+06 -4.0981e-11 51651 2.37795e-11 1.50446e+07)
(-5.53856e+07 853755 0 1.28876e+06 0 -1.34225e+07)
(1.01383e+08 -604839 -3.11405e-12 -221532 8.37994e-12 2.51002e+07)
(19394.5 -398641 -2.24887e-15 1.25791e+06 -3.26628e-14 316925)
(-1.99903e+07 -1.93125e+06 -7.69032e-12 -54860.3 -1.30589e-12 -4.97361e+06)
(2.70882e+07 -3.49265e+06 -5.20307e-12 3.68927e+06 2.62917e-12 7.63651e+06)
(1.50352e+07 3.93354e+06 0 7.5648e+06 0 5.60753e+06)
(9.43959e+06 -9.57454e+06 1.1717e-13 9.63509e+06 -9.89606e-15 4.73282e+06)
(1435.69 -2973.91 1.0696e-17 2020.32 -1.03943e-16 857.507)
(-1.58633e+07 -2.09892e+06 8.34105e-12 161881 -1.06218e-12 -3.89583e+06)
(5.01741e+07 -1.9888e+06 -1.44286e-11 -230584 1.83655e-11 1.2392e+07)
(221716 -2.8476e+06 -2.26742e-11 5898.48 1.54118e-11 56475.9)
(-1.01661e+07 -2.52998e+06 4.52362e-11 107918 -1.10549e-11 -2.49563e+06)
(-1.9028e+07 -3.5122e+06 9.18918e-12 268617 -7.70261e-12 -4.65458e+06)
(-236168 -2.96127e+06 -1.78535e-11 43635.5 2.77602e-11 -47771.3)
(4.83002e+07 -2.77147e+06 4.31954e-12 1.10214e+06 -4.17673e-12 1.22577e+07)
(-1.43498e+07 -521012 7.58459e-12 4.26138e+06 5.01178e-12 -2.50313e+06)
(1.40474e+07 4.02244e+06 2.70853e-12 8.39144e+06 2.55326e-12 5.56754e+06)
(4.57842e+07 -1.39365e+07 -1.11328e-12 1.1763e+07 1.54644e-12 1.42786e+07)
(7.54668e+06 -3.55518e+06 3.94048e-12 -402175 -2.14007e-11 1.7727e+06)
(-6.8178e+06 -3.06913e+06 0 84991.1 0 -1.67055e+06)
(6520.41 -80392.8 1.52408e-16 262539 2.85847e-15 66759.2)
(-2.33249e+07 4.46504e+06 2.43282e-12 4.78733e+06 3.28652e-12 -4.59954e+06)
(2.56149e+07 -3.06208e+06 1.09331e-11 3.48445e+06 3.87644e-12 7.22013e+06)
(4.33487e+07 -4.69968e+06 -2.45359e-12 1.04234e+07 4.98948e-13 1.3342e+07)
(1.04933e+07 -2.95789e+06 1.33596e-11 106681 -2.23004e-11 2.63007e+06)
(-5.66025e+07 697928 2.27805e-12 1.6927e+06 2.92519e-12 -1.36242e+07)
(1.52479e+07 -3.07705e+06 4.81701e-12 76402.3 1.28625e-11 3.80226e+06)
(2.48835e+07 -1.40754e+07 4.84068e-13 1.07475e+07 -7.86576e-13 8.84076e+06)
(11176.6 -37703.9 1.68387e-17 58944.6 -3.99359e-15 17398.5)
(-5348.57 -80341 2.15095e-15 1.84185e+06 -9.78251e-15 455672)
(7.48423e+07 -4.49321e+06 -7.68744e-12 1.84727e+06 -1.71248e-12 1.90282e+07)
(2.7882e+07 -3.29782e+06 -1.74239e-11 92251.3 1.99614e-12 6.94099e+06)
(6.63045e+06 -1.8166e+06 1.25797e-11 63055.2 -3.05437e-12 1.66079e+06)
(-1.4848e+07 -2.38905e+06 1.41434e-11 462864 -1.71933e-11 -3.56925e+06)
(166.159 -1294.69 -2.59919e-17 3510.31 2.30796e-17 912.206)
(111026 -444625 7.41066e-16 646677 1.01613e-14 188001)
(-1.19038e+07 -1.54194e+06 -1.13161e-11 145223 3.44296e-11 -2.91753e+06)
(-342.07 -3807.12 -4.25037e-16 39027.5 -1.68226e-15 9598.64)
(5.02725e+07 -6.22898e+06 1.93488e-12 1.22166e+07 -1.02193e-12 1.55048e+07)
(2.35418e+07 -1.66718e+06 -7.20049e-12 -400728 -9.89092e-13 5.74176e+06)
(-8.0648e+06 -2.28116e+06 -4.08823e-12 -23077.2 -4.89104e-11 -2.00677e+06)
(3.12967e+07 -2.62924e+06 7.84297e-12 -174473 7.45316e-12 7.72204e+06)
(4.78339e+06 -3.02572e+06 2.66012e-12 -335180 7.13436e-12 1.10369e+06)
(5.25766e+07 -845914 5.35199e-12 13219.1 2.36751e-12 1.30486e+07)
(2.14588e+07 -1.52487e+07 -4.62205e-13 1.41072e+07 6.44527e-13 8.82465e+06)
(-8.31508e+07 1.89223e+06 -2.41586e-12 943885 -1.31874e-12 -2.03972e+07)
(-5.46579e+07 -2.39539e+06 0 217623 0 -1.35077e+07)
(4.79545e+07 -900136 4.41085e-12 -369515 6.95632e-14 1.18068e+07)
(7.46359e+07 -2.62491e+06 2.04236e-12 1.45632e+06 2.45439e-12 1.888e+07)
(-4.45398e+07 -1.16849e+06 -4.45707e-12 138693 4.26622e-12 -1.10168e+07)
(1.62142e+07 -1.84391e+06 4.86957e-13 70522.6 1.80295e-13 4.04058e+06)
(919.637 -18719.5 7.92468e-17 194442 -1.56512e-15 48473.2)
(5.21123e+07 -2.35403e+06 -6.68159e-12 -106732 -1.01446e-12 1.29036e+07)
(3.03963e+07 -1.82048e+06 9.40717e-12 249431 2.64168e-11 7.60384e+06)
(2.30846e+07 -2.60637e+06 6.33655e-12 -165239 -4.44037e-11 5.68677e+06)
(12625.9 -99853.2 4.09548e-15 1.5934e+06 -2.78822e-14 398487)
(4.97237e+07 -2.68572e+06 -4.69018e-12 980753 5.51874e-12 1.25808e+07)
(967533 -2.29192e+06 -1.5086e-13 8.05431e+06 1.68481e-13 2.2385e+06)
(-4.01564e+06 -1.98793e+06 1.18535e-11 1.25348e+06 -1.4152e-12 -685347)
(-2.64196e+07 8.51484e+06 -5.7831e-12 3.84356e+06 -4.48635e-12 -5.60158e+06)
(-3.40307e+06 -1.68677e+06 -3.45997e-11 -124685 1.32754e-12 -875308)
(-8.43266e+06 -1.82433e+06 -7.44957e-13 1.13702e+06 -3.0551e-12 -1.8102e+06)
(-1.28314e+07 -2.27981e+06 2.53336e-12 1.24212e+06 -4.60937e-12 -2.87554e+06)
(353.601 -1439.5 1.19521e-17 3530.66 1.05191e-16 963.765)
(4.34336e+06 -3.66747e+06 4.34219e-14 1.97412e+06 -1.2893e-13 1.56749e+06)
(5.50696e+06 -2.79465e+06 -2.72551e-11 13485.4 -1.26209e-11 1.36974e+06)
(-2.46006e+07 -1.52613e+06 -3.57224e-11 -254647 5.32252e-12 -6.1671e+06)
(-1.3075e+07 -2.87201e+06 -2.34833e-12 162488 -4.58441e-13 -3.20386e+06)
(2.13973e+07 -1.83519e+06 1.22042e-12 313541 -8.38467e-12 5.38689e+06)
(-3.00685e+07 -2.44147e+06 -3.48559e-11 -7040.78 -3.11904e-12 -7.46235e+06)
(-1.08236e+06 -2.51932e+06 -8.80494e-12 1.08286e+06 -5.4708e-12 124.09)
(1941.63 -11435.8 6.28036e-16 93953.2 1.84258e-15 23793.5)
(6.80797e+07 -1.60268e+06 -5.696e-12 248897 -1.88053e-12 1.69537e+07)
(296.622 -695.405 5.87075e-18 187.757 -4.59652e-17 120.184)
(-4.56214e+07 7.86634e+06 -8.64405e-13 131619 -2.14677e-13 -1.12869e+07)
(-2.35065e+07 5.41248e+06 3.81091e-12 4.2975e+06 2.65516e-12 -4.76614e+06)
(-5.54698e+07 -1.23042e+06 2.68215e-12 442537 -2.39807e-12 -1.36534e+07)
(-7.96348e+06 -3.26204e+06 3.31899e-11 584313 -2.72399e-11 -1.83092e+06)
(-8.3013e+07 1.57486e+06 3.50107e-13 -250510 5.35868e-13 -2.06594e+07)
(1.47088e+07 -2.22768e+06 -7.82841e-12 111761 3.5543e-13 3.67727e+06)
(-4.60169e+06 -2.89502e+06 8.9102e-12 1.70053e+06 -1.04106e-11 -719838)
(1865.8 -8484.14 1.00534e-16 20786.9 8.41992e-16 5620.6)
(2.1749e+06 6.20917e+06 -1.00089e-13 -4.0488e+06 1.82218e-13 -464952)
(239.38 -934.287 0 883.334 0 278.568)
(-8.97181e+07 26441 8.84164e-12 -84371.5 -1.3228e-13 -2.22818e+07)
(9.62004e+07 -5.07066e+06 9.44053e-13 2.32051e+06 -1.72157e-12 2.4445e+07)
(986816 -3.08145e+06 6.10165e-12 -321717 -1.29903e-11 165024)
(-3.52248e+07 -788218 -3.51765e-11 115909 -2.89286e-11 -8.71124e+06)
(3.51884e+07 -808461 -8.79551e-12 -123000 3.09351e-11 8.70043e+06)
(3.73513e+07 -1.93041e+06 -1.40575e-13 171181 7.05199e-13 9.31008e+06)
(5.28613e+07 -5.99065e+06 -5.02117e-12 1.04936e+07 2.75025e-12 1.57196e+07)
(2.14095e+07 -5.86384e+06 -1.80248e-13 -838770 1.07995e-13 5.10402e+06)
(-3.45832e+07 -1.09048e+06 -7.93248e-12 1.49981e+06 -2.45939e-12 -8.20867e+06)
(3670.55 -29272.2 -2.37478e-14 1.68837e+06 4.67451e-14 419831)
(7.95388e+06 -2.25278e+06 -3.74395e-12 93299.7 -3.01316e-12 1.99667e+06)
(-2.45901e+07 -2.19314e+06 3.29313e-12 401264 -6.82682e-12 -6.00175e+06)
(5.54085e+07 -1.39095e+06 -3.96872e-12 -29245 -5.83769e-12 1.37407e+07)
(-5.52591e+07 -1.40503e+06 6.98438e-12 151305 -1.05716e-11 -1.36734e+07)
(5.27572e+07 -1.95276e+06 6.41624e-12 -90028 -1.30119e-11 1.30678e+07)
(-5.22698e+07 -1.97879e+06 7.90233e-12 -19370.1 -5.38377e-12 -1.2974e+07)
(-7.99103e+07 267713 -1.28774e-12 68976.4 2.73325e-11 -1.98102e+07)
(7.51959e+07 -1.88403e+06 -1.07051e-11 -94142.7 7.85362e-12 1.86343e+07)
(9.69189e+07 -582878 8.70327e-12 -118636 -7.5523e-13 2.40181e+07)
(129694 -328395 -8.05468e-16 176606 9.88865e-15 75999.1)
(-3.80634e+07 1.37003e+06 5.57044e-12 2.54249e+06 -1.09064e-12 -8.81346e+06)
(1.12613e+07 1.74846e+06 -2.1019e-13 -4.0553e+06 1.57694e-13 1.78796e+06)
(1.18268e+07 1.86172e+06 3.74684e-13 -4.71208e+06 -2.40359e-13 1.7653e+06)
(1.95338e+07 -420124 -1.76538e-12 9.04489e+06 1.84707e-12 7.09094e+06)
(5.33842e+07 -4.69565e+06 5.67729e-13 1.00252e+07 -3.09738e-12 1.57332e+07)
(8.45283e+06 -1.56573e+07 0 2.94255e+07 0 9.39838e+06)
(6.99745e+07 -1.15772e+07 -4.35838e-13 1.23029e+07 2.63934e-12 2.04147e+07)
(-2.48749e+07 1.15255e+07 -6.30503e-13 -419109 6.10079e-13 -6.27595e+06)
(-3130.01 -14770 -1.32983e-15 341347 1.30999e-15 83918.4)
(4.92309e+07 -2.60967e+06 -1.34653e-12 -37426.5 -1.44551e-12 1.22059e+07)
(2.08386e+07 -2.66025e+06 -1.57972e-11 290264 -1.132e-11 5.2425e+06)
(4.48201e+07 -1.15304e+06 -2.2529e-11 -60801.5 -9.00756e-12 1.11057e+07)
(-2.84854e+07 -2.44032e+06 3.82654e-12 -16799.8 2.32967e-11 -7.07197e+06)
(-8.15522e+07 -266161 -5.5533e-12 179125 -2.03712e-12 -2.01903e+07)
(-343.422 -90213.6 -2.54853e-15 1.27231e+06 1.95759e-14 315600)
(-4.7656e+07 -2.09059e+06 3.00547e-12 25765.2 -2.14399e-11 -1.1818e+07)
(4.79082e+07 -2.0124e+06 -1.84498e-11 -91633.7 1.19849e-11 1.18643e+07)
(8.12545e+07 -192398 5.5649e-12 -166618 -2.03891e-12 2.01195e+07)
(-3.75193e+07 362598 -2.77157e-12 2.54135e+06 -2.52149e-12 -8.67875e+06)
(6.57699e+06 -1.33977e+07 2.37605e-13 2.77692e+07 -3.59622e-13 8.52199e+06)
(2.84867e+07 -1.2392e+06 8.75602e-12 -361147 7.90833e-12 6.97852e+06)
(-2.85229e+07 -1.24283e+06 0 363816 0 -6.98684e+06)
(-2.64895e+06 -2.8033e+06 -1.73857e-11 -111835 -9.15716e-13 -685006)
(-1.74649e+07 4.79662e+06 -3.50635e-12 4.72636e+06 -5.76188e-13 -3.16068e+06)
(7.67216e+07 -899098 -8.9298e-12 -42837.1 7.95621e-12 1.90256e+07)
(4.38773e+07 -2.20936e+06 6.43402e-12 64219.8 -2.24191e-11 1.09028e+07)
(-7.30561e+07 3.88252e+06 -4.42768e-12 106172 -1.90018e-12 -1.81004e+07)
(1.35133e+07 -3.06827e+06 -1.22963e-12 67725.6 7.62076e-12 3.36973e+06)
(170674 -738781 0 1.74793e+06 0 476046)
(-4.90001e+06 -3.05279e+06 -5.07556e-12 -16150.4 3.92433e-12 -1.2198e+06)
(140805 -591350 -2.431e-15 3.55789e+06 -6.77393e-14 917722)
(6.61623e+07 -1.37572e+06 -3.6691e-12 -300117 7.48719e-12 1.63418e+07)
(311.611 -1038.8 0 946.894 0 312.261)
(6.96398e+06 -2.45482e+06 3.01803e-12 193666 -9.96321e-12 1.77596e+06)
(729875 -2.30509e+06 7.45335e-14 7.61289e+06 -2.53117e-13 2.07001e+06)
(8.52795e+07 -354578 3.38331e-12 -75337.7 2.96984e-12 2.11409e+07)
(5.37632e+06 -53611.7 -2.03969e-11 106134 3.13783e-14 1.36031e+06)
(-5.37975e+06 -54653.5 2.05736e-11 -105882 -5.18064e-14 -1.3611e+06)
(6.62166e+06 -2.46666e+06 1.62615e-11 146733 2.73622e-12 1.67938e+06)
(-9.39947e+07 83105.3 1.20716e-11 -301076 2.86956e-12 -2.33967e+07)
(-9.91202e+07 4392.51 -1.85232e-13 -608638 -5.5795e-13 -2.47448e+07)
(4.27752e+07 -4.14633e+06 2.18216e-12 5.07093e+06 2.04842e-12 1.18716e+07)
(-8.14038e+07 -482129 -4.26989e-12 287692 3.36601e-13 -2.01266e+07)
(11577.3 -24919.5 -9.38338e-17 10679.4 7.4128e-16 5522.33)
(2478.67 -10915.2 -4.16067e-17 18352.9 -5.21669e-16 5168.74)
(5.14726e+07 -1.28937e+06 -1.01274e-11 266382 1.86552e-11 1.28375e+07)
(10887 -24066.4 -6.20363e-17 15157 8.72755e-16 6462.06)
(-1.17315e+07 -2.07326e+06 3.43985e-11 -124169 8.67825e-12 -2.94164e+06)
(1693.83 -9280.5 -1.47624e-17 18276.6 -4.63818e-16 4955.07)
(4.78433e+07 -1.38125e+06 1.12304e-11 -36135.3 -1.00343e-11 1.18619e+07)
(5011.76 -19466.5 6.72709e-17 35357.4 2.77104e-16 10016.4)
(146594 -409604 1.17495e-15 182176 -1.38498e-14 81574.4)
(-1.10268e+07 -2.08126e+06 -4.66925e-12 2.78844e+06 9.7105e-13 -2.0441e+06)
(-2.0368e+07 -1.70645e+06 1.76197e-11 -199593 -1.04876e-11 -5.10324e+06)
(3.29815e+07 -6.43124e+06 4.27283e-13 5.08671e+06 1.45707e-13 9.44549e+06)
(-2.32516e+07 1.01377e+07 -1.83294e-12 -997215 -5.18778e-13 -6.01662e+06)
(3.23025e+07 -3.20384e+06 -9.49299e-12 295744 -7.83597e-12 8.08829e+06)
(7.72582e+07 -1.48728e+06 -6.94307e-12 156708 2.03254e-11 1.92082e+07)
(-7.67878e+07 -1.6526e+06 1.06758e-11 90109.3 -2.1735e-11 -1.90303e+07)
(1.09598e+07 -1.0085e+07 3.70313e-13 9.86834e+06 6.64914e-14 5.16789e+06)
(3.30995e+07 -2.85528e+06 1.83826e-11 -36758.9 1.71486e-11 8.20354e+06)
(3.35285e+07 -1.29023e+06 2.1678e-11 510433 -3.35498e-11 8.44575e+06)
(-6.28937e+07 935234 1.14117e-12 -196589 1.8141e-11 -1.5654e+07)
(6.24957e+07 865566 2.97015e-12 33578.3 -1.68841e-11 1.55148e+07)
(4.31156e+07 -2.18451e+06 0 69949.2 0 1.07152e+07)
(-8.58298e+07 -1.62063e+06 2.97848e-12 504164 3.96308e-12 -2.1171e+07)
(8.54547e+07 -1.52206e+06 -6.77448e-12 -481585 1.06928e-12 2.10835e+07)
(5.27971e+07 -7.17462e+06 9.2392e-13 1.25669e+07 6.11552e-13 1.62181e+07)
(3.46315e+07 -300798 -1.86026e-11 -55307.9 -3.44191e-12 8.57906e+06)
(-1.20045e+07 -2.45012e+06 2.37095e-11 2419.26 5.06872e-11 -2.97797e+06)
(-1.62374e+06 6.48509e+06 8.55938e-13 -4.1218e+06 -1.13047e-13 -1.42559e+06)
(-8.3205e+07 -646264 1.62467e-12 338803 3.46244e-12 -2.05608e+07)
(-6.18922e+07 -126305 0 -255344 0 -1.54201e+07)
(6.20217e+07 -108703 -2.74402e-12 282082 -2.28962e-12 1.54588e+07)
(-2923.18 -88063.6 1.44283e-15 688122 1.75159e-14 170012)
(7081.16 -79120.4 2.04601e-15 231423 3.16855e-15 59177.8)
(-50106.3 -301065 -6.45473e-14 3.38901e+06 -1.01506e-13 828449)
(-9.98512e+06 -1.85277e+06 -1.51341e-11 -95668.3 3.92288e-12 -2.50125e+06)
(-2.28241e+07 6.88766e+06 -7.43812e-12 4.54938e+06 -2.77957e-12 -4.53434e+06)
(-1.0209e+08 45868.4 3.97703e-12 -688165 3.74723e-13 -2.55014e+07)
(-5.65636e+07 -949011 0 -111550 0 -1.40622e+07)
(-9.6772 -5.54201 1.2391e-18 176.719 5.58907e-18 41.4465)
(4.991e+07 -3.78686e+06 1.02659e-13 1.65142e+06 5.88649e-12 1.27934e+07)
(-2.3383e+06 9.33502e+06 2.58109e-12 3.95773e+06 -6.19857e-13 401812)
(7.789e+07 -1.48264e+06 5.95259e-12 -59531.2 8.62684e-12 1.93113e+07)
(-7.59096e+06 -2.81923e+06 1.88449e-11 83753.7 2.1812e-11 -1.86269e+06)
(4.46444e+07 -2.48271e+06 8.43049e-12 -259987 -9.74521e-12 1.10127e+07)
(262.407 -549.701 2.75496e-18 11233.1 1.83458e-16 2852.26)
(2.69766e+07 -1.66271e+06 -2.98933e-11 -530668 -1.06022e-11 6.56176e+06)
(-2.7351e+07 -1.65134e+06 5.41613e-12 481672 5.16156e-11 -6.66682e+06)
(-8.05054e+07 757958 1.80933e-12 265901 6.27668e-12 -1.9909e+07)
(-7.01988e+06 -2.58138e+06 -4.41113e-12 86999.5 7.00843e-12 -1.72019e+06)
(4.42688e+06 -5.75749e+06 1.65526e-13 8.07801e+06 -7.38154e-14 3.10272e+06)
(3.97211e+07 -2.90215e+06 8.89853e-12 -250873 -2.20299e-11 9.79337e+06)
(4.90513e+07 -2.1249e+06 8.76413e-12 -238138 2.75455e-11 1.21115e+07)
(3921.24 -70997.8 -2.81031e-14 1.72048e+06 6.31208e-14 427860)
(6.80184e+07 -1.19096e+06 -1.06082e-11 159091 1.22764e-11 1.69162e+07)
(-8.80649e+07 -15150.4 0 -702315 0 -2.2025e+07)
(1153.62 -7975.82 0 68349.4 0 17245.1)
(-61808 -2.26647e+06 -2.62525e-11 310616 4.77771e-11 61734.4)
(486695 -1.72422e+06 -1.43472e-11 4085.37 1.04274e-11 121773)
(104649 -840375 2.26309e-13 5.571e+06 -2.13178e-13 1.40824e+06)
(355017 -2.95346e+06 -5.9952e-12 2.55387e+06 2.81379e-12 721754)
(3.40848e+07 -6.43704e+06 1.20173e-13 4.97679e+06 4.74196e-13 9.69198e+06)
(136989 -358972 -4.43353e-16 345112 1.77718e-14 119619)
(-6.2296e+07 -848622 3.9164e-12 70353.4 -2.04072e-12 -1.54394e+07)
(1.02364e+08 -2.78573e+07 6.74627e-13 1.10479e+07 -5.48855e-13 2.81399e+07)
(-3.82228e+07 1.6663e+06 0 2.77202e+06 0 -8.79606e+06)
(1.07793e+07 -1.95861e+06 4.92258e-12 303736 2.55284e-11 2.74993e+06)
(-7.61784e+07 1.49199e+06 -7.99299e-12 560807 -5.93314e-12 -1.87623e+07)
(-2.6135e+07 -2.28177e+06 3.43594e-12 193034 -7.18088e-12 -6.43672e+06)
(-1.87439e+07 3.10664e+06 3.08992e-12 4.77145e+06 5.00823e-12 -3.46684e+06)
(-3.32536e+07 -36636.8 -2.13474e-11 -1.0014e+06 -6.50484e-13 -8.49937e+06)
(3.32057e+07 -37119.3 -9.42815e-12 1.00315e+06 -4.33896e-12 8.48792e+06)
(5.26828e+07 -2.05674e+06 4.96137e-12 -109741 -8.45155e-12 1.30444e+07)
(698.793 -3723.01 6.31585e-17 17245.4 4.94137e-18 4452.32)
(21450.7 -59110.7 2.42576e-17 75167.7 2.57929e-15 23973)
(-3.40392e+07 -2.88352e+06 9.60468e-12 -97029.1 -4.8062e-12 -8.46989e+06)
(4.11411e+07 -2.19908e+06 8.43142e-12 131121 1.29175e-12 1.02405e+07)
(-4.15773e+07 -2.70008e+06 -3.14942e-12 -79545.9 -2.26758e-11 -1.03359e+07)
(3.28072e+07 -1.37717e+06 -8.34276e-12 265798 -3.97968e-11 8.20609e+06)
(-3.28649e+07 -1.27728e+06 2.20866e-11 -176665 2.28209e-11 -8.19829e+06)
(3.13993e+07 -6.64914e+06 -1.00482e-12 4.94643e+06 3.87369e-13 9.01812e+06)
(254.972 -1186.03 -7.80089e-19 2457.95 -5.46419e-17 673.132)
(6.26851e+06 -2.34486e+06 -1.66876e-11 -161238 3.74534e-11 1.51534e+06)
(5.33769e+07 -1.95125e+06 -3.23068e-12 57586.7 2.27363e-11 1.32582e+07)
(2.31002e+07 -2.48359e+06 1.43042e-11 4.31639e+06 -5.27821e-12 6.80261e+06)
(1.10229e+07 -1.84677e+06 2.88526e-11 147983 -2.37282e-12 2.77171e+06)
(2.0979e+07 -1.97986e+06 5.94243e-12 -260319 2.09895e-11 5.14073e+06)
(-1.34119e+06 -1.83336e+06 2.69282e-11 92585.6 -1.9855e-12 -309804)
(-21.7479 -331.489 1.13054e-17 1679.8 1.22218e-17 411.396)
(5.22476e+07 -2.21666e+06 -2.28639e-11 -27526 -7.0864e-13 1.29569e+07)
(3.73957e+07 -2.21818e+06 -1.09872e-11 51302.8 -6.57336e-12 9.29135e+06)
(-9.74679e+07 -961866 3.83179e-12 -165243 2.02738e-12 -2.42248e+07)
(-3.32954e+07 -2.87886e+06 -5.79982e-12 71043.9 -6.23494e-13 -8.24365e+06)
(182163 -327564 3.31027e-15 122428 -2.01266e-14 75575.4)
(7.4419e+07 -3.3136e+07 1.77467e-12 1.91345e+07 -2.72606e-12 2.32125e+07)
(7.9809e+06 -3.13936e+06 7.03336e-12 438.835 6.96379e-12 1.98033e+06)
(-4.09092e+07 -2.18287e+06 8.04795e-12 -131686 -5.11016e-12 -1.01831e+07)
(8.08919e+07 -277987 -3.98252e-12 -103231 -1.45223e-12 2.00453e+07)
(4.72166e+07 -1.335e+06 -9.06512e-12 21012.3 -5.09503e-12 1.17206e+07)
(112607 -386901 -3.09136e-16 498061 -2.93059e-14 151519)
(-5774.38 -116862 3.71618e-15 1.32519e+06 6.54498e-15 327374)
(-5.1517e+07 -2.78473e+06 3.97083e-12 81696.9 9.05266e-12 -1.27622e+07)
(-4.50549e+07 -121444 -3.97201e-11 -950501 -5.88521e-12 -1.14149e+07)
(4.50626e+07 -119207 -2.18915e-11 945985 1.57511e-11 1.14157e+07)
(-7.15979e+07 5.43975e+06 -1.05186e-13 340182 -1.39112e-13 -1.76805e+07)
(2.14297e+07 985821 2.72927e-12 9.41644e+06 -4.6257e-12 7.65355e+06)
(2.39823e+07 -3.73524e+06 -4.90754e-12 2.4345e+06 -2.8797e-12 6.55455e+06)
(-5.23009e+07 -503173 -1.29244e-11 -42063.2 6.77809e-12 -1.29873e+07)
(5.23516e+07 -549350 0 24181 0 1.29955e+07)
(-5.09152e+06 -3.42823e+06 -2.20368e-11 245363 1.25702e-11 -1.20243e+06)
(-3.57523e+07 -3.00508e+06 -6.72023e-12 319285 -7.57976e-12 -8.79165e+06)
(-6.88619e+07 -1.34906e+06 -3.69107e-12 53434.4 -6.18515e-12 -1.70728e+07)
(5.14184e+07 -5.28688e+06 8.57244e-13 1.11656e+07 1.85832e-12 1.55284e+07)
(-3332.94 -76065.7 -1.37221e-14 1.36483e+06 -2.75758e-14 337814)
(7.07329e+07 -1.8175e+06 7.45236e-12 169650 -9.91574e-12 1.75924e+07)
(-2.40565e+07 1.05057e+07 -1.53738e-12 92317.6 -2.67206e-13 -5.946e+06)
(1.03332e+08 -1.0589e+06 1.92867e-12 413524 2.44455e-13 2.57415e+07)
(4.12084e+06 -1.94881e+06 1.30186e-11 -154172 8.98702e-12 984210)
(-294.596 -69443.2 -3.99638e-15 640028 -4.04801e-15 158731)
(3.26926e+07 -1.75877e+06 3.09955e-11 42361.7 -6.39455e-12 8.12221e+06)
(-899570 -3.51079e+06 -1.19361e-11 55092.9 -8.21123e-12 -209532)
(2.32063e+07 -2.5436e+07 -2.52017e-12 3.00552e+07 2.3784e-12 1.32153e+07)
(2.91765e+06 -3.38616e+06 -5.0522e-14 4.36572e+06 6.74891e-14 1.80715e+06)
(1.76807e+07 -1.25194e+06 3.27795e-13 7.72054e+06 3.39989e-12 6.30257e+06)
(-8.8041e+06 -1.47739e+06 -1.97843e-11 322945 1.57182e-12 -2.10435e+06)
(-6.66639e+07 -1.27638e+06 -3.23772e-12 102338 8.5519e-12 -1.65153e+07)
(4.77807e+07 -4.77333e+06 8.78791e-13 1.0054e+07 1.78523e-12 1.435e+07)
(4.9421e+06 4.159e+06 3.77049e-13 7.95399e+06 -5.98737e-13 3.19978e+06)
(5.14512e+07 -1.50339e+06 -1.68747e-11 -89747.2 1.11568e-11 1.27438e+07)
(-7.16986e+06 -3.05159e+06 2.63225e-12 67292.8 -6.77036e-12 -1.76229e+06)
(-8.40868e+07 1.05803e+06 -5.28382e-12 404225 -2.43941e-12 -2.07634e+07)
(-3.02974e+07 -1.85565e+06 1.62263e-11 58168.8 -3.37121e-11 -7.50297e+06)
(-4.63225e+07 -1.38526e+06 -7.35519e-12 164087 -5.44829e-12 -1.14528e+07)
(-7.37899e+06 -2.94241e+06 3.7361e-12 630201 6.47607e-12 -1.67451e+06)
(2.3049e+07 -910680 -1.26778e-11 214306 -2.65379e-11 5.7721e+06)
(-3.02545e+06 1.06127e+07 -3.37703e-12 2.48471e+06 2.0095e-14 -134168)
(-2.22776e+06 -2.56149e+06 -1.44557e-11 -332223 1.50228e-11 -635183)
(-6.64087e+07 -1.5684e+06 -3.85488e-12 477663 -2.65089e-12 -1.63588e+07)
(-2.84459e+07 2.15777e+06 3.28396e-12 3.35842e+06 -1.49333e-12 -6.22471e+06)
(122711 -482736 2.15788e-15 797824 4.13087e-14 228404)
(9.85129e+07 -332861 0 88820.8 0 2.44651e+07)
(-2.83976e+07 1.09874e+06 1.3495e-14 -4.27017e+06 -3.61159e-13 -8.10554e+06)
(1.62815e+07 -3.6142e+06 -7.62252e-12 -211737 -3.02418e-12 3.98724e+06)
(-5.99484e+07 -1.43701e+06 -5.20161e-12 -370015 1.48372e-11 -1.49662e+07)
(-5.26646e+07 280957 -3.34869e-14 1.87802e+06 1.24378e-12 -1.26012e+07)
(-6.01331e+06 -2.46661e+06 1.19151e-11 -41897.8 1.30249e-11 -1.50242e+06)
(-8.80457e+07 -71450.3 -6.15698e-12 274838 -5.74601e-13 -2.17777e+07)
(-1.37201e+07 9.70988e+06 2.96493e-12 3.21807e+06 1.40161e-12 -2.60575e+06)
(-8.35633e+07 -1.35215e+06 -5.97361e-12 217234 -7.77537e-12 -2.06799e+07)
(892333 -1.62359e+06 8.70348e-14 3.19792e+06 -9.55319e-14 1.01487e+06)
(-8.21607e+07 -1.75878e+06 5.82212e-12 132130 4.67133e-12 -2.03529e+07)
(8.18556e+07 -1.65764e+06 -5.30287e-12 -107075 -4.68514e-12 2.02835e+07)
(5464.87 -33213.2 -2.32784e-16 77214.3 1.19339e-16 20514.4)
(4.04644e+07 -1.99743e+06 -2.56906e-11 177542 -2.13165e-11 1.00841e+07)
(-4.05961e+07 -2.0804e+06 -1.9852e-11 -265800 -2.97687e-11 -1.01387e+07)
(689679 -2.07362e+06 1.986e-13 6.37994e+06 -1.43827e-13 1.75412e+06)
(2.78021e+07 -2.94791e+06 -1.15398e-13 2.49467e+06 -5.29183e-13 7.51725e+06)
(1.37178e+07 -3.19912e+06 -1.7581e-12 18151.1 -9.01033e-12 3.40818e+06)
(-3.47098e+07 1.02599e+07 3.2686e-13 493085 -6.13319e-13 -8.48986e+06)
(2.90527e+07 1.347e+06 7.17449e-13 8.18978e+06 -2.25933e-12 9.24062e+06)
(4.92706e+07 -2.37916e+06 -1.07781e-12 316219 -1.78055e-11 1.23035e+07)
(4982.29 -68492.2 -2.67213e-15 504677 -5.54942e-15 126457)
(3.63773e+07 -1.65452e+06 -2.60547e-12 251188 1.41977e-11 9.08827e+06)
(12189.4 -35639.6 -2.03775e-15 1.62316e+06 1.63586e-15 405763)
(380.6 -2564.83 7.40032e-17 12115.9 2.54287e-16 3100.63)
(-6.99838e+07 1.91707e+06 6.82508e-12 1.35171e+06 3.20462e-12 -1.7029e+07)
(8.6023e+06 4.88254e+06 3.48883e-12 7.81166e+06 -1.23433e-12 4.07264e+06)
(3.00547e+07 7089.54 2.57816e-11 248512 -2.42425e-12 7.51885e+06)
(-3.00821e+07 7827.36 -4.94958e-12 -250485 -2.83569e-12 -7.52612e+06)
(-1.07331e+07 -2.98597e+06 -2.02205e-11 123543 4.25799e-12 -2.63244e+06)
(4.58962e+07 -454934 -1.29194e-11 -56427.6 -8.32224e-12 1.13738e+07)
(8.12732e+07 -556911 1.24394e-11 -15174.7 -3.66433e-12 2.01618e+07)
(-8.15684e+07 -630301 -7.5193e-12 46788.8 4.67458e-12 -2.02272e+07)
(8.31007e+07 -9.23428e+06 -2.1509e-12 9.23538e+06 6.35722e-12 2.29105e+07)
(4.15538e+07 -2.28127e+06 -6.64126e-12 -104315 6.02185e-12 1.02845e+07)
(-2.33383e+07 3.66743e+06 -4.66636e-12 5.23629e+06 3.74551e-12 -4.49149e+06)
(6.14864e+07 -1.75293e+06 6.5353e-12 -41763.7 -5.07507e-13 1.52457e+07)
(-3.61333e+07 -2.96474e+06 -9.93362e-12 308390 -2.26086e-11 -8.88888e+06)
(401.115 -3396.66 4.85304e-17 9011.23 9.74687e-17 2335.39)
(3.61557e+07 -1.32477e+06 2.98036e-12 1.04591e+07 1.06748e-12 1.15661e+07)
(-8.63175e+07 -420302 1.54314e-12 13408 -3.86667e-12 -2.14138e+07)
(2.96062e+07 -1.49605e+06 8.31548e-12 -60267.8 4.642e-11 7.33095e+06)
(-2.98486e+07 -1.44086e+06 -2.43568e-12 -175244 3.51054e-11 -7.44954e+06)
(-2.54757e+07 -2.59388e+06 -2.83086e-11 -284991 8.8966e-12 -6.39174e+06)
(-7.27827e+06 -2.23352e+06 3.97082e-12 -44291.2 1.38678e-13 -1.81688e+06)
(8.58669e+06 -2.28736e+06 -1.03787e-11 -318714 -1.83397e-11 2.05145e+06)
(9.30905e+07 6183.64 -2.72931e-11 773429 -1.36964e-12 2.32896e+07)
(-7.11227e+07 -45374.5 -1.13209e-11 122738 3.477e-12 -1.76165e+07)
(362.384 -3015.46 5.1889e-17 11339.7 5.28027e-16 2903.52)
(3.69897e+06 -3.62588e+06 0 207395 0 969247)
(-9.72453e+06 -2.53412e+06 -2.42196e-11 -11858.3 -2.39764e-11 -2.4158e+06)
(-2.59612e+07 1.06697e+07 1.02524e-12 -747691 9.67428e-13 -6.62702e+06)
(-2.39566e+07 -1.43531e+06 3.73217e-11 -331683 -2.94436e-11 -6.02641e+06)
(60.5883 -427.188 -1.30139e-17 2940.67 5.22297e-17 744.673)
(1.05975e+08 -2.62849e+07 -1.63619e-12 1.12153e+07 2.13926e-12 2.90774e+07)
(3.51174e+07 -2.20588e+06 -5.75598e-13 117007 3.03584e-11 8.74238e+06)
(-3.51236e+07 -1.98646e+06 2.77344e-12 199013 5.84448e-12 -8.6655e+06)
(5.12228e+07 -2.62433e+06 4.04063e-12 1.72627e+06 2.847e-12 1.31377e+07)