/*--------------------------------*- C++ -*----------------------------------*\
| =========                 |                                                 |
| \\      /  F ield         | OpenFOAM: The Open Source CFD Toolbox           |
|  \\    /   O peration     | Version:  v3.0+                                 |
|   \\  /    A nd           | Web:      www.OpenFOAM.com                      |
|    \\/     M anipulation  |                                                 |
\*---------------------------------------------------------------------------*/
FoamFile
{
    version     2.0;
    format      ascii;
    class       volScalarField;
    location    "13000";
    object      sigmaEq;
}
// * * * * * * * * * * * * * * * * * * * * * * * * * * * * * * * * * * * * * //

dimensions      [1 -1 -2 0 0 0 0];

internalField   nonuniform List<scalar> 
24076
(
7.22403e+07
965007
14557.4
14426.5
1.75023e+07
1.10915e+06
992326
7.66926e+07
1887.91
6.52594e+07
4.40617e+07
6.3358e+07
3.72222e+07
1.46568e+07
7.79493e+07
6.72635e+06
4.15987e+07
4.2277e+07
5.63244e+06
9.77077e+06
7.67421e+07
3.97837e+07
1.39703e+06
4.46566e+07
1.35344e+07
4.4253e+06
7.72717e+06
1.10957e+06
7.44745e+06
1.59306e+07
1.29631e+07
281011
2.88074e+07
2.56734e+07
3.33091e+07
5.60417e+07
3.56629e+07
4.25038e+07
4.28764e+07
7.81314e+07
2.64803e+07
8.70944e+06
2.9042e+07
2.23506e+07
5.24182e+07
7.55119e+07
1.38092e+06
1.93558e+07
8.21991e+06
5.58659e+07
37878.4
5.87956e+06
5227.45
1.21129e+06
1850.47
3.17265e+07
1.5345e+07
8.02265e+07
5.0019e+06
3.71596e+07
7.57767e+07
863552
9.02909e+07
5.20738e+07
3.04332e+07
7.60952e+07
2.47994e+07
2.57538e+07
774128
2.29825e+07
5.19269e+06
1.99878e+06
5.67341e+07
236975
2.4979e+07
1.43561e+07
4.17913e+07
5.46794e+07
5.09592e+07
9.16132e+07
1.31556e+06
1.82961e+07
2.25239e+07
1.09854e+07
1.72664e+07
5248.48
1.48816e+07
4.55586e+07
4.93606e+06
1.02365e+07
1.84011e+07
5.13503e+06
4.29956e+07
1.63417e+07
1.02214e+07
4.07537e+07
9.40982e+06
8.17747e+06
270446
2.59679e+07
2.11936e+07
3.26e+07
1.06905e+07
5.23593e+07
1.46947e+07
2.87188e+07
79297.1
1.67106e+06
6.65575e+07
2.57192e+07
6.71495e+06
1.43551e+07
3778.06
919070
1.11709e+07
36068
3.80832e+07
2.17312e+07
8.26215e+06
2.8723e+07
6.95486e+06
4.7432e+07
2.86069e+07
7.57854e+07
4.9636e+07
4.35603e+07
6.6366e+07
4.03274e+07
1.49161e+07
177654
4.72582e+07
2.74072e+07
2.14272e+07
1.43794e+06
4.43469e+07
7.65437e+06
5.75868e+06
3.06062e+07
4.16965e+06
9.0579e+06
1.31401e+07
3839.79
6.86244e+06
6.92802e+06
2.21523e+07
1.2913e+07
1.93236e+07
2.74415e+07
4.74942e+06
85588.3
6.12754e+07
1214.31
4.34388e+07
2.62886e+07
5.04112e+07
9.4961e+06
7.47295e+07
1.37342e+07
7.44754e+06
22737.7
1.20389e+07
1734.84
8.08535e+07
8.54577e+07
5.45878e+06
3.18872e+07
3.18612e+07
3.37235e+07
4.1335e+07
2.23884e+07
3.23959e+07
1.52082e+06
8.10401e+06
2.2803e+07
5.00538e+07
5.00133e+07
4.77707e+07
4.72524e+07
7.21259e+07
6.797e+07
8.75084e+07
575441
3.63636e+07
1.37264e+07
1.47905e+07
1.16129e+07
4.16082e+07
3.40055e+07
5.76723e+07
2.97937e+07
311304
4.46597e+07
1.91371e+07
4.05193e+07
2.6024e+07
7.36907e+07
1.15836e+06
4.31533e+07
4.34188e+07
7.34119e+07
3.58003e+07
3.08249e+07
2.60565e+07
2.60916e+07
5.37464e+06
2.11815e+07
6.92462e+07
3.97094e+07
6.63128e+07
1.32489e+07
1.93307e+06
6.88339e+06
3.26717e+06
5.99485e+07
1908.01
7.46368e+06
7.47583e+06
7.69743e+07
4.76935e+06
4.77267e+06
7.2528e+06
8.45459e+07
8.89348e+07
3.55391e+07
7.36429e+07
43531.4
23957.2
4.62751e+07
42359
1.10843e+07
22134.3
4.32441e+07
43941.7
714937
1.26668e+07
1.84566e+07
2.82774e+07
2.67781e+07
2.9437e+07
6.96085e+07
6.93834e+07
1.8263e+07
3.02873e+07
2.99357e+07
5.65981e+07
5.636e+07
3.90171e+07
7.78456e+07
7.74843e+07
4.04887e+07
3.1281e+07
1.16307e+07
1.15301e+07
7.53099e+07
5.56275e+07
5.57238e+07
641256
245227
3.13844e+06
9.49192e+06
2.69349e+07
9.15529e+07
5.09569e+07
167.093
4.42533e+07
1.70682e+07
7.03421e+07
8.46143e+06
4.06912e+07
9977.81
2.49028e+07
2.51988e+07
7.2823e+07
7.80517e+06
1.09254e+07
3.63652e+07
4.45736e+07
1.55361e+06
6.12602e+07
7.88928e+07
62319.9
3.93937e+06
3.01808e+06
5.15491e+06
5.50743e+06
2.92672e+07
658647
5.62582e+07
9.6944e+07
3.67218e+07
1.00799e+07
6.91819e+07
2.40455e+07
2.13557e+07
2.92336e+07
2.91891e+07
4.77319e+07
16350.9
115059
3.10311e+07
3.72014e+07
3.77294e+07
2.94838e+07
2.95897e+07
2.72261e+07
2885.62
7.0617e+06
4.8216e+07
1.81884e+07
1.03366e+07
1.94249e+07
3.42408e+06
1635.7
4.72997e+07
3.39069e+07
8.77974e+07
3.04941e+07
574854
7.8368e+07
9.02076e+06
3.699e+07
7.30375e+07
4.26319e+07
764309
1.21656e+06
4.67753e+07
3.99152e+07
3.99255e+07
6.55151e+07
1.30965e+07
2.08413e+07
4.71468e+07
4.72077e+07
7.62299e+06
3.29031e+07
6.21919e+07
3.93391e+07
1.24051e+06
6.37434e+07
2.8371e+07
9.29002e+07
5.10868e+06
589866
2.96107e+07
6.1405e+06
4.64341e+07
6.27188e+06
1.09563e+07
8.57839e+06
6.02434e+07
3.67157e+07
8.32145e+06
4.65456e+07
8.39162e+06
7.61688e+07
2.75579e+07
4.19724e+07
8.77344e+06
2.06855e+07
1.89915e+07
4.77434e+06
6.032e+07
2.8505e+07
1.04628e+06
8.87841e+07
2.25372e+07
1.61118e+07
5.38443e+07
4.89392e+07
6.87909e+06
7.96188e+07
2.24726e+07
7.55684e+07
3.59949e+06
7.42647e+07
7.39637e+07
87201.1
3.65245e+07
3.65899e+07
6.35255e+06
2.37625e+07
1.35438e+07
3.63251e+07
2.04911e+07
4.43889e+07
466716
3.27438e+07
1.45599e+06
11529.5
6.42373e+07
9.43818e+06
2.69178e+07
2.6941e+07
1.10584e+07
4.14447e+07
7.33191e+07
7.36112e+07
6.992e+07
3.77646e+07
2.59523e+07
5.55701e+07
3.32233e+07
9789.44
2.52658e+07
7.78643e+07
2.68733e+07
2.69036e+07
2.31994e+07
7.59049e+06
8.91699e+06
8.33715e+07
6.42399e+07
11240.2
7.03936e+06
9.79957e+06
2.93867e+07
2.1499e+07
2709.26
9.838e+07
3.1814e+07
3.20154e+07
4.51216e+07
4.54904e+07
2.28847e+07
7.06105e+06
3.55216e+07
2.48347e+07
4.44864e+07
2.04432e+07
5.87411e+06
6.14713e+07
2.80859e+07
1.30304e+07
9.65827e+06
2.22894e+07
2.31024e+07
1.12976e+06
8.53362e+06
2.53993e+07
3.32631e+07
333243
3.52072e+06
5.77698e+07
3.74832e+07
4.41833e+06
8.69591e+07
1.06145e+06
6.1278e+07
2.9904e+07
1.97702e+07
1.11178e+07
3.01575e+07
1.25106e+07
5.10089e+07
4.25349e+07
146245
8.39773e+06
767722
911097
1.13953e+07
1.36691e+07
6.90152e+07
4.85718e+07
78195.8
3213.48
4.27852e+07
4.34869e+07
4.43438e+07
822605
4.9197e+07
3320.45
5.08054e+06
4.22001e+07
6.13535e+07
3.19172e+07
3.13379e+07
6.63025e+07
3.3162e+07
48548.8
3.59146e+07
3.45474e+07
3.43231e+07
3.53324e+07
8.75448e+07
3.55637e+07
2.98254e+07
2.80451e+07
8.62929e+07
2.65036e+07
3.88025e+07
4.2877e+07
4.28912e+07
2.96528e+06
8.37097e+07
4.65613e+07
1.84446e+07
353699
3.3146e+07
123507
3.17261e+07
3.09256e+07
7.55196e+07
9997.4
4.73892e+06
2.48803e+06
1.90118e+07
2.15498e+07
5.16594e+07
9.49163e+07
5.55537e+07
6.41306e+07
8.68487e+06
2.07532e+07
5.25289e+07
691.279
6.65929e+07
1.75347e+07
2.93396e+06
5.70945e+07
2.0768e+07
1.15458e+07
6.23285e+06
5.86849e+07
235988
2.15314e+07
229815
7.42161e+06
1.74905e+07
1.75436e+07
3.52508e+07
870301
8.36288e+07
803401
5.2158e+07
3.03079e+06
3.04244e+06
4963.8
1.92629e+06
8.92457e+07
3.34116e+07
6.83582e+07
7.72395e+06
1.11816e+07
1.53648e+07
16000.9
6.06988e+06
2.10118e+07
2.10574e+07
16464.2
60134
3.31819e+07
1.31897e+07
1.33654e+07
5.51571e+07
1.02753e+07
44932
1.08317e+07
5.12496e+07
3.64173e+06
5.02209e+07
5.00416e+07
7.39335e+07
7.42373e+07
8.53652e+07
867.313
467641
4.07366e+06
1.68814e+07
118801
8.12881e+07
2.5234e+07
12907.9
4.66398e+07
2.05106e+07
2.0547e+07
2.61154e+07
2.71946e+07
4.73285e+07
1.30245e+07
5.10994e+06
53624.7
7.32844e+07
33348.1
2.05163e+06
3.26421e+07
2.20752e+07
2.11971e+07
9.40287e+07
1.90344e+07
1.89531e+07
1.12174e+07
9.0365e+06
2.57926e+07
1.54574e+07
3.43321e+07
2.24422e+06
2.93776e+07
77282.8
7.54977e+07
5.8962e+07
4.95658e+07
9.39266e+06
2.23227e+07
3.23808e+07
1.67515e+07
2.38613e+07
6.28936e+07
5.1591e+07
7.70539e+07
3.46364e+07
9.0482e+06
2.7249e+07
1.2355e+07
2.31482e+07
5.08764e+07
8.23643e+07
4.00574e+07
1.61922e+07
1.61581e+07
1.25876e+06
7.75646e+06
3.42832e+07
28467.2
5.92597e+07
5.2759e+07
1.7957e+07
1.78885e+07
4.95663e+07
14036.9
8.49984e+06
6.31221e+07
1.57708e+07
3.42637e+07
3.39235e+07
754464
29799.7
5.71654e+06
2.81728e+07
5.78353e+06
2.01677e+07
34074.3
14258.8
5.76268e+07
2.01563e+07
3.40868e+07
4.42352e+07
4.07631e+07
2.89363e+07
131749
2.72432e+07
5.90178e+07
6.42285e+07
7.18585e+07
1.72281e+07
9.48875e+06
2.00484e+07
1.83704e+07
2.10163e+07
7.57437e+07
6.42294e+07
6.68303e+07
6.59427e+07
200.801
762728
1.35728e+07
8.54067e+07
1.93383e+06
3.13078e+07
2.18269e+07
3.86047e+06
53471.5
3.04742e+07
1.67312e+07
1.72607e+07
4.18708e+07
2.2901e+07
2.28797e+07
1.61368e+07
5.80649e+07
5.80651e+07
6.33065e+07
6.94705e+07
515380
5.30943e+07
8.40625e+07
1.09249e+07
635269
2.87487e+07
2.8727e+07
3.73704e+07
3.96851e+07
3.39447e+06
5.31368e+07
2.80266e+07
1.17093e+06
5.40834e+07
9.58795e+07
4.99206e+06
3.06802e+07
5.14752e+07
5.12768e+07
2.36642e+06
8.30255e+07
3357.38
7.2385e+07
27206.1
2.90235e+07
2.14104e+07
1.3029e+07
8.39467e+07
45795.2
3.29417e+07
2.88483e+07
2.95018e+07
1.30129e+06
1.76623e+07
1.7402e+07
8.88742e+07
6.69875e+07
3.08996e+07
2.04764e+07
8.26358e+07
7.85754e+07
1.53057e+06
4.98921e+06
6.4516e+06
142506
4.02431e+06
6.46005e+07
2.34234e+07
2.3589e+07
2.58322e+07
1952.18
1.11102e+07
2.13095e+07
4.07016e+07
3.0342e+07
3.11765e+07
3.38242e+07
8.02136e+07
8.06325e+07
5.65357e+07
7.76051e+06
984472
5.78709e+07
2.83256e+07
7.89743e+07
8.55172e+07
4.49561e+07
1.30126e+07
3.16682e+07
3.1042e+07
2.63788e+07
3.33739e+07
5.08036e+07
6.34809e+06
2.79266e+07
5.6649e+06
1.36403e+07
7.02402e+07
6.22118e+06
4.59343e+06
2665.58
3.69455e+07
37394.4
5.14308e+07
4.8684e+07
3.02166e+07
3.19034e+06
6.73381e+06
2.19391e+07
2.19911e+07
9.68545e+07
1.98067e+07
83.9434
584752
5.55337e+07
5.56086e+07
2.09862e+07
151070
3.30414e+07
4.67517e+07
8.75457e+07
4.00109e+07
3.3111e+07
3.4837e+07
2.47201e+07
1.61509e+07
1.21253e+07
6.78921e+07
1.59515e+07
4.08457e+07
3.43522e+07
5050.92
3.37122e+07
7.67516e+07
6.11225e+07
2.07168e+07
1.60559e+06
5.79056e+07
6.00604e+06
7.86096e+06
1.81203e+07
6.18218e+06
665864
177539
2.95483e+07
3.64972e+07
5.65355e+07
9.71589e+06
4.98218e+06
4.6983e+06
1.18437e+07
4.26218e+07
551687
7.41649e+07
8.89695e+07
3.69585e+07
3957.57
1.06836e+07
1.3255e+07
8.18636e+06
1.50996e+07
1.4131e+07
7.58844e+06
7.37404e+07
3.92786e+07
135324
4.1897e+07
146283
3.81263e+07
3.45965e+07
2.3068e+07
1.22324e+07
90618.2
96.8723
9.61463e+06
1.78883e+06
3.52545e+07
4.0642e+07
5.10517e+07
5.80292e+07
9.33247e+06
9.42166e+06
5.56354e+07
1.03862e+06
5.4223e+07
7.35068e+07
1.98319e+06
3.5634e+07
7.39118e+07
2.71304e+07
2.98624e+07
4.14863e+06
151623
8.92014e+07
3.29581e+07
1.27263e+07
3.22159e+07
6.50675e+07
1.38474e+07
6.52437e+07
4025
8.50719e+07
1.93944e+07
9.63669e+06
6.35429e+07
1.12302e+07
9.9594e+06
5.62891e+06
1339.4
797798
1.77519e+07
8.35602e+06
1.80704e+07
2.01133e+07
8.31687e+07
2662.19
3.19172e+07
1.03717e+06
3.95883e+07
6.39156e+06
5.10401e+07
4.35054e+07
4.34886e+07
2.85388e+07
2.8567e+07
3335.28
1.14867e+07
14758.6
1.47092e+07
1.88261e+07
8.58266e+07
3.31731e+07
1.48593e+06
8.61239e+07
3.75997e+07
5.50528e+07
4.82969e+07
2.37008e+07
2.37268e+07
1.85842e+07
8402.61
13459
1.3004e+07
8.76789e+07
5.19334e+07
5.19296e+07
1.51284e+07
7.55958e+06
2.81818e+07
5.56469e+07
5.59598e+07
4.02982e+07
7.04281e+06
2.51773e+07
3.38586e+07
3.386e+07
1.40576e+07
660.174
3.40571e+07
3.75696e+07
146956
5.62842e+06
7.22048e+07
1.98887e+07
1.97311e+07
2.84864e+07
2.8215e+07
884.138
3.12923e+07
5.40362e+07
5.29397e+07
2.96128e+07
6.67903e+06
27789
7.18936e+07
8.72788e+07
9.97767e+06
118904
3.15068e+07
4.47366e+07
4.67879e+06
1.74932e+07
3.91459e+07
5.64196e+06
591026
1.71618e+07
6.79429e+07
7.36039e+07
22873.3
4.10881e+07
1.38824e+06
6.85226e+07
4.1077e+07
1.01901e+07
4940.11
8.10922e+07
2.2756e+07
2.2826e+07
242047
6.29048e+07
2.76517e+07
5.6188e+06
1.51482e+07
2.32794e+06
1.82019e+07
984568
17322
2.2459e+07
5.65725e+07
2.23879e+07
2.29796e+07
6.27036e+07
5.73301e+07
2.71755e+07
6.03561e+07
8722.11
1.29756e+07
2.01203e+07
8.10233e+07
2.25746e+07
2.74055e+07
1.27583e+07
86358
4.42462e+07
6.68547e+07
3.86541e+07
9.3774e+06
6.38662e+07
6.05945e+07
5.03608e+07
6.91679e+07
3.29747e+06
4.22147e+07
3.23366e+07
95796.9
8.73609e+06
1.41118e+07
4.10245e+07
5.27351e+07
3.24513e+06
8376.12
1.30518e+07
3.35383e+07
4.46068e+07
3.10933e+06
8.34637e+07
1.95011e+07
3.20769e+07
1.21507e+07
1.89013e+07
3.1286e+07
810523
1.11082e+07
4.88053e+07
6.9946e+07
1992
7.54083e+07
6.18976e+07
2.766e+07
781080
5.70453e+07
5.50306e+07
4.71915e+07
4.71055e+07
3.08089e+07
1.77273e+07
8.77861e+06
7.31866e+06
7.63726e+07
5.02138e+07
2.77432e+07
2.77439e+07
996428
2.73936e+07
9.02192e+06
119845
6.04269e+07
66948.5
5.64432e+06
19352.9
2.93564e+07
4.84641e+06
6.05539e+07
5.56057e+06
3.87158e+07
4.05851e+07
1.76285e+07
726161
27980.8
7.41772e+07
7.57144e+06
5.0978e+06
1.7832e+07
1.37242e+07
6.09131e+07
5.80761e+07
6.51271e+07
723740
7.29851e+06
1.52163e+07
1.80147e+07
6.69595e+06
2.01877e+07
1.45716e+07
2.0049e+07
4.5165e+06
9462.3
5.6098e+07
2.50082e+07
2.5513e+07
2.50398e+07
5.14427e+06
4.00086e+07
1.1399e+07
4.89772e+07
8.4178e+07
1.30243e+07
5954.23
8.27972e+06
4.4379e+06
6.08457e+07
6.95862e+07
2.73039e+07
5.08855e+07
4.1845e+07
3.82432e+07
76245.3
2.63662e+07
1.39211e+07
644284
315971
5.5378e+06
6.45175e+07
123010
1.11887e+07
6.36741e+07
4.6499e+07
8.72075e+06
2870.87
2.5033e+07
3.0381e+07
4.42436e+07
3.42918e+07
29688
4.16869e+07
1.78843e+07
2.5148e+07
1.12238e+07
4.52669e+07
5.66994e+07
4.4488e+07
6.10212e+07
2.43795e+07
77140.7
1.01432e+07
2110.68
1.70394e+07
2.08073e+07
5.37242e+06
6.25322e+07
8.25431e+07
3.78372e+07
7.89788e+07
1.11924e+06
1.27373e+07
798686
4.93647e+07
6.38355e+07
3.2251e+07
1.59265e+07
1.6055e+07
5.13865e+07
9792.95
1.73004e+07
358746
2.3808e+07
2.14425e+07
8.82239e+06
4.11742e+06
1.28683e+07
7.40708e+06
3.09163e+07
2.8513e+07
5.29539e+07
5.29489e+07
2.73625e+07
2.71728e+07
1.36746e+07
2.39329e+07
26080.1
4.79738e+07
2.78941e+07
324030
87496.4
5.53369e+07
2.70499e+07
6825.52
1.69326e+07
1.72051e+07
3.2632e+07
8.42867e+07
2.02678e+07
2.7332e+07
4.62264e+07
3.39086e+07
4.86878e+07
4.20289e+07
18506.4
78966.2
2.97232e+07
1.25547e+07
6.94771e+07
7.31843e+07
87027.5
3.06501e+07
3.38993e+07
3.38523e+07
3.05325e+07
3.844e+07
4.25263e+06
60780.3
1.26246e+07
5.29323e+07
729292
1.02011e+06
3.53474e+07
7.57065e+06
4.86032e+07
4.8624e+07
50606.3
530558
5.32275e+06
6.03104e+07
1.71793e+07
3.66155e+07
7.06944e+07
4.81057e+07
1.43454e+06
4.76804e+07
1.00196e+07
1.03288e+06
119054
241919
2961.12
7.29995e+06
1.16947e+07
815289
1.96863e+06
4.377e+07
1.34851e+07
1.43405e+07
2.66955e+07
6.65707e+06
4.32997e+07
6.55037e+06
7.34003e+07
7.37262e+07
5.08766e+07
6.73153e+06
2.88247e+07
3.66563e+07
6.69721e+07
4.02481e+06
3.85668e+06
4.82226e+06
6.40929e+07
2.51488e+07
4.83362e+07
1.39127e+07
1.3444e+07
3.88918e+07
6.0195e+07
3.67942e+07
5.85004e+07
1.9749e+07
1.97149e+07
4.15423e+07
7.45866e+06
3.12867e+07
1.11795e+07
2.73553e+07
895.994
8.55803e+06
6.62875e+07
17161.7
2.65192e+07
5.32573e+06
4.83672e+07
1.15824e+07
1.23442e+07
4.44781e+07
14622.8
4.72549e+07
6.63681e+07
4.50333e+07
1.25342e+07
66119.2
2.6541e+07
5.4633e+06
8.73658e+07
5.95323e+06
6.38293e+07
2.78526e+07
1.19093e+07
213867
2.13326e+06
2.13239e+06
5.06387e+07
1.13573e+07
1.99085e+07
5.06473e+07
5.27047e+07
5.37388e+07
5.03535e+07
4.6526e+07
23163.2
6.36157e+07
5.63887e+06
1.47651e+07
5.33611e+06
6.23042e+06
6.20221e+06
3818.25
8.49385e+06
2.42875e+06
2.8583e+06
3.19191e+07
7.32339e+07
36148.6
1854.69
3.72006e+06
661593
4.84427e+07
3.57837e+07
6.18681e+06
7.75063e+07
5.32657e+06
5.02613e+07
1.12094e+07
4.49513e+07
1.56137e+07
2.45056e+07
2.1452e+07
2.86467e+07
7.13354e+07
3.27866e+07
8.00359e+07
2.49844e+07
7.00535e+07
6.19638e+07
560667
6.14593e+07
1.46873e+07
2.51641e+07
1.24033e+07
2.68231e+07
5.97406e+06
4.79691e+07
3.7291e+07
126309
5.84544e+07
4.18936e+07
7.09635e+07
1345.58
3.41244e+07
1.53097e+07
8.43339e+07
1.56022e+07
8.39646e+07
7.10652e+07
8.90344e+06
2.01046e+07
5.42912e+07
376424
2.19219e+07
3.37997e+06
815142
6.00511e+07
1.57169e+07
5.32909e+06
5.06561e+07
4.13218e+07
4.09497e+07
1.63567e+07
1.22624e+07
4.27007e+07
6.48041e+07
8.34161e+07
7.66869e+07
4.46283e+07
8.29417e+07
295428
5.45495e+07
7.2402e+07
1.23704e+07
4.38515e+06
7.76504e+07
1.41317e+07
3.93037e+07
9.0712e+07
9.05375e+06
1.53149e+07
8.92938e+07
1.93528e+07
2.06872e+07
8.97647e+06
5.70644e+07
1.08231e+07
2.02084e+07
5.43544e+07
493251
1.29949e+07
1.67099e+07
1.68095e+07
1.85801e+07
4.19409e+07
4.7043e+07
5.46977e+06
1.44586e+07
6.68583e+07
4.78714e+07
738305
807258
4.51865e+06
1.56926e+06
7.70398e+07
6.22748e+07
5.87582e+07
1.04929e+07
6.30951e+07
2.70336e+07
3.18068e+07
604892
4.98311e+07
3.72296e+07
2.29692e+07
7.59205e+07
1.71499e+07
7.62304e+07
2.17497e+07
5.92579e+06
7.01277e+07
3.2456e+07
2.07453e+07
3.08092e+07
2.89982e+07
4.36744e+07
2.02971e+07
26966.1
3.50404e+07
5.26237e+07
4.91193e+07
620.699
4.8388e+06
4478.36
2.57203e+07
3.06388e+07
242829
3.07603e+06
383938
1.98758e+06
5.9341e+07
5.94493e+07
5.23578e+07
6903.68
1.91336e+06
7.59007e+06
1.1833e+07
4.52999e+07
224324
1.09875e+07
644404
3.49456e+07
6.54705e+06
899.234
1.80642e+06
1.27511e+07
8.47051e+07
5.41511e+07
5.42388e+07
2.81445e+07
4.57885e+07
4.2558e+07
4.10079e+07
8.26503e+07
8.0666e+07
2.11345e+07
1.0195e+07
2.17217e+07
7.00028e+07
3.89988e+07
2.84981e+07
1.61846e+06
8.68352e+07
1.48814e+07
3.5856e+07
2.99198e+07
1.24657e+07
6.83203e+06
1.16119e+07
4.12228e+07
5.40479e+07
6.89482e+07
2.44818e+07
4.35057e+06
8.97639e+07
7.97579e+06
2.09834e+07
9.95987e+06
4695.44
3.04726e+06
386.65
9.1895e+06
1.12045e+07
2.16821e+07
4.30804e+07
3.28044e+06
208777
6.9657e+07
1.92574e+07
3.04901e+06
1.14579e+06
8.47265e+07
8.80478e+07
3.63682e+07
2.11847e+07
29699.5
1.0896e+07
2.27158e+06
8.55649e+07
4.45497e+07
3.81875e+07
5.18149e+07
1.17171e+06
4.07915e+07
4.07394e+07
4.67299e+07
1.9365e+07
229173
2.35849e+07
710357
4.83417e+07
8.29202e+07
564692
5.9882e+07
4.83657e+07
6.2072e+07
3.83537e+07
4.856e+07
4.0874e+07
2.3547e+07
4.17568e+07
5.24727e+07
5.24394e+07
3027.22
1.61358e+06
1.59644e+06
2.99991e+07
7.37222e+07
3.889e+06
2.81966e+07
79035.9
5.52891e+07
1.28618e+06
514399
797.42
35348.2
1.86473e+06
5.06306e+07
6.32617e+07
2.80598e+07
3.98143e+07
5.88155e+07
2.24075e+07
9.06795e+06
5.18703e+07
4.52058e+07
6885.66
8.96865e+06
8.79481e+06
1.26873e+07
4.85546e+07
31650.6
3.53587e+06
7.04037e+07
18681
2.19831e+07
5.91579e+07
940160
1.07588e+07
3.14227e+07
2.01279e+06
1.42934e+07
81813.9
1.61878e+06
755174
3.97612e+07
1.74184e+07
722254
2.44856e+07
5.53907e+07
2.00881e+07
5.80428e+07
4.93905e+06
5.11536e+07
2.03756e+07
4.95512e+06
3.30266e+07
1.63797e+07
5.49629e+07
5.12645e+07
191950
7.81576e+06
1.25175e+07
1.25579e+07
4.67215e+07
5.12589e+07
1.64089e+07
7.3644e+07
3.56326e+07
540601
1.58922e+07
1.61361e+07
3.50894e+07
9.54057e+06
1.10164e+07
1743.69
1.11367e+07
4.67182e+07
4.66294e+07
2.93576e+07
8.39184e+07
5785.62
5.95579e+07
2.07809e+06
6.76273e+07
8.67489e+07
4171.63
96671.8
1.22204e+07
6.27059e+07
8.17256e+06
2.04764e+07
90495.6
4.87572e+07
9.19057e+07
4.11357e+07
13352.4
3.6585e+07
6.35893e+06
3.97499e+06
5.20574e+07
8.14127e+06
17439.5
1.44821e+07
2.9556e+07
7.68917e+06
8.82792e+06
4.51141e+07
7.21781e+07
3.60762e+07
3.0744e+07
5.87482e+07
5.34312e+07
2.20525e+07
3.61725e+07
9.05002e+06
3152.55
4.0943e+07
142090
3.88024e+07
3.90204e+07
3.34746e+07
5.40009e+06
7.33699e+07
4.30009e+07
4.3181e+07
4.37144e+07
6.71301e+06
60255.4
9.47809e+06
1.29835e+07
111594
2.87258e+07
4.69807e+06
77676.1
5.37418e+07
9.09076e+06
5.84618e+06
5.5718e+07
6.39668e+07
615992
8768.76
3.186e+07
5.85859e+06
214544
1.24691e+07
16430.4
7.84994e+07
2.18174e+07
2336.14
9.34356e+06
9.43734e+06
2.93722e+07
7.13314e+07
3.87245e+07
5507.54
53219.7
7.51921e+07
8.85854e+07
4.89485e+07
1.90315e+06
3.51419e+07
8.55928e+07
5.20292e+07
9.20314e+07
9.65452e+06
5.14122e+07
2.11223e+07
41076.9
2.91158e+07
5.97349e+07
5.61054e+07
5.7915e+07
751314
1.02464e+07
5.3172e+07
1.1434e+06
2.2292e+07
6.42899e+06
4.48767e+06
6.04394e+07
4.8607e+07
5.67308e+06
2.91743e+07
6.66975e+07
3.69867e+07
6.31567e+07
2.35585e+07
3.97637e+06
2.34675e+07
9134.83
4.5203e+07
417.137
2.93581e+07
5.73537e+07
4.38034e+07
1.19417e+07
7.76565e+07
2.17667e+07
2.6148e+07
1.98482e+07
4.94127e+07
8.66792e+07
1.78413e+07
9.36391e+07
4.39439e+07
4.32521e+07
3129.79
156072
8.88937e+07
49412.3
5.6835e+07
4236.7
4.47608e+06
5.06773e+07
39748.4
4.19027e+07
5.84564e+06
5.25135e+07
8.92638e+07
8.41851e+06
5.61104e+06
6453.03
6.1895e+06
1.1395e+07
3.96517e+07
3.95292e+07
13015
944716
36440.3
6.18226e+07
6.18343e+07
109110
6.99563e+06
5.4468e+07
7.23054e+07
2.84543e+07
696371
2.85418e+07
3.47058e+07
90522.6
5.50127e+07
7.5972e+07
4.53233e+06
3.33089e+07
574863
3.20414e+07
5.67343e+07
2.77242e+07
7.50811e+07
9.52761e+06
1.69932e+07
7.41258e+07
7.27487e+07
6.91752e+07
1.48573e+07
3.94815e+07
5.98833e+07
1.05579e+06
1.74439e+07
5.54351e+07
1.53572e+07
4.25689e+07
3.25992e+06
2.31799e+07
1.68304e+06
1.2656e+06
9.19624e+07
2.87374e+07
20279.4
9.34957e+07
49437.8
7.53119e+06
7.70994e+06
8.21964e+07
5.09249e+07
1.99265e+07
2.1183e+07
1144.56
4.05372e+07
1.77856e+07
5.99328e+07
1.79864e+07
4.37899e+07
23061.2
2.33926e+07
7.23153e+07
8.25839e+07
8.54161e+07
490669
3.99266e+07
3.17971e+07
3.6005e+06
8.42439e+06
2088.45
2.12688e+07
4.21367e+07
1.15387e+07
2.92415e+07
2.56519e+07
3.31943e+07
3.896e+07
75258.2
4406.74
2.90923e+07
2.7459e+07
8.86119e+06
232574
151964
5.31953e+06
7.08505e+07
5.11638e+07
9.41686e+07
6.99573e+07
7.01035e+07
2.8934e+07
806638
2.08894e+07
64858.7
5.61045e+07
3.00485e+07
3.94445e+07
4.12265e+07
4.45146e+07
3.26625e+07
2.86201e+06
8.48803e+07
4.14417e+06
4.52889e+07
5.7681e+07
5.08978e+07
5.80601e+06
2.85593e+07
2.84967e+07
1.27406e+07
5.32309e+07
47734.4
1.98717e+06
1.26111e+06
7.01045e+07
2.29416e+07
6.1644e+07
7.19354e+07
1.74121e+07
1.72184e+07
8.63918e+07
5.39475e+07
1.8497e+07
3.05545e+07
3.00045e+07
5.85656e+07
3.18011e+07
3.96608e+07
1.73017e+07
8.1944e+07
800.265
5.93983e+07
7.53502e+07
2.81496e+07
104980
219377
36626.1
9.72917e+06
8.51989e+07
3.5595e+07
7.53622e+07
2.48398e+07
5.65711e+07
9.28886e+06
9.37488e+06
5.70555e+06
9.04335e+06
4723.91
2.48356e+07
1.38033e+07
174988
3.45069e+06
3169.81
2.13336e+07
1.32294e+07
4.59026e+07
6289.6
6.17291e+07
6.16991e+07
7.0058e+06
6.20676e+07
2.97861e+07
5.91524e+07
5.98957e+07
4.23485e+07
4.20109e+07
331655
170356
5994.94
5.12769e+06
245170
1.65136e+07
4.75661e+07
7.74612e+07
3.07227e+06
1.8084e+07
535625
6.86267e+07
1.69312e+07
8.75271e+07
4.4718e+07
8.25045e+07
2.45144e+07
1.21426e+07
7.49465e+07
821800
4.70099e+07
9.58678e+06
7.51483e+07
2.04413e+07
8.353e+06
4.20907e+06
6.24166e+07
2.88662e+07
4956.35
7.7585e+07
2.75214e+07
3.02853e+07
6.25896e+07
2.15456e+07
5.51392e+07
242013
9.65152e+06
2.34762e+07
2.31501e+06
4.33971e+07
1.08261e+07
5409.97
7.37159e+07
4.35989e+07
451552
877158
5.25659e+07
3.94058e+07
1.43991e+07
1.14107e+07
5.59735e+06
9.27282e+07
1.00162e+07
3.12501e+07
4.72008e+07
3.77825e+07
2.26229e+07
3700.26
7.16029e+07
4.11722e+06
1.49591e+07
4.25595e+07
5.22522e+07
8.88899e+06
9.03938e+07
557041
3.1534e+07
3.83875e+07
609617
2.77542e+07
8460.37
2.52547e+07
7.36225e+07
971094
2.04329e+07
8.15812e+06
1.78991e+07
1.78737e+07
5.69761e+06
16405.7
5.0271e+06
3.68986e+06
5.84853e+07
1.09535e+07
1.13709e+07
5.65488e+07
1.06641e+06
5.35282e+07
7.1186e+06
3.01534e+06
118640
7.91587e+07
4.74565e+07
7.5243e+07
2.05505e+07
4.07724e+06
1.47981e+07
1.23395e+07
1.86031e+07
2.51156e+07
1.84203e+07
765180
2.95338e+07
2.95075e+07
1.61247e+07
1.56333e+07
8.7708e+07
3.75259e+07
1.60125e+07
1.03565e+07
6.13638e+07
3.34547e+07
3.35224e+07
2.67756e+07
5.91558e+07
1.36663e+07
1.80082e+07
933272
115750
4.54955e+06
1.26744e+06
2.91976e+07
4.84013e+07
4.34604e+06
2.39585e+07
8.40764e+07
4.53548e+06
4.72665e+07
947890
1.72378e+07
3.0027e+07
5.57452e+07
5.10244e+07
5.05891e+07
535720
3.61146e+07
1.81772e+07
2.91495e+07
7.06138e+06
9.30747e+06
1.02759e+07
6.96084e+07
143546
8.19514e+07
590395
1.37541e+07
2.34522e+07
5.9166e+07
1.44959e+07
1.21967e+07
6.84322e+07
2.14709e+07
4.54875e+06
5.03401e+07
2.66923e+07
2.66449e+07
2.19468e+06
6.84783e+06
223655
4.95786e+07
1.77072e+06
2.88317e+07
2.88344e+07
5.20793e+06
2.33233e+07
6.63443e+07
5.17373e+07
3435.25
8.24915e+07
2.27481e+07
2.32552e+07
8.56274e+06
2.54912e+07
6.38427e+07
2.72624e+07
2.72522e+07
3.59365e+07
90151.4
1.17557e+07
6.08259e+06
517731
3.70398e+06
6.16094e+07
930880
4.17191e+07
1.55195e+07
3.95885e+06
6.55025e+07
2.93845e+07
91142.8
1.04738e+07
5.77914e+07
4.53348e+06
4.92181e+07
1.79698e+07
1.15971e+06
4.17759e+07
1.03859e+07
3.13514e+07
1.80767e+07
2.16999e+07
6.98528e+06
7.99523e+07
8.32676e+07
93585.5
2.08808e+07
2.38409e+07
5718.96
4.30522e+07
2.43396e+07
4.57617e+07
3.2751e+07
3.17314e+07
56282.4
2.05536e+07
1.41846e+07
2.53088e+07
4.98314e+07
3.08979e+07
3.82358e+07
500802
5.65677e+07
8.9881e+07
4.69333e+07
1.71759e+07
8195.08
7.40077e+06
1.742e+07
9.05715e+07
2.25206e+07
2.25956e+07
6.00282e+07
1.59317e+07
746160
1.7478e+06
6.46595e+07
5.45422e+07
2.32606e+07
9.30955e+07
1.26183e+07
125991
1.40644e+06
5.12453e+07
1.30904e+06
2.03188e+07
2.09861e+07
4.73795e+07
38809.4
119628
2.97306e+07
1.55079e+07
5.26775e+07
4.78297e+06
3.9349e+07
2189.13
1.77733e+07
2.51749e+07
3.78427e+07
9.6287e+07
6.57967e+07
8.22419e+07
1.72574e+07
2.60565e+07
3.72579e+07
8.17218e+07
2.68755e+07
1.57261e+07
4.15315e+07
2.24483e+07
2.6174e+07
4.77378e+07
4.77178e+07
8.83739e+07
5.35492e+07
5.34637e+06
965340
4.68196e+06
5.12397e+07
9.70312e+06
866011
1.04142e+07
331850
4.16437e+07
535657
1.20988e+07
9.18024e+07
2.09419e+07
616220
2.63399e+07
4.74099e+07
131861
7.19098e+07
1794.45
6.20824e+06
2.77925e+07
1.94302e+07
108952
2.01373e+07
127701
4.59479e+06
8.50061e+06
6.56971e+06
8.01068e+06
3.33729e+07
3.74745e+07
1.56242e+07
1.03248e+07
2.69976e+07
106616
5880.25
1.6311e+07
7.7386e+07
6.24063e+07
85951.9
1.44588e+07
7.01018e+07
52706.4
2.8067e+07
5.34945e+07
3.77514e+07
1.84302e+07
5.14797e+06
6.82521e+06
1.84031e+07
6.93236e+07
1.15237e+06
658572
2.62932e+07
97637.2
4.5042e+06
38416.1
2.82737e+07
2.03287e+07
7.53559e+07
7.30441e+06
441.914
10974.7
3.18046e+07
2.44697e+07
3.00181e+07
3.50322e+07
4.87232e+07
49578.9
2.1102e+06
4269.95
5.8147e+07
5.13073e+07
1.0296e+07
1.58528e+07
2.91292e+07
9.20324e+07
919837
4.14191e+06
2.93678e+07
7.67152e+07
2.47642e+07
6.14021e+06
6.92203e+07
335.483
6.30155e+07
4.2993e+07
8.52435e+06
2.3804e+07
3.85805e+07
3.63994e+07
1.74299e+07
3.89498e+07
7.98377e+06
158135
5.47695e+07
221869
5.67991e+07
2.64521e+07
3.20373e+06
4.77234e+07
6.90245e+07
1.62253e+07
8.0573e+06
5.57176e+07
118743
4.72067e+06
17284.8
24910.9
453369
6.12189e+07
1.68747e+07
1.60007e+07
4.40831e+07
5.00596e+07
2.52565e+07
4.63257e+06
4.95434e+07
2.51467e+07
3.98091e+07
1977.23
18600.6
2.79902e+06
6.87971e+07
8.2739e+06
6.62286e+06
1.70075e+07
7.3988e+07
4.83116e+07
8239.1
6.82903e+07
2.77561e+07
4.62242e+06
3.39614e+07
7.06995e+07
6.07228e+06
158385
3.91605e+07
3.27449e+07
1.83697e+07
1.34656e+07
8.82825e+07
8.10412e+07
4.80874e+07
4.01639e+07
4.34482e+07
4.87266e+06
8.8913e+07
1.82594e+07
3.95305e+06
1.23297e+07
1.77295e+07
2.8096e+07
2.5966e+07
1.63901e+07
8.81163e+07
4.22702e+07
4.21602e+07
6.47944e+07
2.22116e+06
1.49862e+06
5.05745e+07
2.70588e+07
3.40894e+07
120868
45615.1
2.89886e+07
2.18051e+07
4.65574e+07
1.13146e+06
130103
613129
2.09748e+07
1.83433e+07
7.67108e+07
2.56824e+07
3.58845e+07
17064.4
5.26251e+07
5.41982e+06
62125.7
7.68093e+07
2.03894e+06
9.23767e+07
3.45313e+07
1.65561e+07
7.558e+07
1.36086e+06
5.12909e+07
5.13238e+07
4.85069e+06
6.36397e+07
3.83541e+07
6.62296e+07
5.34431e+07
4.59353e+07
4.59115e+07
5.34394e+07
5.31756e+07
9.6083e+07
2.45322e+07
2.46928e+07
8.13609e+07
5.84872e+07
5.85573e+07
8.10987e+07
680188
222352
5.70196e+07
7.25215e+06
4.8845e+07
4.87984e+07
8.70119e+07
5.22196e+06
2.62059e+07
3.71597e+07
2.26236e+07
1.06371e+07
1.80164e+07
16644.5
8.91302e+06
2.7819e+07
1.81509e+07
3.87396e+06
2.52227e+07
6.02219e+07
8.33612e+07
3.24163e+07
3.82567e+07
1.92517e+07
8.36066e+07
8.31306e+07
2.30341e+06
4.71845e+07
3.27531e+07
1.88572e+07
4.10791e+07
3.84531e+07
1.25525e+07
4.00752e+06
22050.3
8.54613e+07
4.31776e+07
6.9468e+07
6.07902e+07
4.01408e+07
4.0127e+07
14109
3545
3.9985e+07
3.2438e+07
4.28788e+07
5.79842e+07
49230.7
8.54526e+07
2.80987e+07
5.96989e+06
2.66439e+07
1.47346e+07
2.09594e+07
7.77601e+07
4.14958e+07
5.12678e+07
6.0817e+07
4.39582e+07
4.91497e+06
1.61613e+07
5.7288e+07
5.31045e+06
1.62151e+07
1.80876e+07
7.92427e+07
40386.8
597991
5.82593e+07
7.15071e+06
2.89275e+07
4.5476e+07
58819.4
8.51117e+06
8.89337e+07
6.25662e+07
1.8985e+07
1.3156e+07
2.64196e+07
3.36801e+06
3.30514e+06
3.44262e+07
7.85522e+07
6.94723e+06
9.07488e+07
9.04448e+07
215666
23121.8
17722.9
2.90941e+07
8.057e+07
2.04351e+06
1.37367e+07
1.3395e+07
2.80611e+07
1.68953e+07
1.16861e+07
982790
3.12445e+07
652070
2.56425e+07
2.5629e+07
3.02692e+07
4.9431e+07
7.37119e+06
5.54353e+07
4.0501e+06
4.84422e+06
4.59619e+07
2.6442e+07
3.07573e+07
5.54008e+07
1.31255e+07
3.00522e+07
2.54217e+07
2.34408e+07
134684
8.22448e+07
233369
1.0729e+06
6.291e+07
8.94677e+07
347419
3.68038e+07
3.84687e+07
2.76994e+07
9.70603e+06
19928
969216
53947.2
3.27864e+07
1.70988e+06
1.74996e+07
2.1811e+07
8.94111e+06
4.74074e+07
125673
5.50665e+07
3.86943e+07
6.45098e+07
6.44928e+07
7.09201e+06
5.69596e+07
7.50732e+07
5.44983e+07
1.75164e+07
2.17981e+07
23967.8
5.59819e+07
4.66054e+07
1.80153e+07
3.10309e+07
6.0712e+07
5.66082e+07
8.34982e+07
2.8197e+07
7.57355e+07
4572.41
1.94785e+07
3.63329e+07
9875.15
331681
3.63792e+07
803452
23611.6
1.01651e+07
1.64113e+07
1.00239e+07
5.94206e+07
2.43022e+07
1.11826e+07
831631
4.19603e+07
5.65724e+07
3.77164e+07
5.26801e+07
6.7069e+07
6.28517e+06
1.56073e+07
1.43285e+07
2.71827e+07
1.54905e+07
1.42359e+07
2.23038e+07
2.86944e+07
2.87787e+07
5.26049e+07
1.42641e+07
7.93869e+07
9.34466e+07
1.25672e+07
4.291e+07
3.65793e+07
2499.63
4.95938e+06
8.15975e+06
5.8701e+06
1.11531e+07
2.80325e+06
409638
2.74677e+07
1.67291e+06
9.61687e+06
1.03428e+08
581045
1.94219e+07
5.02116e+07
1.16208e+06
978384
3470.83
625676
7.35806e+07
6.68072e+06
44222.2
9.50157e+06
7.64701e+06