0 	27.2515 	-2.37281e-07 	-1.40594e-18
0.000254254 	27.2557 	-2.34332e-07 	3.70528e-17
0.000508509 	27.2599 	-2.34332e-07 	3.70525e-17
0.000762763 	27.2641 	-2.34332e-07 	3.70523e-17
0.00101702 	27.2683 	-2.34332e-07 	3.7052e-17
0.00127127 	27.2725 	-2.34332e-07 	3.70517e-17
0.00152553 	27.2766 	-2.34332e-07 	3.70515e-17
0.00177978 	27.2808 	-2.34332e-07 	3.70512e-17
0.00203403 	27.285 	-2.34332e-07 	3.70509e-17
0.00228829 	27.2892 	-2.34332e-07 	3.70506e-17
0.00254254 	27.2934 	-2.34332e-07 	3.70504e-17
0.0027968 	27.3026 	-2.37935e-07 	3.64585e-17
0.00305105 	27.3123 	-2.37935e-07 	3.64579e-17
0.00330531 	27.3219 	-2.37935e-07 	3.64573e-17
0.00355956 	27.3316 	-2.37935e-07 	3.64566e-17
0.00381381 	27.3413 	-2.37935e-07 	3.6456e-17
0.00406807 	27.351 	-2.37935e-07 	3.64554e-17
0.00432232 	27.3606 	-2.37935e-07 	3.64548e-17
0.00457658 	27.3703 	-2.37935e-07 	3.64542e-17
0.00483083 	27.38 	-2.37935e-07 	3.64535e-17
0.00508509 	27.3897 	-2.37935e-07 	3.64529e-17
0.00533934 	27.4006 	-2.56945e-07 	9.59695e-17
0.00559359 	27.4117 	-2.56945e-07 	9.59688e-17
0.00584785 	27.4229 	-2.56945e-07 	9.5968e-17
0.0061021 	27.434 	-2.56945e-07 	9.59673e-17
0.00635636 	27.4452 	-2.56945e-07 	9.59666e-17
0.00661061 	27.4563 	-2.56945e-07 	9.59659e-17
0.00686486 	27.4674 	-2.56945e-07 	9.59652e-17
0.00711912 	27.4786 	-2.56945e-07 	9.59645e-17
0.00737337 	27.4897 	-2.56945e-07 	9.59637e-17
0.00762763 	27.5009 	-2.56945e-07 	9.5963e-17
0.00788188 	27.5124 	-2.90186e-07 	9.40026e-17
0.00813614 	27.524 	-2.90186e-07 	9.40018e-17
0.00839039 	27.5356 	-2.90186e-07 	9.40011e-17
0.00864464 	27.5472 	-2.90186e-07 	9.40003e-17
0.0088989 	27.5588 	-2.90186e-07 	9.39996e-17
0.00915315 	27.5704 	-2.90186e-07 	9.39988e-17
0.00940741 	27.582 	-2.90186e-07 	9.39981e-17
0.00966166 	27.5936 	-2.90186e-07 	9.39974e-17
0.00991592 	27.6052 	-2.90186e-07 	9.39966e-17
0.0101702 	27.6168 	-2.90186e-07 	9.39959e-17
0.0104244 	27.629 	-3.34042e-07 	1.45871e-16
0.0106787 	27.6415 	-3.34042e-07 	1.4587e-16
0.0109329 	27.654 	-3.34042e-07 	1.45869e-16
0.0111872 	27.6665 	-3.34042e-07 	1.45868e-16
0.0114414 	27.679 	-3.34042e-07 	1.45867e-16
0.0116957 	27.6915 	-3.34042e-07 	1.45867e-16
0.0119499 	27.704 	-3.34042e-07 	1.45866e-16
0.0122042 	27.7165 	-3.34042e-07 	1.45865e-16
0.0124585 	27.729 	-3.34042e-07 	1.45864e-16
0.0127127 	27.7414 	-3.34042e-07 	1.45863e-16
0.012967 	27.7547 	-3.85671e-07 	1.99392e-16
0.0132212 	27.7687 	-3.85671e-07 	1.99391e-16
0.0134755 	27.7827 	-3.85671e-07 	1.9939e-16
0.0137297 	27.7967 	-3.85671e-07 	1.99389e-16
0.013984 	27.8106 	-3.85671e-07 	1.99388e-16
0.0142382 	27.8246 	-3.85671e-07 	1.99388e-16
0.0144925 	27.8386 	-3.85671e-07 	1.99387e-16
0.0147467 	27.8525 	-3.85671e-07 	1.99386e-16
0.015001 	27.8665 	-3.85671e-07 	1.99385e-16
0.0152553 	27.8805 	-3.85671e-07 	1.99384e-16
0.0155095 	27.8954 	-4.43114e-07 	1.99504e-16
0.0157638 	27.9113 	-4.43114e-07 	1.99502e-16
0.016018 	27.9272 	-4.43114e-07 	1.99501e-16
0.0162723 	27.9432 	-4.43114e-07 	1.995e-16
0.0165265 	27.9591 	-4.43114e-07 	1.99499e-16
0.0167808 	27.975 	-4.43114e-07 	1.99498e-16
0.017035 	27.991 	-4.43114e-07 	1.99497e-16
0.0172893 	28.0069 	-4.43114e-07 	1.99496e-16
0.0175435 	28.0228 	-4.43114e-07 	1.99495e-16
0.0177978 	28.0388 	-4.43114e-07 	1.99494e-16
0.0180521 	28.0555 	-5.04992e-07 	2.01401e-16
0.0183063 	28.0738 	-5.04992e-07 	2.014e-16
0.0185606 	28.092 	-5.04992e-07 	2.01399e-16
0.0188148 	28.1103 	-5.04992e-07 	2.01398e-16
0.0190691 	28.1285 	-5.04992e-07 	2.01397e-16
0.0193233 	28.1467 	-5.04992e-07 	2.01395e-16
0.0195776 	28.165 	-5.04992e-07 	2.01394e-16
0.0198318 	28.1832 	-5.04992e-07 	2.01393e-16
0.0200861 	28.2015 	-5.04992e-07 	2.01392e-16
0.0203403 	28.2197 	-5.04992e-07 	2.01391e-16
0.0205946 	28.2386 	-5.70238e-07 	2.03471e-16
0.0208488 	28.2594 	-5.70238e-07 	2.03469e-16
0.0211031 	28.2802 	-5.70238e-07 	2.03468e-16
0.0213574 	28.3009 	-5.70238e-07 	2.03467e-16
0.0216116 	28.3217 	-5.70238e-07 	2.03465e-16
0.0218659 	28.3425 	-5.70238e-07 	2.03464e-16
0.0221201 	28.3633 	-5.70238e-07 	2.03463e-16
0.0223744 	28.384 	-5.70238e-07 	2.03461e-16
0.0226286 	28.4048 	-5.70238e-07 	2.0346e-16
0.0228829 	28.4256 	-5.70238e-07 	2.03459e-16
0.0231371 	28.4468 	-6.37212e-07 	2.06147e-16
0.0233914 	28.4703 	-6.37212e-07 	2.06146e-16
0.0236456 	28.4938 	-6.37212e-07 	2.06144e-16
0.0238999 	28.5172 	-6.37212e-07 	2.06143e-16
0.0241542 	28.5407 	-6.37212e-07 	2.06141e-16
0.0244084 	28.5642 	-6.37212e-07 	2.0614e-16
0.0246627 	28.5876 	-6.37212e-07 	2.06138e-16
0.0249169 	28.6111 	-6.37212e-07 	2.06137e-16
0.0251712 	28.6346 	-6.37212e-07 	2.06135e-16
0.0254254 	28.658 	-6.37212e-07 	2.06134e-16
0.0256797 	28.6818 	-7.04638e-07 	2.09729e-16
0.0259339 	28.7081 	-7.04638e-07 	2.09727e-16
0.0261882 	28.7343 	-7.04638e-07 	2.09726e-16
0.0264424 	28.7606 	-7.04638e-07 	2.09724e-16
0.0266967 	28.7869 	-7.04638e-07 	2.09722e-16
0.026951 	28.8132 	-7.04638e-07 	2.09721e-16
0.0272052 	28.8395 	-7.04638e-07 	2.09719e-16
0.0274595 	28.8658 	-7.04638e-07 	2.09717e-16
0.0277137 	28.8921 	-7.04638e-07 	2.09715e-16
0.027968 	28.9184 	-7.04638e-07 	2.09714e-16
0.0282222 	28.9447 	-8.25537e-07 	-2.39191e-18
0.0284765 	28.9739 	-7.73393e-07 	2.14233e-16
0.0287307 	29.0032 	-7.73393e-07 	2.14231e-16
0.028985 	29.0324 	-7.73393e-07 	2.14229e-16
0.0292392 	29.0617 	-7.73393e-07 	2.14227e-16
0.0294935 	29.0909 	-7.73393e-07 	2.14225e-16
0.0297477 	29.1201 	-7.73393e-07 	2.14223e-16
0.030002 	29.1494 	-7.73393e-07 	2.14222e-16
0.0302563 	29.1786 	-7.73393e-07 	2.1422e-16
0.0305105 	29.2079 	-7.73393e-07 	2.14218e-16
0.0307648 	29.2371 	-7.73393e-07 	2.14216e-16
0.031019 	29.2691 	-8.44009e-07 	2.71114e-16
0.0312733 	29.3014 	-8.44009e-07 	2.71112e-16
0.0315275 	29.3338 	-8.44009e-07 	2.7111e-16
0.0317818 	29.3661 	-8.44009e-07 	2.71108e-16
0.032036 	29.3984 	-8.44009e-07 	2.71106e-16
0.0322903 	29.4307 	-8.44009e-07 	2.71104e-16
0.0325445 	29.463 	-8.44009e-07 	2.71102e-16
0.0327988 	29.4953 	-8.44009e-07 	2.711e-16
0.0330531 	29.5276 	-8.44009e-07 	2.71097e-16
0.0333073 	29.5599 	-8.44009e-07 	2.71095e-16
0.0335616 	29.5948 	-9.16756e-07 	2.25884e-16
0.0338158 	29.6303 	-9.16756e-07 	2.25882e-16
0.0340701 	29.6657 	-9.16756e-07 	2.2588e-16
0.0343243 	29.7012 	-9.16756e-07 	2.25878e-16
0.0345786 	29.7367 	-9.16756e-07 	2.25875e-16
0.0348328 	29.7722 	-9.16756e-07 	2.25873e-16
0.0350871 	29.8077 	-9.16756e-07 	2.25871e-16
0.0353413 	29.8431 	-9.16756e-07 	2.25868e-16
0.0355956 	29.8786 	-9.16756e-07 	2.25866e-16
0.0358498 	29.9141 	-9.16756e-07 	2.25864e-16
0.0361041 	29.952 	-9.91709e-07 	2.87247e-16
0.0363584 	29.9907 	-9.91709e-07 	2.87244e-16
0.0366126 	30.0295 	-9.91709e-07 	2.87242e-16
0.0368669 	30.0682 	-9.91709e-07 	2.87239e-16
0.0371211 	30.107 	-9.91709e-07 	2.87237e-16
0.0373754 	30.1458 	-9.91709e-07 	2.87234e-16
0.0376296 	30.1845 	-9.91709e-07 	2.87232e-16
0.0378839 	30.2233 	-9.91709e-07 	2.87229e-16
0.0381381 	30.262 	-9.91709e-07 	2.87227e-16
0.0383924 	30.3008 	-9.91709e-07 	2.87224e-16
0.0386466 	30.3417 	-1.06868e-06 	3.45426e-16
0.0389009 	30.3839 	-1.06868e-06 	3.45423e-16
0.0391552 	30.4261 	-1.06868e-06 	3.45421e-16
0.0394094 	30.4682 	-1.06868e-06 	3.45418e-16
0.0396637 	30.5104 	-1.06868e-06 	3.45415e-16
0.0399179 	30.5526 	-1.06868e-06 	3.45413e-16
0.0401722 	30.5947 	-1.06868e-06 	3.4541e-16
0.0404264 	30.6369 	-1.06868e-06 	3.45407e-16
0.0406807 	30.6791 	-1.06868e-06 	3.45404e-16
0.0409349 	30.7212 	-1.06868e-06 	3.45402e-16
0.0411892 	30.7653 	-1.14733e-06 	4.10586e-16
0.0414434 	30.811 	-1.14733e-06 	4.10583e-16
0.0416977 	30.8567 	-1.14733e-06 	4.1058e-16
0.041952 	30.9024 	-1.14733e-06 	4.10577e-16
0.0422062 	30.9481 	-1.14733e-06 	4.10574e-16
0.0424605 	30.9938 	-1.14733e-06 	4.10571e-16
0.0427147 	31.0395 	-1.14733e-06 	4.10568e-16
0.042969 	31.0852 	-1.14733e-06 	4.10565e-16
0.0432232 	31.1309 	-1.14733e-06 	4.10562e-16
0.0434775 	31.1766 	-1.14733e-06 	4.10559e-16
0.0437317 	31.224 	-1.2273e-06 	4.12341e-16
0.043986 	31.2733 	-1.2273e-06 	4.12338e-16
0.0442402 	31.3227 	-1.2273e-06 	4.12335e-16
0.0444945 	31.3721 	-1.2273e-06 	4.12331e-16
0.0447487 	31.4215 	-1.2273e-06 	4.12328e-16
0.045003 	31.4708 	-1.2273e-06 	4.12325e-16
0.0452573 	31.5202 	-1.2273e-06 	4.12322e-16
0.0455115 	31.5696 	-1.2273e-06 	4.12319e-16
0.0457658 	31.619 	-1.2273e-06 	4.12316e-16
0.04602 	31.6683 	-1.2273e-06 	4.12312e-16
0.0462743 	31.7191 	-1.30826e-06 	3.68282e-16
0.0465285 	31.7723 	-1.30826e-06 	3.68279e-16
0.0467828 	31.8255 	-1.30826e-06 	3.68275e-16
0.047037 	31.8787 	-1.30826e-06 	3.68272e-16
0.0472913 	31.9319 	-1.30826e-06 	3.68268e-16
0.0475455 	31.9851 	-1.30826e-06 	3.68265e-16
0.0477998 	32.0384 	-1.30826e-06 	3.68261e-16
0.0480541 	32.0916 	-1.30826e-06 	3.68258e-16
0.0483083 	32.1448 	-1.30826e-06 	3.68255e-16
0.0485626 	32.198 	-1.30826e-06 	3.68251e-16
0.0488168 	32.2523 	-1.38985e-06 	3.22051e-16
0.0490711 	32.3095 	-1.38985e-06 	3.22048e-16
0.0493253 	32.3667 	-1.38985e-06 	3.22044e-16
0.0495796 	32.4239 	-1.38985e-06 	3.2204e-16
0.0498338 	32.4811 	-1.38985e-06 	3.22036e-16
0.0500881 	32.5384 	-1.38985e-06 	3.22033e-16
0.0503423 	32.5956 	-1.38985e-06 	3.22029e-16
0.0505966 	32.6528 	-1.38985e-06 	3.22025e-16
0.0508509 	32.71 	-1.38985e-06 	3.22022e-16
0.0511051 	32.7672 	-1.38985e-06 	3.22018e-16
0.0513594 	32.8252 	-1.47169e-06 	3.41727e-16
0.0516136 	32.8866 	-1.47169e-06 	3.41723e-16
0.0518679 	32.948 	-1.47169e-06 	3.41719e-16
0.0521221 	33.0094 	-1.47169e-06 	3.41715e-16
0.0523764 	33.0708 	-1.47169e-06 	3.41711e-16
0.0526306 	33.1322 	-1.47169e-06 	3.41707e-16
0.0528849 	33.1936 	-1.47169e-06 	3.41703e-16
0.0531391 	33.255 	-1.47169e-06 	3.417e-16
0.0533934 	33.3164 	-1.47169e-06 	3.41696e-16
0.0536476 	33.3778 	-1.47169e-06 	3.41692e-16
0.0539019 	33.4396 	-1.55336e-06 	3.06831e-16
0.0541562 	33.5053 	-1.55336e-06 	3.06826e-16
0.0544104 	33.5711 	-1.55336e-06 	3.06822e-16
0.0546647 	33.6369 	-1.55336e-06 	3.06818e-16
0.0549189 	33.7026 	-1.55336e-06 	3.06814e-16
0.0551732 	33.7684 	-1.55336e-06 	3.0681e-16
0.0554274 	33.8342 	-1.55336e-06 	3.06805e-16
0.0556817 	33.8999 	-1.55336e-06 	3.06801e-16
0.0559359 	33.9657 	-1.55336e-06 	3.06797e-16
0.0561902 	34.0314 	-1.55336e-06 	3.06793e-16
0.0564444 	34.0972 	-1.81144e-06 	-2.03829e-18
0.0566987 	34.1675 	-1.63439e-06 	3.31092e-16
0.056953 	34.2378 	-1.63439e-06 	3.31087e-16
0.0572072 	34.3081 	-1.63439e-06 	3.31083e-16
0.0574615 	34.3784 	-1.63439e-06 	3.31078e-16
0.0577157 	34.4487 	-1.63439e-06 	3.31074e-16
0.05797 	34.519 	-1.63439e-06 	3.31069e-16
0.0582242 	34.5893 	-1.63439e-06 	3.31065e-16
0.0584785 	34.6596 	-1.63439e-06 	3.3106e-16
0.0587327 	34.73 	-1.63439e-06 	3.31056e-16
0.058987 	34.8003 	-1.63439e-06 	3.31051e-16
0.0592412 	34.8748 	-1.71424e-06 	3.51346e-16
0.0594955 	34.9499 	-1.71424e-06 	3.51341e-16
0.0597497 	35.0249 	-1.71424e-06 	3.51336e-16
0.060004 	35.0999 	-1.71424e-06 	3.51331e-16
0.0602583 	35.1749 	-1.71424e-06 	3.51326e-16
0.0605125 	35.2499 	-1.71424e-06 	3.51321e-16
0.0607668 	35.3249 	-1.71424e-06 	3.51317e-16
0.061021 	35.3999 	-1.71424e-06 	3.51312e-16
0.0612753 	35.475 	-1.71424e-06 	3.51307e-16
0.0615295 	35.55 	-1.71424e-06 	3.51302e-16
0.0617838 	35.629 	-1.79226e-06 	4.32078e-16
0.062038 	35.7088 	-1.79226e-06 	4.32073e-16
0.0622923 	35.7887 	-1.79226e-06 	4.32067e-16
0.0625465 	35.8686 	-1.79226e-06 	4.32062e-16
0.0628008 	35.9485 	-1.79226e-06 	4.32057e-16
0.0630551 	36.0283 	-1.79226e-06 	4.32052e-16
0.0633093 	36.1082 	-1.79226e-06 	4.32047e-16
0.0635636 	36.1881 	-1.79226e-06 	4.32042e-16
0.0638178 	36.268 	-1.79226e-06 	4.32037e-16
0.0640721 	36.3478 	-1.79226e-06 	4.32032e-16
0.0643263 	36.4313 	-1.86774e-06 	3.94094e-16
0.0645806 	36.5162 	-1.86774e-06 	3.94088e-16
0.0648348 	36.6011 	-1.86774e-06 	3.94083e-16
0.0650891 	36.6859 	-1.86774e-06 	3.94077e-16
0.0653433 	36.7708 	-1.86774e-06 	3.94072e-16
0.0655976 	36.8557 	-1.86774e-06 	3.94066e-16
0.0658519 	36.9405 	-1.86774e-06 	3.94061e-16
0.0661061 	37.0254 	-1.86774e-06 	3.94055e-16
0.0663604 	37.1103 	-1.86774e-06 	3.9405e-16
0.0666146 	37.1951 	-1.86774e-06 	3.94044e-16
0.0668689 	37.2833 	-1.94025e-06 	3.96787e-16
0.0671231 	37.3732 	-1.94025e-06 	3.96781e-16
0.0673774 	37.4632 	-1.94025e-06 	3.96776e-16
0.0676316 	37.5531 	-1.94025e-06 	3.9677e-16
0.0678859 	37.6431 	-1.94025e-06 	3.96764e-16
0.0681401 	37.7331 	-1.94025e-06 	3.96758e-16
0.0683944 	37.823 	-1.94025e-06 	3.96752e-16
0.0686486 	37.913 	-1.94025e-06 	3.96747e-16
0.0689029 	38.003 	-1.94025e-06 	3.96741e-16
0.0691572 	38.0929 	-1.94025e-06 	3.96735e-16
0.0694114 	38.1857 	-2.00777e-06 	4.05741e-16
0.0696657 	38.2808 	-2.00777e-06 	4.05735e-16
0.0699199 	38.376 	-2.00777e-06 	4.05729e-16
0.0701742 	38.4711 	-2.00777e-06 	4.05723e-16
0.0704284 	38.5663 	-2.00777e-06 	4.05716e-16
0.0706827 	38.6614 	-2.00777e-06 	4.0571e-16
0.0709369 	38.7566 	-2.00777e-06 	4.05704e-16
0.0711912 	38.8517 	-2.00777e-06 	4.05698e-16
0.0714454 	38.9468 	-2.00777e-06 	4.05692e-16
0.0716997 	39.042 	-2.00777e-06 	4.05686e-16
0.071954 	39.1395 	-2.05774e-06 	4.19325e-16
0.0722082 	39.2399 	-2.05774e-06 	4.19319e-16
0.0724625 	39.3403 	-2.05774e-06 	4.19312e-16
0.0727167 	39.4406 	-2.05774e-06 	4.19306e-16
0.072971 	39.541 	-2.05774e-06 	4.19299e-16
0.0732252 	39.6414 	-2.05774e-06 	4.19293e-16
0.0734795 	39.7418 	-2.05774e-06 	4.19287e-16
0.0737337 	39.8421 	-2.05774e-06 	4.1928e-16
0.073988 	39.9425 	-2.05774e-06 	4.19274e-16
0.0742422 	40.0429 	-2.05774e-06 	4.19267e-16
0.0744965 	40.1452 	-2.08724e-06 	4.36036e-16
0.0747508 	40.2507 	-2.08724e-06 	4.36029e-16
0.075005 	40.3563 	-2.08724e-06 	4.36022e-16
0.0752593 	40.4619 	-2.08724e-06 	4.36016e-16
0.0755135 	40.5674 	-2.08724e-06 	4.36009e-16
0.0757678 	40.673 	-2.08724e-06 	4.36002e-16
0.076022 	40.7786 	-2.08724e-06 	4.35995e-16
0.0762763 	40.8842 	-2.08724e-06 	4.35988e-16
0.0765305 	40.9897 	-2.08724e-06 	4.35982e-16
0.0767848 	41.0953 	-2.08724e-06 	4.35975e-16
0.077039 	41.2022 	-2.11489e-06 	3.84705e-16
0.0772933 	41.3128 	-2.11489e-06 	3.84698e-16
0.0775475 	41.4234 	-2.11489e-06 	3.84691e-16
0.0778018 	41.534 	-2.11489e-06 	3.84684e-16
0.0780561 	41.6446 	-2.11489e-06 	3.84677e-16
0.0783103 	41.7552 	-2.11489e-06 	3.8467e-16
0.0785646 	41.8658 	-2.11489e-06 	3.84663e-16
0.0788188 	41.9765 	-2.11489e-06 	3.84655e-16
0.0790731 	42.0871 	-2.11489e-06 	3.84648e-16
0.0793273 	42.1977 	-2.11489e-06 	3.84641e-16
0.0795816 	42.3091 	-2.13946e-06 	3.49137e-16
0.0798358 	42.4245 	-2.13946e-06 	3.4913e-16
0.0800901 	42.5399 	-2.13946e-06 	3.49122e-16
0.0803443 	42.6553 	-2.13946e-06 	3.49115e-16
0.0805986 	42.7708 	-2.13946e-06 	3.49108e-16
0.0808529 	42.8862 	-2.13946e-06 	3.491e-16
0.0811071 	43.0016 	-2.13946e-06 	3.49093e-16
0.0813614 	43.117 	-2.13946e-06 	3.49085e-16
0.0816156 	43.2324 	-2.13946e-06 	3.49078e-16
0.0818699 	43.3478 	-2.13946e-06 	3.4907e-16
0.0821241 	43.4636 	-2.15474e-06 	3.13505e-16
0.0823784 	43.5836 	-2.15474e-06 	3.13497e-16
0.0826326 	43.7035 	-2.15474e-06 	3.13489e-16
0.0828869 	43.8235 	-2.15474e-06 	3.13482e-16
0.0831411 	43.9435 	-2.15474e-06 	3.13474e-16
0.0833954 	44.0635 	-2.15474e-06 	3.13466e-16
0.0836496 	44.1834 	-2.15474e-06 	3.13458e-16
0.0839039 	44.3034 	-2.15474e-06 	3.13451e-16
0.0841582 	44.4234 	-2.15474e-06 	3.13443e-16
0.0844124 	44.5433 	-2.15474e-06 	3.13435e-16
0.0846667 	44.6633 	-2.85621e-06 	-1.84188e-18
0.0849209 	44.7876 	-2.1561e-06 	3.20573e-16
0.0851752 	44.9118 	-2.1561e-06 	3.20565e-16
0.0854294 	45.0361 	-2.1561e-06 	3.20557e-16
0.0856837 	45.1603 	-2.1561e-06 	3.20549e-16
0.0859379 	45.2846 	-2.1561e-06 	3.20541e-16
0.0861922 	45.4088 	-2.1561e-06 	3.20533e-16
0.0864464 	45.533 	-2.1561e-06 	3.20525e-16
0.0867007 	45.6573 	-2.1561e-06 	3.20517e-16
0.086955 	45.7815 	-2.1561e-06 	3.20509e-16
0.0872092 	45.9058 	-2.1561e-06 	3.20501e-16
0.0874635 	46.0335 	-2.14462e-06 	3.25058e-16
0.0877177 	46.1616 	-2.14462e-06 	3.2505e-16
0.087972 	46.2897 	-2.14462e-06 	3.25042e-16
0.0882262 	46.4177 	-2.14462e-06 	3.25034e-16
0.0884805 	46.5458 	-2.14462e-06 	3.25026e-16
0.0887347 	46.6739 	-2.14462e-06 	3.25017e-16
0.088989 	46.802 	-2.14462e-06 	3.25009e-16
0.0892432 	46.9301 	-2.14462e-06 	3.25001e-16
0.0894975 	47.0581 	-2.14462e-06 	3.24993e-16
0.0897518 	47.1862 	-2.14462e-06 	3.24984e-16
0.090006 	47.3169 	-2.14893e-06 	3.27123e-16
0.0902603 	47.4481 	-2.14893e-06 	3.27114e-16
0.0905145 	47.5794 	-2.14893e-06 	3.27106e-16
0.0907688 	47.7107 	-2.14893e-06 	3.27097e-16
0.091023 	47.8419 	-2.14893e-06 	3.27089e-16
0.0912773 	47.9732 	-2.14893e-06 	3.2708e-16
0.0915315 	48.1044 	-2.14893e-06 	3.27072e-16
0.0917858 	48.2357 	-2.14893e-06 	3.27063e-16
0.09204 	48.3669 	-2.14893e-06 	3.27055e-16
0.0922943 	48.4982 	-2.14893e-06 	3.27047e-16
0.0925485 	48.6312 	-2.13357e-06 	3.27255e-16
0.0928028 	48.7648 	-2.13357e-06 	3.27246e-16
0.0930571 	48.8985 	-2.13357e-06 	3.27237e-16
0.0933113 	49.0321 	-2.13357e-06 	3.27229e-16
0.0935656 	49.1658 	-2.13357e-06 	3.2722e-16
0.0938198 	49.2994 	-2.13357e-06 	3.27212e-16
0.0940741 	49.4331 	-2.13357e-06 	3.27203e-16
0.0943283 	49.5667 	-2.13357e-06 	3.27194e-16
0.0945826 	49.7004 	-2.13357e-06 	3.27186e-16
0.0948368 	49.834 	-2.13357e-06 	3.27177e-16
0.0950911 	49.9686 	-2.09093e-06 	2.4901e-16
0.0953453 	50.1036 	-2.09093e-06 	2.49001e-16
0.0955996 	50.2387 	-2.09093e-06 	2.48993e-16
0.0958539 	50.3737 	-2.09093e-06 	2.48984e-16
0.0961081 	50.5087 	-2.09093e-06 	2.48975e-16
0.0963624 	50.6438 	-2.09093e-06 	2.48967e-16
0.0966166 	50.7788 	-2.09093e-06 	2.48958e-16
0.0968709 	50.9139 	-2.09093e-06 	2.48949e-16
0.0971251 	51.0489 	-2.09093e-06 	2.48941e-16
0.0973794 	51.184 	-2.09093e-06 	2.48932e-16
0.0976336 	51.3191 	-2.02499e-06 	3.27757e-16
0.0978879 	51.4543 	-2.02499e-06 	3.27748e-16
0.0981421 	51.5896 	-2.02499e-06 	3.2774e-16
0.0983964 	51.7248 	-2.02499e-06 	3.27731e-16
0.0986507 	51.86 	-2.02499e-06 	3.27722e-16
0.0989049 	51.9952 	-2.02499e-06 	3.27713e-16
0.0991592 	52.1305 	-2.02499e-06 	3.27705e-16
0.0994134 	52.2657 	-2.02499e-06 	3.27696e-16
0.0996677 	52.4009 	-2.02499e-06 	3.27687e-16
0.0999219 	52.5362 	-2.02499e-06 	3.27679e-16
0.100176 	52.6709 	-1.90799e-06 	3.79738e-16
0.10043 	52.805 	-1.90799e-06 	3.79729e-16
0.100685 	52.9391 	-1.90799e-06 	3.7972e-16
0.100939 	53.0732 	-1.90799e-06 	3.79712e-16
0.101193 	53.2073 	-1.90799e-06 	3.79703e-16
0.101447 	53.3414 	-1.90799e-06 	3.79694e-16
0.101702 	53.4755 	-1.90799e-06 	3.79686e-16
0.101956 	53.6096 	-1.90799e-06 	3.79677e-16
0.10221 	53.7437 	-1.90799e-06 	3.79669e-16
0.102464 	53.8778 	-1.90799e-06 	3.7966e-16
0.102719 	54.011 	-1.7592e-06 	3.90109e-16
0.102973 	54.1425 	-1.7592e-06 	3.90101e-16
0.103227 	54.2741 	-1.7592e-06 	3.90092e-16
0.103481 	54.4056 	-1.7592e-06 	3.90084e-16
0.103736 	54.5372 	-1.7592e-06 	3.90075e-16
0.10399 	54.6687 	-1.7592e-06 	3.90067e-16
0.104244 	54.8003 	-1.7592e-06 	3.90059e-16
0.104498 	54.9318 	-1.7592e-06 	3.9005e-16
0.104753 	55.0634 	-1.7592e-06 	3.90042e-16
0.105007 	55.195 	-1.7592e-06 	3.90033e-16
0.105261 	55.3254 	-1.5941e-06 	4.6282e-16
0.105516 	55.4529 	-1.5941e-06 	4.62812e-16
0.10577 	55.5804 	-1.5941e-06 	4.62804e-16
0.106024 	55.7079 	-1.5941e-06 	4.62796e-16
0.106278 	55.8354 	-1.5941e-06 	4.62787e-16
0.106533 	55.9628 	-1.5941e-06 	4.62779e-16
0.106787 	56.0903 	-1.5941e-06 	4.62771e-16
0.107041 	56.2178 	-1.5941e-06 	4.62763e-16
0.107295 	56.3453 	-1.5941e-06 	4.62755e-16
0.10755 	56.4728 	-1.5941e-06 	4.62746e-16
0.107804 	56.5992 	-1.40688e-06 	4.97937e-16
0.108058 	56.7211 	-1.40688e-06 	4.97929e-16
0.108312 	56.8429 	-1.40688e-06 	4.97921e-16
0.108567 	56.9647 	-1.40688e-06 	4.97914e-16
0.108821 	57.0866 	-1.40688e-06 	4.97906e-16
0.109075 	57.2084 	-1.40688e-06 	4.97898e-16
0.109329 	57.3302 	-1.40688e-06 	4.9789e-16
0.109584 	57.4521 	-1.40688e-06 	4.97882e-16
0.109838 	57.5739 	-1.40688e-06 	4.97874e-16
0.110092 	57.6957 	-1.40688e-06 	4.97867e-16
0.110346 	57.8169 	-1.16758e-06 	4.35712e-16
0.110601 	57.9314 	-1.16758e-06 	4.35705e-16
0.110855 	58.0458 	-1.16758e-06 	4.35697e-16
0.111109 	58.1603 	-1.16758e-06 	4.3569e-16
0.111363 	58.2748 	-1.16758e-06 	4.35683e-16
0.111618 	58.3893 	-1.16758e-06 	4.35675e-16
0.111872 	58.5038 	-1.16758e-06 	4.35668e-16
0.112126 	58.6183 	-1.16758e-06 	4.35661e-16
0.11238 	58.7327 	-1.16758e-06 	4.35653e-16
0.112635 	58.8472 	-1.16758e-06 	4.35646e-16
0.112889 	58.9617 	-1.9759e-06 	-1.92097e-18
0.113143 	59.0671 	-9.10247e-07 	4.25314e-16
0.113397 	59.1725 	-9.10247e-07 	4.25307e-16
0.113652 	59.2778 	-9.10247e-07 	4.25301e-16
0.113906 	59.3832 	-9.10247e-07 	4.25294e-16
0.11416 	59.4886 	-9.10247e-07 	4.25287e-16
0.114414 	59.594 	-9.10247e-07 	4.2528e-16
0.114669 	59.6994 	-9.10247e-07 	4.25274e-16
0.114923 	59.8047 	-9.10247e-07 	4.25267e-16
0.115177 	59.9101 	-9.10247e-07 	4.2526e-16
0.115431 	60.0155 	-9.10247e-07 	4.25253e-16
0.115686 	60.1111 	-6.44246e-07 	4.18637e-16
0.11594 	60.2057 	-6.44246e-07 	4.18631e-16
0.116194 	60.3003 	-6.44246e-07 	4.18625e-16
0.116448 	60.3949 	-6.44246e-07 	4.18619e-16
0.116703 	60.4895 	-6.44246e-07 	4.18613e-16
0.116957 	60.5841 	-6.44246e-07 	4.18606e-16
0.117211 	60.6787 	-6.44246e-07 	4.186e-16
0.117465 	60.7733 	-6.44246e-07 	4.18594e-16
0.11772 	60.868 	-6.44246e-07 	4.18588e-16
0.117974 	60.9626 	-6.44246e-07 	4.18582e-16
0.118228 	61.0472 	-3.73513e-07 	4.16563e-16
0.118482 	61.1296 	-3.73513e-07 	4.16558e-16
0.118737 	61.212 	-3.73513e-07 	4.16553e-16
0.118991 	61.2944 	-3.73513e-07 	4.16547e-16
0.119245 	61.3768 	-3.73513e-07 	4.16542e-16
0.119499 	61.4592 	-3.73513e-07 	4.16537e-16
0.119754 	61.5416 	-3.73513e-07 	4.16532e-16
0.120008 	61.624 	-3.73513e-07 	4.16526e-16
0.120262 	61.7064 	-3.73513e-07 	4.16521e-16
0.120517 	61.7889 	-3.73513e-07 	4.16516e-16
0.120771 	61.8616 	-9.03767e-08 	4.16342e-16
0.121025 	61.9307 	-9.03767e-08 	4.16338e-16
0.121279 	61.9999 	-9.03767e-08 	4.16333e-16
0.121534 	62.069 	-9.03767e-08 	4.16329e-16
0.121788 	62.1382 	-9.03767e-08 	4.16324e-16
0.122042 	62.2073 	-9.03767e-08 	4.1632e-16
0.122296 	62.2764 	-9.03767e-08 	4.16315e-16
0.122551 	62.3456 	-9.03767e-08 	4.16311e-16
0.122805 	62.4147 	-9.03767e-08 	4.16307e-16
0.123059 	62.4838 	-9.03767e-08 	4.16302e-16
0.123313 	62.5442 	1.9467e-07 	4.14821e-16
0.123568 	62.5995 	1.9467e-07 	4.14818e-16
0.123822 	62.6548 	1.9467e-07 	4.14814e-16
0.124076 	62.7101 	1.9467e-07 	4.14811e-16
0.12433 	62.7654 	1.9467e-07 	4.14807e-16
0.124585 	62.8208 	1.9467e-07 	4.14804e-16
0.124839 	62.8761 	1.9467e-07 	4.148e-16
0.125093 	62.9314 	1.9467e-07 	4.14797e-16
0.125347 	62.9867 	1.9467e-07 	4.14793e-16
0.125602 	63.042 	1.9467e-07 	4.14789e-16
0.125856 	63.0898 	4.51932e-07 	4.09526e-16
0.12611 	63.1314 	4.51932e-07 	4.09523e-16
0.126364 	63.1729 	4.51932e-07 	4.0952e-16
0.126619 	63.2145 	4.51932e-07 	4.09518e-16
0.126873 	63.256 	4.51932e-07 	4.09515e-16
0.127127 	63.2975 	4.51932e-07 	4.09512e-16
0.127381 	63.3391 	4.51932e-07 	4.0951e-16
0.127636 	63.3806 	4.51932e-07 	4.09507e-16
0.12789 	63.4222 	4.51932e-07 	4.09504e-16
0.128144 	63.4637 	4.51932e-07 	4.09502e-16
0.128398 	63.4994 	6.74468e-07 	3.99663e-16
0.128653 	63.5279 	6.74468e-07 	3.99661e-16
0.128907 	63.5564 	6.74468e-07 	3.99659e-16
0.129161 	63.5849 	6.74468e-07 	3.99658e-16
0.129415 	63.6134 	6.74468e-07 	3.99656e-16
0.12967 	63.6419 	6.74468e-07 	3.99654e-16
0.129924 	63.6704 	6.74468e-07 	3.99652e-16
0.130178 	63.699 	6.74468e-07 	3.9965e-16
0.130432 	63.7275 	6.74468e-07 	3.99648e-16
0.130687 	63.756 	6.74468e-07 	3.99647e-16
0.130941 	63.7802 	8.61079e-07 	3.85171e-16
0.131195 	63.797 	8.61079e-07 	3.8517e-16
0.131449 	63.8138 	8.61079e-07 	3.85169e-16
0.131704 	63.8306 	8.61079e-07 	3.85168e-16
0.131958 	63.8474 	8.61079e-07 	3.85167e-16
0.132212 	63.8642 	8.61079e-07 	3.85165e-16
0.132466 	63.881 	8.61079e-07 	3.85164e-16
0.132721 	63.8978 	8.61079e-07 	3.85163e-16
0.132975 	63.9146 	8.61079e-07 	3.85162e-16
0.133229 	63.9314 	8.61079e-07 	3.85161e-16
0.133483 	63.9454 	1.01358e-06 	3.66448e-16
0.133738 	63.9521 	1.01358e-06 	3.66448e-16
0.133992 	63.9587 	1.01358e-06 	3.66447e-16
0.134246 	63.9654 	1.01358e-06 	3.66447e-16
0.134501 	63.9721 	1.01358e-06 	3.66446e-16
0.134755 	63.9787 	1.01358e-06 	3.66446e-16
0.135009 	63.9854 	1.01358e-06 	3.66445e-16
0.135263 	63.9921 	1.01358e-06 	3.66445e-16
0.135518 	63.9988 	1.01358e-06 	3.66445e-16
0.135772 	64.0054 	1.01358e-06 	3.66444e-16
0.136026 	64.0106 	1.14007e-06 	4.21098e-16
0.13628 	64.0087 	1.14007e-06 	4.21098e-16
0.136535 	64.0068 	1.14007e-06 	4.21098e-16
0.136789 	64.0049 	1.14007e-06 	4.21099e-16
0.137043 	64.0031 	1.14007e-06 	4.21099e-16
0.137297 	64.0012 	1.14007e-06 	4.21099e-16
0.137552 	63.9993 	1.14007e-06 	4.21099e-16
0.137806 	63.9975 	1.14007e-06 	4.21099e-16
0.13806 	63.9956 	1.14007e-06 	4.21099e-16
0.138314 	63.9937 	1.14007e-06 	4.21099e-16
0.138569 	63.9912 	1.253e-06 	3.21666e-16
0.138823 	63.9821 	1.253e-06 	3.21666e-16
0.139077 	63.973 	1.253e-06 	3.21667e-16
0.139331 	63.9639 	1.253e-06 	3.21667e-16
0.139586 	63.9548 	1.253e-06 	3.21668e-16
0.13984 	63.9457 	1.253e-06 	3.21669e-16
0.140094 	63.9366 	1.253e-06 	3.21669e-16
0.140348 	63.9275 	1.253e-06 	3.2167e-16
0.140603 	63.9184 	1.253e-06 	3.2167e-16
0.140857 	63.9093 	1.253e-06 	3.21671e-16
0.141111 	63.9003 	5.84921e-07 	-3.10156e-18
0.141365 	63.8849 	1.35911e-06 	2.97364e-16
0.14162 	63.8695 	1.35911e-06 	2.97365e-16
0.141874 	63.8541 	1.35911e-06 	2.97366e-16
0.142128 	63.8388 	1.35911e-06 	2.97367e-16
0.142382 	63.8234 	1.35911e-06 	2.97368e-16
0.142637 	63.808 	1.35911e-06 	2.97369e-16
0.142891 	63.7927 	1.35911e-06 	2.9737e-16
0.143145 	63.7773 	1.35911e-06 	2.97371e-16
0.143399 	63.7619 	1.35911e-06 	2.97372e-16
0.143654 	63.7465 	1.35911e-06 	2.97373e-16
0.143908 	63.726 	1.459e-06 	1.93226e-16
0.144162 	63.705 	1.459e-06 	1.93227e-16
0.144416 	63.6839 	1.459e-06 	1.93228e-16
0.144671 	63.6629 	1.459e-06 	1.9323e-16
0.144925 	63.6418 	1.459e-06 	1.93231e-16
0.145179 	63.6208 	1.459e-06 	1.93232e-16
0.145433 	63.5997 	1.459e-06 	1.93234e-16
0.145688 	63.5787 	1.459e-06 	1.93235e-16
0.145942 	63.5576 	1.459e-06 	1.93236e-16
0.146196 	63.5366 	1.459e-06 	1.93238e-16
0.14645 	63.5112 	1.55232e-06 	9.18032e-17
0.146705 	63.4848 	1.55232e-06 	9.18049e-17
0.146959 	63.4584 	1.55232e-06 	9.18066e-17
0.147213 	63.4321 	1.55232e-06 	9.18083e-17
0.147467 	63.4057 	1.55232e-06 	9.181e-17
0.147722 	63.3793 	1.55232e-06 	9.18117e-17
0.147976 	63.353 	1.55232e-06 	9.18134e-17
0.14823 	63.3266 	1.55232e-06 	9.18151e-17
0.148484 	63.3002 	1.55232e-06 	9.18168e-17
0.148739 	63.2739 	1.55232e-06 	9.18185e-17
0.148993 	63.2438 	1.63827e-06 	6.21254e-17
0.149247 	63.2124 	1.63827e-06 	6.21275e-17
0.149502 	63.181 	1.63827e-06 	6.21295e-17
0.149756 	63.1496 	1.63827e-06 	6.21315e-17
0.15001 	63.1181 	1.63827e-06 	6.21335e-17
0.150264 	63.0867 	1.63827e-06 	6.21355e-17
0.150519 	63.0553 	1.63827e-06 	6.21376e-17
0.150773 	63.0239 	1.63827e-06 	6.21396e-17
0.151027 	62.9925 	1.63827e-06 	6.21416e-17
0.151281 	62.961 	1.63827e-06 	6.21436e-17
0.151536 	62.9266 	1.71592e-06 	2.97389e-17
0.15179 	62.8904 	1.71592e-06 	2.97413e-17
0.152044 	62.8541 	1.71592e-06 	2.97436e-17
0.152298 	62.8179 	1.71592e-06 	2.97459e-17
0.152553 	62.7817 	1.71592e-06 	2.97482e-17
0.152807 	62.7455 	1.71592e-06 	2.97506e-17
0.153061 	62.7093 	1.71592e-06 	2.97529e-17
0.153315 	62.6731 	1.71592e-06 	2.97552e-17
0.15357 	62.6369 	1.71592e-06 	2.97576e-17
0.153824 	62.6006 	1.71592e-06 	2.97599e-17
0.154078 	62.562 	1.7843e-06 	-8.18438e-19
0.154332 	62.5212 	1.7843e-06 	-8.1582e-19
0.154587 	62.4805 	1.7843e-06 	-8.13202e-19
0.154841 	62.4398 	1.7843e-06 	-8.10583e-19
0.155095 	62.3991 	1.7843e-06 	-8.07965e-19
0.155349 	62.3583 	1.7843e-06 	-8.05347e-19
0.155604 	62.3176 	1.7843e-06 	-8.02729e-19
0.155858 	62.2769 	1.7843e-06 	-8.00111e-19
0.156112 	62.2362 	1.7843e-06 	-7.97492e-19
0.156366 	62.1954 	1.7843e-06 	-7.94874e-19
0.156621 	62.1528 	1.84287e-06 	-3.00112e-17
0.156875 	62.1079 	1.84287e-06 	-3.00083e-17
0.157129 	62.063 	1.84287e-06 	-3.00054e-17
0.157383 	62.0181 	1.84287e-06 	-3.00025e-17
0.157638 	61.9732 	1.84287e-06 	-2.99997e-17
0.157892 	61.9283 	1.84287e-06 	-2.99968e-17
0.158146 	61.8834 	1.84287e-06 	-2.99939e-17
0.1584 	61.8385 	1.84287e-06 	-2.9991e-17
0.158655 	61.7936 	1.84287e-06 	-2.99881e-17
0.158909 	61.7487 	1.84287e-06 	-2.99852e-17
0.159163 	61.7024 	1.89138e-06 	2.43521e-17
0.159417 	61.6537 	1.89138e-06 	2.43552e-17
0.159672 	61.605 	1.89138e-06 	2.43584e-17
0.159926 	61.5563 	1.89138e-06 	2.43615e-17
0.16018 	61.5076 	1.89138e-06 	2.43646e-17
0.160434 	61.4589 	1.89138e-06 	2.43678e-17
0.160689 	61.4101 	1.89138e-06 	2.43709e-17
0.160943 	61.3614 	1.89138e-06 	2.4374e-17
0.161197 	61.3127 	1.89138e-06 	2.43771e-17
0.161451 	61.264 	1.89138e-06 	2.43803e-17
0.161706 	61.2144 	1.92931e-06 	8.66116e-17
0.16196 	61.1623 	1.92931e-06 	8.66149e-17
0.162214 	61.1101 	1.92931e-06 	8.66183e-17
0.162468 	61.058 	1.92931e-06 	8.66216e-17
0.162723 	61.0059 	1.92931e-06 	8.6625e-17
0.162977 	60.9538 	1.92931e-06 	8.66283e-17
0.163231 	60.9016 	1.92931e-06 	8.66317e-17
0.163485 	60.8495 	1.92931e-06 	8.6635e-17
0.16374 	60.7974 	1.92931e-06 	8.66384e-17
0.163994 	60.7453 	1.92931e-06 	8.66417e-17
0.164248 	60.6926 	1.95597e-06 	5.84432e-17
0.164503 	60.6375 	1.95597e-06 	5.84467e-17
0.164757 	60.5824 	1.95597e-06 	5.84503e-17
0.165011 	60.5272 	1.95597e-06 	5.84538e-17
0.165265 	60.4721 	1.95597e-06 	5.84574e-17
0.16552 	60.417 	1.95597e-06 	5.84609e-17
0.165774 	60.3619 	1.95597e-06 	5.84644e-17
0.166028 	60.3068 	1.95597e-06 	5.8468e-17
0.166282 	60.2516 	1.95597e-06 	5.84715e-17
0.166537 	60.1965 	1.95597e-06 	5.84751e-17
0.166791 	60.1411 	1.9707e-06 	3.50711e-17
0.167045 	60.0834 	1.9707e-06 	3.50748e-17
0.167299 	60.0257 	1.9707e-06 	3.50785e-17
0.167554 	59.968 	1.9707e-06 	3.50822e-17
0.167808 	59.9103 	1.9707e-06 	3.50859e-17
0.168062 	59.8526 	1.9707e-06 	3.50896e-17
0.168316 	59.7949 	1.9707e-06 	3.50934e-17
0.168571 	59.7372 	1.9707e-06 	3.50971e-17
0.168825 	59.6795 	1.9707e-06 	3.51008e-17
0.169079 	59.6218 	1.9707e-06 	3.51045e-17
0.169333 	59.5641 	1.41528e-06 	-3.57711e-18