/*--------------------------------*- C++ -*----------------------------------*\
| =========                 |                                                 |
| \\      /  F ield         | OpenFOAM: The Open Source CFD Toolbox           |
|  \\    /   O peration     | Version:  v3.0+                                 |
|   \\  /    A nd           | Web:      www.OpenFOAM.com                      |
|    \\/     M anipulation  |                                                 |
\*---------------------------------------------------------------------------*/
FoamFile
{
    version     2.0;
    format      ascii;
    class       volScalarField;
    location    "13000";
    object      sigmayz;
}
// * * * * * * * * * * * * * * * * * * * * * * * * * * * * * * * * * * * * * //

dimensions      [1 -1 -2 0 0 0 0];

internalField   nonuniform List<scalar> 
27023
(
-2.14441e-14
-1.81158e-13
-2.10201e-13
1.62591e-13
0
1.65276e-13
-4.35084e-12
-1.0497e-12
7.16391e-14
-1.38755e-13
1.22214e-12
-5.59563e-13
-1.42488e-13
-3.83286e-14
3.42966e-12
-7.69577e-13
-3.91097e-13
0
-1.93644e-12
0
1.04051e-12
-1.07851e-12
-3.21796e-12
-1.49063e-12
-2.46425e-13
-5.55975e-13
2.88313e-13
2.2014e-11
7.35326e-13
6.53551e-12
-5.37363e-12
-2.12774e-12
4.22112e-12
2.31178e-12
4.20097e-12
2.0982e-12
-1.49319e-12
2.98632e-12
-1.83144e-13
-1.31196e-13
-6.84296e-14
2.70772e-14
-5.57312e-12
-1.42501e-13
-1.4237e-13
-1.48437e-12
-2.26117e-12
1.86266e-12
1.86275e-12
1.23891e-12
-1.11321e-12
-1.89276e-13
1.10632e-12
2.47657e-14
8.59361e-14
3.63843e-12
7.88608e-12
3.39569e-12
2.04084e-12
3.70558e-13
-2.3963e-13
7.22429e-12
-1.78134e-12
2.30599e-11
-1.77062e-11
1.06111e-12
-5.67281e-12
1.99189e-13
-9.41829e-13
-2.49605e-12
0
-5.16671e-12
2.81797e-12
3.75513e-12
7.4337e-12
3.63311e-12
7.00811e-14
6.27665e-14
7.08805e-12
4.6981e-12
1.89884e-12
-2.9153e-12
-2.28889e-12
1.17961e-12
3.95295e-12
-1.7388e-12
1.47339e-12
-5.80483e-13
-4.3395e-13
2.79772e-12
4.65411e-11
1.35854e-13
-1.6197e-13
7.09887e-13
-1.1384e-13
-3.12221e-12
6.32364e-13
7.4553e-13
-3.92744e-12
7.13802e-12
-7.60172e-12
1.92463e-11
3.5601e-11
1.54286e-12
1.16829e-12
-2.57319e-13
2.15762e-14
-1.23982e-12
-1.69978e-12
-8.96143e-12
-4.41652e-12
1.65833e-12
3.93832e-13
5.27771e-12
2.23833e-12
2.90916e-12
4.60072e-12
1.91366e-13
5.1045e-14
-7.54402e-13
-5.74963e-13
-1.49327e-12
-7.7175e-13
-2.37741e-12
3.24917e-12
6.47938e-13
2.45917e-13
2.74444e-13
5.12736e-13
2.91667e-12
9.24558e-12
6.2921e-14
3.42009e-14
-1.50634e-13
-4.4009e-12
-1.10815e-11
2.52207e-12
1.74358e-12
-5.8147e-12
-3.70812e-12
-1.43591e-12
3.6203e-12
-2.34252e-12
2.51283e-12
-5.87439e-13
4.44604e-12
-1.35047e-12
3.68984e-12
3.23274e-12
4.28643e-13
-1.53505e-13
-1.22732e-12
-4.07661e-13
-5.4482e-12
-6.29169e-13
9.80939e-13
8.69131e-12
-5.37008e-12
-9.29401e-12
-2.54627e-12
4.14903e-12
-1.48984e-12
3.58884e-12
-1.15137e-11
-4.81457e-13
4.40318e-13
-8.22168e-13
-2.30646e-12
-1.71131e-12
3.16339e-12
4.90105e-11
6.17054e-12
4.61565e-13
4.22992e-11
0
3.47023e-12
-9.83065e-12
-1.75331e-12
7.07824e-12
1.56616e-13
3.33964e-12
-3.56742e-12
2.78823e-12
-6.87455e-12
2.33346e-12
-4.14519e-14
2.29905e-12
3.06937e-12
1.37378e-11
-7.27514e-12
-3.52537e-12
-1.01036e-12
2.58931e-12
-1.19065e-11
-1.25915e-12
2.96324e-12
8.09422e-14
9.45083e-13
-7.52363e-13
2.92186e-13
4.02307e-12
1.78449e-13
-7.60395e-13
7.12092e-12
0
2.35188e-13
1.26225e-12
-3.52021e-12
-6.43542e-12
5.3267e-12
0
1.43989e-15
5.63063e-14
-7.27518e-13
2.20588e-14
8.62333e-14
-2.14762e-12
-4.04648e-13
3.22955e-12
1.8973e-12
-5.64801e-12
-5.63808e-12
1.22753e-12
-8.34152e-14
-1.44196e-11
-1.82486e-12
4.05297e-12
-2.71167e-12
-3.18116e-12
-1.44532e-13
1.35366e-13
-1.63097e-11
-5.54045e-12
-9.89628e-13
-2.64518e-12
4.15792e-12
3.56783e-12
-1.21351e-11
-4.76961e-12
5.09788e-12
5.09816e-12
-1.37804e-12
2.21058e-12
1.02031e-11
1.75847e-12
-4.82947e-13
-1.22583e-11
-6.58802e-13
9.53959e-12
-3.35372e-12
-2.42166e-12
-5.08353e-12
3.80685e-13
3.05551e-13
1.1427e-12
-3.00624e-12
0
-4.55511e-12
-3.48496e-13
-2.26431e-12
-3.70201e-13
1.02184e-12
6.56218e-12
-4.12126e-13
-4.92617e-12
6.76245e-12
-1.55617e-12
3.87516e-12
-7.50394e-13
1.72878e-13
-2.11376e-13
-1.18412e-12
3.35883e-12
3.58866e-12
1.61802e-12
-1.04355e-11
-1.52656e-13
1.18224e-13
-7.20988e-12
-9.11217e-12
-3.92249e-12
4.94564e-12
-2.74255e-11
-7.54919e-13
-2.29581e-14
2.23721e-14
-4.73042e-12
1.08293e-11
1.39073e-13
-2.44186e-13
-9.19496e-12
-5.14735e-13
-4.23012e-12
-1.50253e-12
0
3.3686e-12
6.89675e-12
1.25006e-12
-3.4485e-13
0
4.57015e-14
-1.5542e-15
3.15338e-13
0
2.29111e-14
-2.6284e-14
1.65832e-13
2.31283e-12
-7.00474e-13
-1.10216e-11
8.66485e-12
-6.61066e-14
-6.5934e-14
1.7773e-13
2.01812e-13
-2.35314e-12
-6.82451e-12
9.07986e-14
-4.57627e-12
-5.0487e-12
-2.93607e-14
-7.59294e-14
-2.09665e-12
7.57733e-13
-4.44926e-13
1.47494e-12
-7.46407e-13
-7.64998e-12
3.87906e-12
8.4031e-13
5.06672e-13
2.0155e-12
-1.82739e-13
1.84885e-13
-3.24156e-12
-1.7632e-13
5.4023e-13
2.84884e-12
8.63863e-14
7.33836e-13
-8.18934e-13
1.87741e-12
2.07817e-11
0
1.68434e-14
-1.78853e-12
2.58898e-13
8.10635e-13
1.58325e-11
6.90481e-12
-6.72403e-12
7.83163e-12
-1.93055e-12
-1.09891e-12
-1.26452e-13
-4.51743e-14
-4.4025e-13
1.30615e-12
9.67195e-12
-4.14389e-12
9.07936e-13
3.00949e-12
7.52388e-12
-1.12204e-13
-1.35797e-12
2.18556e-11
2.71688e-12
-5.33744e-13
-3.36262e-13
-3.3618e-13
-2.90941e-12
6.34685e-13
-3.50773e-13
0
-1.18453e-13
-3.81642e-12
-8.8178e-12
-1.55467e-12
-5.57995e-12
-2.86754e-12
-5.44547e-12
1.35262e-12
-2.10298e-12
6.22268e-13
1.66481e-12
1.2582e-12
2.26332e-11
-3.41451e-12
-8.43081e-13
-9.86129e-14
-4.15905e-13
-2.3216e-11
-1.33001e-12
-2.10715e-11
5.47802e-13
-1.26021e-11
3.96452e-12
-2.87097e-13
-1.30571e-11
0
-1.75074e-12
-1.51602e-12
6.43963e-13
4.61945e-12
-2.56255e-13
1.00266e-13
3.8298e-13
-1.24742e-13
-6.09712e-13
3.68618e-12
-1.10439e-12
-8.83397e-13
1.04268e-14
-2.81412e-14
-1.43589e-11
-6.4344e-12
4.70531e-13
1.6363e-12
-6.77351e-12
-4.60993e-12
0
-4.56787e-12
-1.44512e-13
3.27027e-12
1.68106e-11
-2.45443e-12
0
3.33181e-12
-4.73281e-12
-1.12967e-13
-6.40772e-13
0
-3.7828e-12
8.99082e-12
-1.88381e-12
-2.27175e-12
9.96753e-12
-2.12065e-14
-1.9946e-13
-2.09678e-13
-1.17525e-11
-4.5911e-13
8.16379e-13
-5.32479e-12
-1.33487e-14
-1.92836e-15
-2.05077e-12
4.54763e-12
-7.91272e-13
-2.83167e-13
-2.3278e-13
-3.89291e-13
-3.89275e-13
-1.16429e-12
-1.0046e-12
-3.49251e-12
3.03239e-12
-1.06402e-12
1.01385e-12
2.9807e-13
-9.75543e-14
2.46241e-13
-7.29867e-12
3.16488e-12
1.28954e-11
-7.28181e-13
-4.26272e-12
-1.46909e-12
4.68328e-12
9.29392e-12
2.0401e-11
0
-2.25594e-12
-1.67961e-12
-7.88403e-12
0
-2.56021e-13
2.00669e-11
-1.24752e-11
4.97281e-14
1.51734e-13
5.84461e-12
4.13771e-12
3.34021e-14
-4.28338e-12
-3.62415e-12
4.35168e-13
2.84827e-12
1.33383e-11
-5.76428e-12
-2.10397e-12
6.24038e-13
-4.72389e-13
3.72585e-12
4.80565e-12
1.26857e-12
1.1165e-12
-8.79719e-14
-2.70571e-13
4.9609e-12
4.80066e-13
1.73607e-13
3.35194e-14
9.15129e-12
-5.9186e-13
-3.44408e-13
3.61241e-12
1.59853e-12
-2.13263e-12
2.15786e-12
1.55087e-12
-1.55474e-12
-1.85244e-12
-4.28361e-13
-1.82354e-12
-2.19322e-12
2.30188e-12
4.94119e-12
1.58141e-12
-2.37952e-12
2.57963e-12
1.28982e-12
-2.54342e-12
-3.46276e-12
-2.14845e-12
-2.80023e-12
7.09772e-14
1.34988e-12
1.80286e-12
9.13336e-14
-2.13868e-11
-2.0311e-12
-3.2762e-12
-2.92892e-13
-1.15011e-12
-1.03733e-12
-3.07257e-12
2.75003e-12
5.90756e-12
-9.52413e-13
-1.06086e-12
9.79573e-12
7.8057e-13
-5.52052e-14
-3.19739e-11
1.58586e-13
-3.47174e-13
6.42979e-12
-2.3212e-12
5.27161e-12
1.16359e-13
-4.15037e-12
1.73093e-12
1.9632e-12
-7.46759e-13
1.15959e-11
1.63083e-11
3.63054e-12
4.93869e-14
2.45457e-12
6.28573e-13
-7.29159e-13
-9.9869e-14
1.90453e-12
-6.33085e-12
-2.52207e-13
0
0
-4.63522e-13
6.05338e-14
-1.33193e-12
-1.21677e-11
1.51788e-13
0
1.51724e-12
-2.49841e-12
-1.64726e-13
5.38872e-13
8.46219e-12
-4.69526e-12
1.41163e-12
7.80985e-12
1.43438e-12
0
8.23366e-12
7.44467e-13
2.31671e-12
-1.23598e-11
2.12694e-12
-5.42924e-14
0
1.07392e-11
-2.68959e-12
-3.62634e-12
-6.49476e-12
8.54857e-13
-3.72297e-13
-2.47124e-11
-3.70339e-12
-2.10079e-12
2.56708e-12
2.95972e-12
5.29029e-12
-3.43549e-12
1.72815e-12
3.83782e-13
4.36978e-12
9.25092e-13
1.88763e-12
-2.70513e-14
-2.7081e-14
2.06216e-12
1.64492e-12
6.21266e-12
-1.81332e-12
-3.21432e-11
-3.30978e-11
1.57875e-12
2.33784e-12
-5.20946e-12
-9.22806e-16
-1.33753e-14
2.13174e-15
1.52853e-15
3.31475e-12
-3.54708e-14
6.72733e-14
0
2.10815e-13
-1.60892e-13
-1.60774e-13
2.92008e-14
-3.1908e-13
1.55197e-12
-9.97387e-13
-8.44115e-13
-5.35527e-13
-3.64323e-11
1.67828e-12
1.66376e-13
-7.85815e-12
-1.15978e-12
-3.50542e-12
1.38965e-12
2.35972e-12
4.88207e-12
-8.95281e-13
3.23843e-13
-1.07846e-12
0
-5.12613e-12
-2.79105e-12
3.24963e-12
0
4.99364e-13
-1.36308e-12
-2.97022e-12
2.91567e-13
7.40877e-15
1.97232e-14
4.0795e-12
-5.93929e-12
3.87598e-12
-3.30617e-12
5.30267e-12
4.97416e-12
-1.33814e-12
-1.8645e-12
0
-1.39409e-11
1.77866e-14
-2.17986e-12
3.30198e-12
-6.57438e-15
1.70071e-12
-9.0375e-12
1.45752e-12
8.27985e-12
5.78274e-12
0
-1.81665e-11
-2.887e-14
-1.67209e-14
-3.79571e-13
2.35233e-12
-4.26102e-13
-1.56849e-12
-7.81964e-12
-1.04679e-11
-1.20855e-11
-4.98254e-12
9.90977e-14
-3.13513e-12
1.73571e-11
8.05484e-12
-2.37742e-13
2.71911e-13
9.29491e-15
2.5144e-12
-2.20832e-13
6.3693e-13
-9.59728e-12
-4.8566e-12
2.42823e-12
1.18391e-13
7.59486e-13
1.33082e-15
1.20335e-14
-5.84203e-12
-1.15427e-12
-4.81036e-12
-1.22724e-12
-4.79812e-13
7.81823e-13
3.22545e-11
-6.64072e-14
-1.26287e-13
0
-4.97888e-12
-7.9355e-12
5.90267e-13
4.4757e-13
9.14465e-14
6.39782e-12
4.83711e-12
-5.00082e-12
-1.50868e-11
-3.19995e-12
0
-2.16649e-12
-8.70721e-12
-9.12116e-13
4.30942e-12
2.64444e-12
1.78495e-12
2.01576e-12
5.07781e-15
2.01701e-12
1.36363e-13
2.19939e-15
5.65151e-12
-9.58239e-13
-4.35508e-12
-2.11912e-14
-1.36481e-12
-1.53798e-13
1.09515e-11
1.97348e-12
-4.2004e-13
-6.49424e-13
-9.01098e-13
2.47879e-12
5.2177e-12
1.02974e-11
4.37841e-12
0
-6.55604e-12
2.32262e-12
-1.98643e-11
2.45054e-12
-8.57885e-12
2.53151e-13
-3.36285e-13
-5.46799e-12
3.93057e-12
-1.38652e-12
2.98372e-13
3.86473e-12
-1.73674e-12
-6.99065e-12
-2.46591e-15
-7.13832e-12
-1.36479e-12
3.30231e-13
6.60505e-13
2.70112e-12
-7.49389e-12
5.31903e-12
4.31236e-12
0
2.79368e-12
-1.03223e-12
2.15881e-13
0
4.65023e-12
-2.28048e-13
-4.18115e-12
-3.44915e-12
9.5691e-12
2.17975e-12
1.5815e-13
0
0
8.11435e-12
4.56984e-12
3.12587e-12
-2.09745e-12
-3.1492e-11
-1.25003e-14
0
2.89597e-12
-4.63453e-12
-1.32666e-12
-2.3693e-12
4.64513e-12
-1.89993e-11
2.21598e-14
-3.45682e-12
3.23904e-12
3.42277e-13
-4.15032e-13
-1.82316e-12
3.38464e-13
5.23952e-14
-1.02047e-11
5.71805e-12
2.76044e-13
3.07724e-12
7.43708e-13
1.90335e-12
-1.68332e-12
-5.10896e-12
-5.28608e-12
0
-6.59736e-12
2.98202e-12
9.81992e-13
-2.88259e-13
-5.42229e-13
-6.08748e-12
5.36354e-13
6.39559e-12
5.63255e-12
9.94321e-13
3.49872e-12
1.68177e-11
-1.64372e-12
-1.10529e-13
6.56298e-13
-2.02805e-12
-9.13795e-13
3.00723e-12
6.79558e-12
0
-4.72203e-13
4.09718e-13
2.72457e-12
-9.27605e-13
4.11335e-12
3.0996e-12
-2.90057e-12
-7.80028e-13
-1.92123e-13
-1.02882e-12
4.53755e-14
6.55492e-12
8.85081e-13
-6.90189e-13
-8.79724e-12
4.53986e-12
-4.23959e-12
-3.55102e-12
0
5.95522e-13
2.83482e-12
1.76365e-11
-9.02124e-12
-3.44997e-12
-9.0368e-15
-2.96521e-14
-9.57222e-13
3.05372e-12
-3.90705e-12
1.17945e-13
2.25223e-12
3.69102e-13
-4.81551e-11
1.75232e-12
-6.77006e-13
8.77322e-13
1.8332e-13
4.63894e-12
2.00435e-12
-1.21043e-12
1.88601e-12
8.40363e-12
-3.22253e-14
-1.21002e-11
-3.92026e-14
-1.08048e-12
0
-6.86177e-12
6.65758e-12
-8.89e-13
1.66255e-12
-9.98438e-13
9.31408e-13
3.19687e-12
7.21365e-13
6.52879e-13
3.70789e-12
-6.50494e-12
1.68598e-12
-8.37419e-13
-2.03964e-14
-2.39646e-14
1.12063e-12
-2.02398e-13
-3.1084e-12
9.29141e-13
4.14545e-12
2.53082e-12
1.21022e-11
1.72576e-12
-1.14856e-11
-2.94257e-12
2.91986e-13
3.03284e-11
1.00761e-12
3.60546e-12
0
-3.7456e-12
1.14637e-13
-6.01555e-13
2.83606e-12
-7.8584e-12
-4.04177e-13
-7.40294e-14
-5.25909e-13
-3.36015e-12
-1.0697e-11
-9.65007e-12
-1.67525e-12
0
-9.50718e-14
-8.41392e-13
-3.65398e-14
-4.93914e-15
-1.54047e-12
5.75159e-12
-3.40037e-12
-1.15348e-12
0
-3.40331e-14
6.02076e-15
2.44076e-12
9.2388e-12
-1.53311e-13
0
-2.80036e-12
-5.56126e-13
-9.83265e-12
-3.57041e-12
-8.23795e-13
-1.4059e-12
-8.85462e-13
-6.87658e-13
1.23731e-11
-2.05307e-13
8.57245e-14
9.10736e-14
-8.58523e-13
7.96675e-12
-7.16735e-12
-3.75699e-12
4.59366e-12
4.48216e-12
-3.18082e-12
-2.99246e-12
-1.2533e-11
8.53913e-14
2.03697e-13
0
-1.15044e-11
-1.60854e-13
3.3519e-12
1.23329e-12
-2.07327e-12
-1.09325e-12
-1.35574e-11
-4.52084e-12
-1.09583e-12
6.83231e-15
8.8577e-12
-1.39888e-13
-1.37364e-12
-1.66944e-11
-8.86206e-13
6.87446e-13
-1.15114e-12
-2.99316e-12
2.60884e-12
-4.25273e-13
1.19999e-13
9.47256e-12
-1.51851e-13
6.81084e-12
0
-3.21354e-12
-2.22686e-12
5.72025e-13
3.30578e-12
-9.75125e-13
1.75157e-13
-1.77345e-11
-2.50598e-12
1.79559e-14
9.28373e-15
8.95248e-13
-1.49225e-14
-9.55911e-12
3.26889e-13
8.86239e-13
-1.57081e-12
2.52236e-13
1.46501e-12
-1.08195e-11
2.00218e-12
5.25834e-12
0
1.08719e-14
1.22569e-14
-1.05387e-13
4.71728e-12
6.01619e-12
1.58479e-13
-2.34297e-12
-4.8654e-12
-2.74038e-13
-3.91235e-13
-6.07521e-12
3.76882e-13
2.45905e-12
2.09081e-14
2.81328e-12
-6.17653e-12
-2.38588e-12
2.24626e-12
-4.71793e-12
-2.04362e-13
-2.95406e-12
1.37907e-12
1.69259e-11
7.08807e-12
4.1597e-12
-1.09477e-11
1.79516e-12
4.8659e-12
-5.33044e-12
2.35492e-13
-1.01579e-12
9.92855e-13
3.40293e-12
-5.74884e-13
1.51169e-12
3.49977e-12
2.21323e-12
-3.48163e-11
-1.18166e-11
9.49695e-12
2.83317e-15
1.04115e-14
6.09864e-12
3.95048e-12
-3.22936e-12
3.18846e-14
-8.81618e-12
5.24532e-13
3.92546e-12
-4.87537e-13
-1.71442e-12
3.95461e-14
-5.80742e-12
1.03811e-12
1.13158e-12
-5.92081e-14
-5.00897e-12
3.57284e-12
3.13177e-12
-4.29994e-12
-6.78176e-12
5.90808e-13
-4.02896e-12
-3.02422e-12
-1.76929e-13
1.51994e-12
4.59111e-12
-8.24604e-12
2.98256e-12
1.24016e-12
-4.76751e-12
7.65433e-13
-1.24398e-11
-1.89666e-12
1.22018e-12
-5.06517e-12
1.13033e-12
-4.52793e-13
-1.8856e-12
-1.0349e-11
1.93859e-12
-1.94111e-12
3.35382e-12
-9.72301e-12
3.03397e-13
-8.95765e-15
-2.07445e-13
-1.80955e-13
-5.19087e-13
-5.98152e-12
5.41557e-12
-2.47486e-12
3.34989e-13
-1.5228e-12
-8.4293e-14
-2.71643e-14
4.1029e-14
-1.16071e-12
-3.75107e-12
-8.52847e-12
-1.54525e-12
-2.11251e-12
-1.02553e-14
-6.37741e-15
-5.95686e-13
-1.83687e-12
-2.07743e-11
2.0878e-11
1.92435e-12
5.09641e-12
-1.73271e-13
-4.58139e-12
-3.16289e-11
2.84907e-12
1.03144e-11
-1.98672e-12
3.40192e-12
2.62903e-12
-5.26336e-12
9.83919e-13
-3.62515e-12
1.13223e-12
0
1.84959e-12
9.69953e-14
-3.00066e-12
4.55023e-12
-5.59874e-12
2.80091e-12
-5.22076e-13
7.66523e-13
-1.05978e-13
-9.7404e-14
7.19901e-12
-1.29538e-11
-5.57482e-14
5.57806e-14
1.10502e-11
2.6461e-12
5.84933e-14
2.05167e-12
-4.48981e-13
7.59112e-13
-3.37348e-13
5.20309e-12
2.60144e-11
1.41682e-12
9.74896e-13
1.98623e-12
3.61689e-12
2.90283e-12
4.19962e-12
-7.1341e-13
2.87778e-11
-1.91441e-11
-1.03144e-13
2.88054e-12
-7.89095e-12
2.8582e-11
-1.61253e-12
-2.90763e-12
1.59151e-12
-5.83871e-14
-5.82553e-14
1.63661e-11
-4.12633e-15
-1.10897e-13
-7.50161e-13
-3.3183e-13
-4.38467e-12
1.58607e-12
3.5238e-12
-1.09576e-12
-1.68558e-12
-5.22535e-13
3.86493e-13
-6.28458e-12
-4.04365e-12
-6.67852e-13
1.2607e-11
-9.04933e-12
3.33757e-14
1.70949e-12
2.2925e-11
1.52148e-11
5.98854e-12
3.14274e-12
-2.23268e-13
1.63901e-13
-3.68044e-12
3.69384e-12
-5.21771e-12
1.03963e-11
9.40035e-12
-4.28301e-12
-3.64567e-12
-3.22682e-13
-6.94846e-13
-8.90641e-14
1.574e-14
-3.93196e-12
-2.34113e-12
-5.74039e-12
-2.18511e-12
5.67861e-13
4.45234e-14
5.80637e-13
-1.65227e-12
9.13948e-13
2.77397e-12
2.76334e-11
-1.96485e-12
2.09834e-11
3.70417e-13
-5.10181e-12
-9.11361e-14
-2.76139e-12
-3.79333e-12
5.07599e-14
3.25525e-12
-8.24923e-13
2.05356e-13
-3.0921e-12
4.57427e-13
-1.04289e-12
-1.22181e-11
-1.52706e-12
9.38507e-13
3.31519e-13
-2.79998e-12
4.14439e-12
-5.58448e-12
-1.18113e-12
-5.74733e-12
7.65668e-12
-8.11299e-13
-3.8661e-12
-5.44857e-12
1.86589e-12
-1.36618e-11
0
1.79843e-12
4.53598e-12
-2.83169e-12
9.29797e-13
8.08454e-12
6.41169e-12
-5.657e-12
6.18407e-12
9.28104e-13
-4.7411e-12
-8.05931e-12
-2.27324e-12
0
9.08089e-12
0
-1.81946e-12
-5.31073e-14
-1.50296e-13
-5.88713e-12
-6.27833e-14
-2.66029e-12
-1.81347e-12
1.63255e-12
0
0
-3.45124e-13
-3.59645e-13
-6.68461e-12
8.78361e-13
1.54178e-11
-2.33231e-13
2.90735e-12
2.58236e-12
3.83801e-13
3.52885e-13
-7.21843e-14
9.79738e-14
-2.9465e-12
1.10526e-12
0
-1.84733e-12
3.42405e-12
-1.26176e-12
0
2.87569e-14
1.94438e-14
4.13679e-13
-1.598e-12
1.86943e-13
-1.93655e-13
-6.23218e-14
1.47597e-12
-3.86315e-12
1.46175e-12
-2.66305e-12
-1.00586e-12
-1.25708e-12
3.90322e-12
4.04037e-14
3.48164e-14
0
-3.22684e-12
1.26811e-12
3.34375e-12
0
2.86751e-12
1.73359e-12
9.1738e-13
1.52859e-12
1.01117e-11
2.14175e-11
-3.44101e-12
7.34856e-12
-6.07134e-13
-2.31715e-13
3.18783e-12
1.48063e-12
-1.46467e-12
0
-6.36814e-12
-3.24559e-12
-7.29513e-12
2.44147e-12
-1.92955e-12
1.2718e-12
1.81204e-12
-2.59484e-12
5.48319e-12
-4.98785e-14
9.68581e-13
2.07036e-12
-4.89963e-12
4.53092e-12
-6.09139e-12
-1.96444e-12
1.91606e-12
0
5.39139e-12
-2.2406e-12
-2.47285e-13
-3.26055e-12
5.27705e-12
-2.29031e-13
2.63442e-12
-2.26672e-13
4.83224e-12
1.60942e-12
-4.0529e-13
3.60789e-12
4.33247e-16
-6.37635e-15
-2.58985e-12
-1.49329e-13
-3.16933e-11
1.30968e-12
-1.64237e-12
-3.66754e-13
-5.48313e-12
-5.10345e-13
-1.97824e-11
-5.194e-12
-1.05008e-12
-8.9684e-13
-1.62523e-12
1.7891e-12
-3.53229e-13
-4.06258e-12
-7.45121e-13
-2.90705e-12
-2.99851e-12
2.27388e-12
5.92976e-13
-2.99089e-14
1.06134e-14
-3.61037e-13
-4.77445e-12
9.72182e-12
-5.98778e-12
-3.26597e-12
1.24919e-12
-4.25157e-14
2.05737e-13
1.26218e-11
-9.75644e-12
9.92655e-13
6.88792e-13
7.49402e-13
5.68869e-13
1.32458e-11
-1.24451e-11
-3.47485e-12
1.75364e-12
1.5763e-12
-5.63173e-13
8.66957e-13
4.2881e-12
1.0114e-12
-1.43444e-12
1.01064e-13
-3.89836e-12
3.62975e-12
3.46018e-12
1.62872e-12
-3.71118e-13
2.52416e-13
-3.54286e-12
2.92774e-12
-1.6877e-12
0
7.90572e-12
-6.09753e-13
-6.09889e-13
-3.35811e-12
-5.33604e-13
4.55237e-13
-1.67462e-13
2.73686e-13
5.05798e-12
-3.0975e-13
9.70161e-14
-1.78719e-12
1.03616e-12
-1.16505e-11
-2.55101e-12
-8.39641e-12
7.84548e-14
6.06152e-14
2.30934e-12
-8.333e-12
0
2.7672e-12
3.75836e-12
5.8398e-14
1.43871e-12
2.783e-12
4.24489e-12
-1.58461e-12
-2.08078e-12
-3.9941e-14
0
8.88941e-14
1.5817e-12
2.41482e-12
-3.41352e-11
4.22389e-12
5.3081e-12
-1.90487e-13
-1.87685e-13
1.05315e-13
1.46936e-12
-2.00788e-12
-4.35528e-13
2.54708e-12
-2.32776e-12
3.93709e-13
-2.81992e-13
-3.35657e-13
-3.29369e-13
-1.29942e-12
-4.69407e-15
6.71405e-15
8.20561e-12
-4.12156e-13
2.71402e-12
0
3.41182e-14
2.73158e-13
-2.17731e-12
-9.11742e-13
3.9112e-12
7.17912e-13
3.91413e-12
-1.66097e-13
-6.77816e-13
6.77819e-13
0
4.5601e-13
4.24297e-13
-2.29769e-12
-4.69759e-12
4.93355e-12
1.20063e-13
1.35672e-12
8.15048e-12
1.28734e-11
-2.41486e-12
-4.32775e-12
-2.74215e-12
2.74213e-12
-1.77395e-11
-1.65597e-12
9.71028e-13
1.11494e-12
-9.64424e-12
-2.22738e-11
7.70342e-12
-6.70734e-12
6.32266e-12
2.2646e-12
5.64456e-13
1.34156e-14
-3.30852e-13
0
-1.18897e-11
-7.34441e-13
2.43069e-12
-4.35555e-14
-2.44421e-12
1.51295e-12
-4.39115e-11
-3.5846e-12
1.23266e-12
-7.81302e-13
-4.43928e-12
-2.50475e-12
2.47223e-12
2.85419e-13
-3.30662e-13
2.10908e-12
-7.92993e-13
8.43242e-14
2.39958e-13
2.08197e-12
1.0977e-12
-2.96901e-12
-1.09642e-12
-1.49787e-12
-5.62379e-13
-4.63452e-13
-1.41518e-12
-4.10941e-12
-6.73117e-12
4.6353e-12
-8.95876e-14
-8.64845e-14
-5.44692e-13
1.35579e-12
-1.39877e-11
1.89947e-11
0
8.09121e-13
-8.09107e-13
4.3741e-12
1.35031e-12
-1.63057e-11
-3.86007e-13
-3.20561e-12
-1.67246e-11
1.17055e-11
7.75039e-15
2.67197e-12
-9.01721e-12
-6.50886e-12
8.09035e-12
-3.55174e-15
1.12621e-13
2.0343e-12
2.94656e-12
1.12025e-12
0
-1.95162e-12
-9.63825e-13
2.394e-12
8.26469e-14
2.05098e-13
-3.28643e-12
-1.22434e-13
-2.14343e-13
-7.54706e-13
-3.32705e-12
1.81391e-12
1.0168e-11
3.90145e-13
-1.58917e-12
2.76933e-12
6.72558e-12
-6.95367e-12
-1.32198e-12
-1.73818e-12
-1.73812e-12
-3.02576e-14
5.78616e-14
3.30345e-12
-4.58204e-13
1.1943e-12
-4.7831e-13
2.2776e-13
3.05508e-13
8.77091e-13
8.96073e-14
-6.40042e-12
-3.65806e-11
-2.13069e-11
2.52695e-12
1.11163e-11
-1.6978e-12
-1.09154e-11
-8.452e-12
-2.61812e-12
-7.04577e-12
6.08626e-13
6.0876e-13
2.62354e-11
0
-3.25084e-12
-1.92486e-12
-3.23427e-12
-3.44723e-12
8.27948e-14
-9.73723e-13
-3.42677e-13
-1.32621e-12
-1.74546e-12
-2.1271e-12
-5.22477e-12
-5.13487e-13
5.72526e-13
-1.46696e-12
-1.04086e-12
7.00532e-13
2.93859e-13
2.10948e-13
9.38165e-14
-2.83296e-11
3.01565e-13
-9.81595e-14
1.62683e-12
1.85575e-13
-2.45375e-13
-5.99149e-13
-1.23798e-12
-2.8397e-12
0
6.5949e-12
-9.56264e-12
-2.38695e-13
-5.83879e-13
4.59648e-12
-5.47197e-12
-3.13881e-12
1.22572e-11
-7.47431e-15
-8.04334e-13
-2.98472e-12
2.14752e-12
2.07787e-12
7.2767e-13
1.08503e-14
-1.85943e-12
-2.70024e-14
1.52882e-12
3.5234e-12
-1.53023e-12
9.87637e-13
-1.24089e-12
0
5.58824e-12
-3.75077e-12
-1.14912e-13
-5.37469e-13
3.72477e-12
-9.42779e-12
-3.03318e-13
1.50649e-12
-7.38763e-14
-1.22744e-14
-3.54086e-14
1.3407e-12
-2.57643e-12
6.94024e-14
-1.90422e-12
-4.03769e-12
-3.00795e-12
1.26596e-11
1.00747e-12
3.07341e-11
-3.32238e-12
-3.56486e-13
1.21224e-11
1.60915e-12
4.94259e-13
2.19951e-12
-6.51692e-13
5.49864e-14
-1.96801e-13
-4.11797e-12
8.10568e-14
-5.50441e-12
-4.6994e-13
1.19614e-12
-1.12215e-11
6.65238e-12
9.08819e-12
-1.19622e-13
-7.85234e-14
-9.88565e-13
2.38455e-12
-6.74481e-13
-1.29265e-12
7.74913e-12
-1.55501e-12
-3.41993e-13
1.97892e-12
-6.80586e-12
-2.00664e-13
-3.56001e-13
1.42072e-14
4.45853e-13
-6.09712e-12
-1.53071e-12
4.8646e-13
-1.5609e-12
-3.00713e-12
1.709e-11
1.48468e-14
3.97244e-14
-2.69794e-11
-1.77132e-13
-3.01714e-12
-1.68286e-12
-2.30238e-12
0
-5.44035e-12
-5.91577e-12
2.76794e-12
2.76791e-12
-9.16077e-14
0
-1.76663e-13
-2.77249e-11
-8.51804e-13
-3.20047e-12
-1.79585e-11
3.11229e-11
3.10209e-14
9.83788e-13
2.41798e-12
-1.83306e-12
2.16561e-12
-1.30051e-13
-5.27335e-14
-9.30167e-13
-3.83983e-12
2.99162e-14
-1.04472e-11
-3.26873e-12
1.89429e-13
-9.83266e-13
2.67131e-12
0
-1.54699e-12
8.1044e-12
-1.98474e-13
2.41296e-12
0
-1.44309e-11
-3.75115e-13
3.56921e-12
1.04656e-12
5.99055e-13
3.38991e-12
-2.43448e-12
-3.2081e-13
-2.9289e-13
1.98922e-12
-2.43548e-11
1.06724e-11
0
-2.47763e-12
-8.97221e-13
-2.2425e-12
1.06546e-11
3.58337e-13
-1.48857e-12
5.68153e-12
-4.27593e-15
-1.01207e-14
-1.55297e-12
5.49757e-12
3.82357e-12
7.11483e-13
-8.64014e-12
4.67628e-13
-1.2302e-12
3.21013e-12
3.86655e-12
-5.32005e-13
-6.70467e-12
3.37852e-12
2.0323e-12
0
1.5927e-12
-7.51159e-12
-2.74652e-13
-3.62953e-12
-3.09863e-12
8.61641e-12
8.88293e-12
9.2484e-13
-6.36833e-12
2.05176e-12
9.80094e-13
2.48991e-13
1.11756e-12
-5.21798e-13
-5.93055e-14
-6.17565e-12
0
-1.23646e-12
1.45199e-11
-1.36068e-11
-2.06202e-12
1.24602e-12
6.93974e-12
-9.56734e-13
-9.85382e-13
0
0
-1.62918e-12
3.01129e-12
4.27254e-12
-7.47064e-12
3.39149e-12
-7.0113e-14
5.58835e-12
-5.95724e-13
3.57049e-13
1.23069e-12
4.19297e-12
4.27006e-12
4.27034e-12
8.88296e-13
3.54707e-12
-3.23767e-12
-4.12134e-13
4.20045e-12
1.70474e-12
5.73865e-12
8.25792e-12
-6.10104e-12
-5.83457e-12
-3.65146e-12
-3.14041e-12
-4.88466e-12
-6.88043e-13
1.81166e-13
4.97503e-12
1.12985e-12
0
-3.72654e-12
-2.89612e-12
-4.32964e-12
-3.11391e-12
-7.78059e-12
-1.49274e-12
-3.47033e-12
5.02618e-12
4.69253e-13
-9.05214e-13
0
-2.57767e-12
-2.88183e-14
-5.89166e-12
8.76998e-14
1.97463e-12
-5.37905e-12
-6.7301e-12
-2.30452e-12
6.38589e-13
0
9.22995e-13
2.0486e-12
-9.8689e-13
-3.80552e-13
2.34803e-15
5.85403e-14
4.65776e-13
6.20046e-13
-9.18712e-13
1.99147e-11
1.00282e-12
8.555e-13
-1.29752e-12
2.11116e-11
-5.67478e-12
-7.59524e-13
2.81536e-14
-1.56687e-14
-9.39302e-12
1.20555e-11
-2.13481e-12
-1.85331e-14
3.361e-14
-2.23452e-13
1.13187e-13
-4.47735e-12
-2.79876e-13
1.63051e-12
-3.49088e-13
3.01288e-13
-2.6003e-12
3.46445e-14
-3.00612e-14
-2.51506e-12
-3.37636e-12
1.93372e-12
9.51189e-12
-1.72689e-13
-1.95462e-12
-3.42922e-12
0
3.03268e-12
6.32512e-13
-1.19651e-11
-8.10878e-13
3.26374e-12
3.90266e-12
-1.16333e-11
-5.30828e-13
-2.43397e-12
-3.35384e-12
-1.27803e-12
-2.48965e-12
-1.76149e-12
-1.74877e-11
-1.89215e-12
-4.07431e-12
1.46486e-11
-6.07091e-12
-1.4957e-12
8.56672e-15
-2.08359e-15
1.13305e-15
-6.57911e-12
-3.1582e-14
-3.17178e-14
1.68833e-13
0
0
-3.54325e-11
-2.55852e-12
-4.7121e-12
0
-1.14497e-11
1.3646e-11
-3.27178e-12
5.28243e-13
-1.44721e-11
-1.7841e-12
1.19157e-12
7.78373e-13
-7.44378e-12
1.84008e-12
1.35288e-11
-1.36543e-11
-1.3677e-12
-2.67377e-12
2.82387e-13
1.09316e-13
1.2714e-12
-1.61977e-11
-1.9343e-11
0
-2.45996e-13
8.78916e-13
2.56461e-12
1.06311e-12
-8.98881e-12
-6.24687e-13
7.41326e-12
1.82601e-14
-6.85371e-12
-1.21994e-12
-1.32295e-12
3.55173e-12
6.1215e-12
-3.2388e-13
-6.40262e-12
8.15799e-12
5.14734e-13
-4.21056e-13
4.2647e-12
-3.36004e-12
1.67477e-12
-1.24846e-12
0
-1.84171e-14
1.38325e-12
-1.03026e-12
-4.0008e-12
9.31442e-13
-1.89018e-12
-9.80651e-13
8.65767e-13
3.84758e-13
-5.00226e-12
6.28931e-13
7.42698e-12
-1.895e-12
-9.56876e-13
-5.85885e-12
-6.70547e-13
1.70967e-13
3.41242e-12
3.12704e-12
-1.7675e-13
8.90169e-15
1.30333e-14
-2.08969e-12
-6.75121e-12
-7.37486e-12
3.99546e-12
3.44663e-12
7.94049e-14
-1.31468e-13
0
2.68215e-12
7.04882e-13
-2.88655e-12
3.27667e-12
2.19641e-11
-2.81611e-12
-1.17387e-12
-3.60625e-12
-2.17728e-11
4.22735e-12
3.68502e-12
-3.71173e-13
7.16544e-14
-4.96454e-14
3.84527e-12
1.84878e-12
1.73294e-13
-2.921e-12
-1.19042e-12
4.40981e-12
-1.61112e-12
-4.10156e-12
3.45472e-13
6.44674e-14
-9.00965e-14
-1.80163e-13
0
-4.25607e-12
2.54432e-14
2.83454e-14
-4.37449e-12
-2.39585e-12
0
0
4.29327e-13
-5.19154e-12
-7.3228e-12
-1.67212e-12
9.89926e-13
9.89957e-13
-1.97974e-12
1.1167e-12
1.30727e-12
-2.42789e-12
-2.03649e-11
-7.1991e-13
1.52437e-12
-2.24037e-12
2.58911e-12
-1.6425e-12
3.04689e-14
5.89849e-15
-1.30632e-11
8.70429e-12
-2.01127e-12
-9.88629e-13
1.01628e-11
5.03476e-12
1.46485e-12
2.8035e-12
-3.36186e-12
8.17004e-13
2.40108e-12
1.62958e-12
1.52455e-11
-3.76649e-12
-1.467e-11
-5.30333e-12
-4.30208e-13
-1.6536e-12
9.11344e-12
-3.11213e-12
1.90589e-12
-1.31203e-12
1.60652e-13
1.78527e-12
4.28783e-12
-4.3476e-12
1.87382e-11
1.23192e-12
1.33551e-12
-4.02687e-12
3.44261e-13
-3.26784e-12
-4.07054e-12
-4.72676e-12
-7.21948e-13
5.89771e-12
1.55306e-11
-2.50798e-12
-2.32649e-12
-2.78704e-14
7.44026e-15
5.61456e-15
-9.39825e-14
2.51129e-13
-1.63205e-12
-1.38433e-13
-4.02177e-12
-6.12239e-11
2.59362e-13
1.63769e-12
-2.11156e-12
9.81348e-12
2.69636e-13
1.36952e-13
-2.84554e-14
-6.65914e-12
-8.63668e-12
6.67363e-12
-9.18079e-12
4.4362e-13
-1.13425e-11
-2.4016e-12
-2.57096e-12
1.23418e-12
1.71443e-12
1.99624e-12
-2.26776e-12
3.45271e-14
3.52395e-14
-6.98053e-12
-1.93174e-13
6.41902e-13
-2.55373e-12
3.3753e-12
-3.25412e-13
3.08215e-12
3.06569e-12
0
3.23537e-12
-1.75129e-12
9.87243e-14
4.73071e-12
0
-1.66346e-12
8.11492e-12
2.00203e-12
-5.47599e-12
3.17814e-12
3.87237e-12
2.75133e-12
-8.78128e-13
3.91132e-12
1.4389e-13
-3.72825e-14
1.73802e-12
-2.7408e-12
-3.66725e-14
1.86135e-14
3.28246e-12
9.27805e-14
-2.18282e-13
1.0064e-12
2.82121e-12
2.63957e-13
-7.44627e-14
5.6515e-13
-2.37165e-12
1.9193e-12
1.01567e-12
-4.95616e-13
2.29656e-12
-1.22215e-12
-7.32268e-12
-2.37273e-12
8.39173e-12
-1.06425e-12
-2.92823e-12
0
3.5857e-14
3.43251e-12
8.09975e-12
4.72823e-12
6.49318e-12
4.52553e-12
-6.17521e-12
1.21202e-11
-1.39585e-11
-1.10576e-12
-1.24738e-12
1.36337e-13
9.73428e-13
5.73164e-13
-1.12501e-11
-7.9904e-13
1.13948e-12
9.27439e-13
-1.26025e-12
4.14998e-12
1.86581e-11
9.11573e-14
1.15961e-13
7.68159e-13
-7.93097e-13
1.11252e-13
9.86148e-14
3.94068e-12
6.47203e-13
-1.12926e-12
-9.91336e-14
-7.26154e-12
-2.28378e-12
4.86502e-12
-2.44231e-12
1.03318e-13
-1.4473e-11
-6.55312e-13
-1.84905e-12
2.27147e-12
-9.39699e-13
-2.09858e-11
2.04884e-13
-3.76713e-12
-7.77935e-14
-3.46669e-12
4.09541e-12
0
-4.01184e-12
-6.33328e-12
2.25895e-12
9.51813e-12
1.49459e-12
0
-3.6435e-12
3.21769e-12
-9.30684e-12
-4.67033e-12
-1.568e-13
-1.42593e-11
-4.31611e-12
2.59708e-12
8.12627e-13
-4.32605e-14
-4.78406e-14
-2.03054e-12
-7.28988e-13
-1.0516e-12
-5.19264e-13
-1.20443e-12
-2.64859e-12
-1.68954e-12
1.73146e-12
4.18633e-12
0
1.65719e-14
-2.07994e-11
-2.20951e-13
1.83561e-12
-2.65032e-12
-9.08268e-12
4.00836e-13
5.47477e-14
5.65231e-12
-8.19053e-13
6.64554e-12
3.96415e-12
-3.03828e-12
3.33265e-13
8.17816e-13
1.90104e-12
-4.34731e-13
2.22224e-12
1.06207e-12
1.74838e-12
3.53745e-12
-8.34216e-13
1.86962e-12
2.57186e-13
6.27553e-13
2.94981e-12
-1.83934e-14
1.09076e-11
-3.75183e-13
1.17756e-12
3.10269e-14
2.92014e-14
3.97575e-12
8.14014e-13
-6.62635e-13
-2.86027e-13
-1.12123e-13
1.79551e-14
3.19493e-12
1.21091e-13
3.46757e-14
6.20994e-12
-7.53292e-12
-9.71168e-13
-5.11325e-12
0
2.4731e-13
-3.03164e-12
2.48837e-12
-9.69468e-13
-5.07377e-13
3.61932e-13
7.7028e-14
-7.14074e-12
4.70874e-11
-3.31257e-12
-5.49236e-12
-5.16991e-12
-6.47465e-12
-4.9779e-12
9.74639e-12
-1.90848e-12
-1.70606e-12
-3.53793e-14
2.31645e-14
2.4157e-12
-2.11156e-13
-2.67703e-12
-5.35273e-12
5.74913e-13
-6.9318e-13
1.48972e-12
-1.5727e-12
9.94384e-13
1.36285e-12
3.63952e-13
3.01137e-12
-3.42232e-12
5.4189e-12
-7.75295e-12
1.4348e-12
-1.09287e-11
5.53589e-12
-2.70109e-12
-4.84209e-12
-1.12548e-12
1.66736e-12
-1.91248e-12
7.31319e-13
-1.65572e-11
3.66346e-12
6.34511e-14
-3.42211e-13
-1.59964e-13
1.59316e-13
-1.57909e-11
1.39375e-12
-2.27492e-12
-4.20092e-12
-1.61955e-11
4.16976e-12
-1.93921e-12
-2.82684e-12
-3.03415e-12
-1.71804e-12
0
-6.54794e-12
-9.67579e-12
0
7.76588e-12
2.90238e-12
4.41591e-12
-9.17448e-12
1.41976e-12
1.37286e-11
5.25537e-14
4.99758e-11
1.36361e-13
6.71804e-14
2.52305e-12
-1.13868e-11
-1.09464e-12
-2.61867e-12
2.50121e-12
-2.37598e-12
-4.94455e-13
1.42137e-13
-4.37087e-12
1.03063e-12
9.36473e-12
-3.00898e-12
-6.49315e-12
-3.67564e-12
7.14235e-12
6.91758e-13
5.30874e-12
-8.37341e-12
1.14442e-12
4.17177e-13
1.25242e-13
4.90727e-14
-3.40339e-12
-1.33395e-12
0
-5.14905e-13
1.09058e-13
1.08933e-13
-1.80678e-13
-1.80754e-13
-6.61507e-14