0 	31.937 	-0.0273813 	6.65398e-13
0.000254254 	31.9371 	-0.0273871 	1.30729e-10
0.000508509 	31.9371 	-0.0273929 	2.60793e-10
0.000762763 	31.9403 	-0.0275595 	-7.16383e-06
0.00101702 	31.9461 	-0.0278477 	-1.97468e-05
0.00127127 	31.9519 	-0.0281359 	-3.23298e-05
0.00152553 	31.9576 	-0.028424 	-2.0914e-05
0.00177978 	31.9634 	-0.0287122 	-8.34113e-06
0.00203403 	31.9711 	-0.0290307 	2.72185e-10
0.00228829 	31.9827 	-0.029409 	1.42052e-10
0.00254254 	31.9942 	-0.0297873 	1.19181e-11
0.0027968 	32.0058 	-0.0295562 	1.18313e-10
0.00305105 	32.0173 	-0.0292637 	2.48554e-10
0.00330531 	32.0302 	-0.0292119 	-4.31129e-06
0.00355956 	32.0444 	-0.0294161 	-1.32099e-05
0.00381381 	32.0586 	-0.0296203 	-2.21084e-05
0.00406807 	32.0727 	-0.0298245 	-1.56768e-05
0.00432232 	32.0869 	-0.0300287 	-6.79435e-06
0.00457658 	32.1017 	-0.0303174 	2.84164e-10
0.00483083 	32.1185 	-0.0308812 	1.54002e-10
0.00508509 	32.1353 	-0.0314449 	2.38401e-11
0.00533934 	32.1522 	-0.0313881 	1.0701e-10
0.00559359 	32.1692 	-0.031192 	2.38014e-10
0.00584785 	32.1863 	-0.0312501 	-7.6066e-06
0.0061021 	32.2035 	-0.0316792 	-2.63225e-05
0.00635636 	32.2208 	-0.0321083 	-4.50384e-05
0.00661061 	32.2381 	-0.0325374 	-3.49648e-05
0.00686486 	32.2553 	-0.0329665 	-1.63055e-05
0.00711912 	32.2726 	-0.0334382 	2.97696e-10
0.00737337 	32.2902 	-0.0342044 	1.66824e-10
0.00762763 	32.3078 	-0.0349707 	3.59515e-11
0.00788188 	32.3256 	-0.0350856 	9.51618e-11
0.00813614 	32.3435 	-0.0349538 	2.26367e-10
0.00839039 	32.3615 	-0.0350755 	-9.12584e-06
0.00864464 	32.3798 	-0.0356979 	-3.62827e-05
0.0088989 	32.3981 	-0.0363203 	-6.34395e-05
0.00915315 	32.4164 	-0.0369427 	-5.38281e-05
0.00940741 	32.4347 	-0.0375652 	-2.6786e-05
0.00966166 	32.453 	-0.0381907 	3.10022e-10
0.00991592 	32.4718 	-0.0391493 	1.79002e-10
0.0101702 	32.4905 	-0.0401079 	4.79824e-11
0.0104244 	32.5095 	-0.0403835 	8.38563e-11
0.0106787 	32.5286 	-0.0402643 	2.16169e-10
0.0109329 	32.548 	-0.0403876 	-9.1595e-06
0.0111872 	32.5682 	-0.0411555 	-4.26652e-05
0.0114414 	32.5883 	-0.0419234 	-7.6171e-05
0.0116957 	32.6085 	-0.0426913 	-7.04805e-05
0.0119499 	32.6286 	-0.0434592 	-3.71567e-05
0.0122042 	32.6488 	-0.0442271 	-3.83283e-06
0.0124585 	32.6699 	-0.045323 	1.92521e-10
0.0127127 	32.6911 	-0.0464615 	6.04486e-11
0.012967 	32.7125 	-0.0469013 	7.22811e-11
0.0132212 	32.7341 	-0.0467515 	2.05566e-10
0.0134755 	32.756 	-0.0468251 	-8.32035e-06
0.0137297 	32.7791 	-0.0476983 	-4.64102e-05
0.013984 	32.8022 	-0.0485714 	-8.45001e-05
0.0142382 	32.8253 	-0.0494446 	-8.50347e-05
0.0144925 	32.8484 	-0.0503177 	-4.71971e-05
0.0147467 	32.8715 	-0.0511909 	-9.35958e-06
0.015001 	32.8957 	-0.052391 	2.06015e-10
0.0152553 	32.9202 	-0.0536986 	7.30256e-11
0.0155095 	32.945 	-0.054321 	6.04293e-11
0.0157638 	32.97 	-0.054109 	1.94451e-10
0.016018 	32.9953 	-0.0540959 	-7.08766e-06
0.0162723 	33.022 	-0.0550449 	-4.84674e-05
0.0165265 	33.0487 	-0.0559938 	-8.98471e-05
0.0167808 	33.0754 	-0.0569428 	-9.80272e-05
0.017035 	33.1021 	-0.0578918 	-5.69709e-05
0.0172893 	33.1289 	-0.0588408 	-1.59146e-05
0.0175435 	33.1566 	-0.060108 	2.19282e-10
0.0177978 	33.185 	-0.0615766 	8.56102e-11
0.0180521 	33.2136 	-0.0624108 	4.84235e-11
0.0183063 	33.2424 	-0.0621148 	1.83103e-10
0.0185606 	33.2716 	-0.0619905 	-5.77972e-06
0.0188148 	33.3023 	-0.0629957 	-4.95838e-05
0.0190691 	33.333 	-0.064001 	-9.33878e-05
0.0193233 	33.3637 	-0.0650063 	-0.000110082
0.0195776 	33.3944 	-0.0660116 	-6.66725e-05
0.0198318 	33.4251 	-0.0670169 	-2.32627e-05
0.0200861 	33.4567 	-0.0683097 	2.32526e-10
0.0203403 	33.4892 	-0.0699346 	9.82514e-11
0.0205946 	33.5218 	-0.0710177 	3.63327e-11
0.0208488 	33.5549 	-0.0706232 	1.71762e-10
0.0211031 	33.5881 	-0.0703739 	-4.59251e-06
0.0213574 	33.623 	-0.0714238 	-5.02999e-05
0.0216116 	33.658 	-0.0724737 	-9.60074e-05
0.0218659 	33.6929 	-0.0735236 	-0.000121802
0.0221201 	33.7278 	-0.0745735 	-7.65595e-05
0.0223744 	33.7628 	-0.0756234 	-3.13173e-05
0.0226286 	33.7983 	-0.0768979 	2.46034e-10
0.0228829 	33.8351 	-0.0786774 	1.11066e-10
0.0231371 	33.8721 	-0.0800527 	2.41359e-11
0.0233914 	33.9094 	-0.07955 	1.60422e-10
0.0236456 	33.9469 	-0.0791697 	-3.64274e-06
0.0238999 	33.9863 	-0.0802584 	-5.09907e-05
0.0241542 	34.0257 	-0.0813472 	-9.83386e-05
0.0244084 	34.065 	-0.0824359 	-0.000133724
0.0246627 	34.1044 	-0.0835246 	-8.69133e-05
0.0249169 	34.1437 	-0.0846134 	-4.01027e-05
0.0251712 	34.1834 	-0.0858235 	2.59859e-10
0.0254254 	34.2247 	-0.0877594 	1.2409e-10
0.0256797 	34.2661 	-0.0894753 	1.18061e-11
0.0259339 	34.308 	-0.088853 	1.49062e-10
0.0261882 	34.35 	-0.088338 	-3.00529e-06
0.0264424 	34.3939 	-0.0894651 	-5.19606e-05
0.0266967 	34.4379 	-0.0905923 	-0.000100916
0.026951 	34.4819 	-0.0917194 	-0.000146452
0.0272052 	34.5258 	-0.0928465 	-9.8109e-05
0.0274595 	34.5698 	-0.0939736 	-4.9766e-05
0.0277137 	34.6138 	-0.0951008 	-1.42299e-06
0.027968 	34.6597 	-0.0971744 	1.37359e-10
0.0282222 	34.7057 	-0.0992768 	6.77752e-13
0.0284765 	34.7523 	-0.0985178 	1.37654e-10
0.0287307 	34.799 	-0.0978492 	-2.72968e-06
0.028985 	34.8477 	-0.0990169 	-5.33685e-05
0.0292392 	34.8964 	-0.100185 	-0.000104007
0.0294935 	34.9452 	-0.101352 	-0.000154646
0.0297477 	34.9939 	-0.10252 	-0.000110409
0.030002 	35.0427 	-0.103688 	-6.04619e-05
0.0302563 	35.0914 	-0.104856 	-1.05148e-05
0.0305105 	35.1418 	-0.106919 	1.50902e-10
0.0307648 	35.1927 	-0.109221 	1.31947e-11
0.031019 	35.2441 	-0.108547 	1.26686e-10
0.0312733 	35.2956 	-0.107678 	-2.85258e-06
0.0315275 	35.3493 	-0.108886 	-5.51364e-05
0.0317818 	35.403 	-0.110095 	-0.00010742
0.032036 	35.4568 	-0.111303 	-0.000159704
0.0322903 	35.5105 	-0.112512 	-0.000123627
0.0325445 	35.5642 	-0.11372 	-7.21169e-05
0.0327988 	35.6179 	-0.114929 	-2.06066e-05
0.0330531 	35.6729 	-0.116952 	1.65426e-10
0.0333073 	35.7288 	-0.119517 	2.60086e-11
0.0335616 	35.7852 	-0.118987 	1.14545e-10
0.0338158 	35.8418 	-0.117903 	-3.41177e-06
0.0340701 	35.9007 	-0.11915 	-5.71999e-05
0.0343243 	35.9595 	-0.120397 	-0.000110988
0.0345786 	36.0184 	-0.121644 	-0.000164776
0.0348328 	36.0772 	-0.122891 	-0.000137524
0.0350871 	36.136 	-0.124138 	-8.4592e-05
0.0353413 	36.1949 	-0.125385 	-3.16601e-05
0.0355956 	36.2547 	-0.127279 	1.78882e-10
0.0358498 	36.3158 	-0.130139 	3.8819e-11
0.0361041 	36.3774 	-0.129843 	1.03255e-10
0.0363584 	36.4393 	-0.128561 	-4.44707e-06
0.0366126 	36.5035 	-0.129844 	-5.96252e-05
0.0368669 	36.5677 	-0.131127 	-0.000114803
0.0371211 	36.6319 	-0.13241 	-0.000169981
0.0373754 	36.6961 	-0.133694 	-0.000152132
0.0376296 	36.7603 	-0.134977 	-9.7893e-05
0.0378839 	36.8244 	-0.13626 	-4.36543e-05
0.0381381 	36.8891 	-0.13791 	1.94243e-10
0.0383924 	36.9556 	-0.141074 	5.22119e-11
0.0386466 	37.0226 	-0.141126 	9.1796e-11
0.0389009 	37.0901 	-0.139696 	-5.99364e-06
0.0391552 	37.1598 	-0.141014 	-6.24653e-05
0.0394094 	37.2296 	-0.142331 	-0.000118937
0.0396637 	37.2993 	-0.143649 	-0.000175409
0.0399179 	37.369 	-0.144966 	-0.000167474
0.0401722 	37.4388 	-0.146283 	-0.000112025
0.0404264 	37.5085 	-0.147601 	-5.65765e-05
0.0406807 	37.5783 	-0.148918 	-1.1278e-06
0.0409349 	37.6504 	-0.152324 	6.60679e-11
0.0411892 	37.723 	-0.152821 	7.99243e-11
0.0414434 	37.7962 	-0.151293 	-8.08743e-06
0.0416977 	37.8717 	-0.152644 	-6.58075e-05
0.041952 	37.9472 	-0.153995 	-0.000123528
0.0422062 	38.0227 	-0.155346 	-0.000181248
0.0424605 	38.0982 	-0.156696 	-0.000183691
0.0427147 	38.1737 	-0.158047 	-0.000127078
0.042969 	38.2492 	-0.159398 	-7.04651e-05
0.0432232 	38.3247 	-0.160749 	-1.38523e-05
0.0434775 	38.4021 	-0.163893 	8.02944e-11
0.0437317 	38.4805 	-0.164925 	6.7418e-11
0.043986 	38.5598 	-0.163351 	-1.07662e-05
0.0442402 	38.6413 	-0.164735 	-6.9727e-05
0.0444945 	38.7228 	-0.16612 	-0.000128688
0.0447487 	38.8043 	-0.167504 	-0.000187649
0.045003 	38.8858 	-0.168889 	-0.000200915
0.0452573 	38.9673 	-0.170273 	-0.000143147
0.0455115 	39.0488 	-0.171658 	-8.53784e-05
0.0457658 	39.1303 	-0.173042 	-2.76102e-05
0.04602 	39.2131 	-0.175791 	9.45564e-11
0.0462743 	39.2975 	-0.177446 	5.43936e-11
0.0465285 	39.3831 	-0.175883 	-1.40531e-05
0.0467828 	39.4708 	-0.1773 	-7.41967e-05
0.047037 	39.5586 	-0.178717 	-0.00013434
0.0472913 	39.6463 	-0.180134 	-0.000194484
0.0475455 	39.734 	-0.181551 	-0.000218993
0.0477998 	39.8217 	-0.182969 	-0.000160128
0.0480541 	39.9095 	-0.184386 	-0.000101262
0.0483083 	39.9972 	-0.185803 	-4.23958e-05
0.0485626 	40.0857 	-0.188017 	1.08645e-10
0.0488168 	40.1764 	-0.190385 	4.13109e-11
0.0490711 	40.2685 	-0.188894 	-1.79558e-05
0.0493253 	40.3627 	-0.190341 	-7.91688e-05
0.0495796 	40.4569 	-0.191789 	-0.000140382
0.0498338 	40.5511 	-0.193236 	-0.000201595
0.0500881 	40.6453 	-0.194684 	-0.000237704
0.0503423 	40.7395 	-0.196131 	-0.000177852
0.0505966 	40.8337 	-0.197579 	-0.000118
0.0508509 	40.9279 	-0.199027 	-5.81473e-05
0.0511051 	41.0222 	-0.200562 	1.23258e-10
0.0513594 	41.1194 	-0.20373 	2.8078e-11
0.0516136 	41.2184 	-0.202377 	-2.24639e-05
0.0518679 	41.3193 	-0.203852 	-8.45799e-05
0.0521221 	41.4203 	-0.205326 	-0.000146696
0.0523764 	41.5212 	-0.206801 	-0.000208812
0.0526306 	41.6221 	-0.208275 	-0.000256774
0.0528849 	41.7231 	-0.20975 	-0.000196098
0.0531391 	41.824 	-0.211224 	-0.000135422
0.0533934 	41.9249 	-0.212698 	-7.4746e-05
0.0536476 	42.0259 	-0.214173 	-1.40701e-05
0.0539019 	42.1291 	-0.217459 	1.44301e-11
0.0541562 	42.2353 	-0.216316 	-2.75399e-05
0.0544104 	42.3432 	-0.217813 	-9.03308e-05
0.0546647 	42.4511 	-0.219309 	-0.000153122
0.0549189 	42.559 	-0.220806 	-0.000215913
0.0551732 	42.667 	-0.222302 	-0.000275831
0.0554274 	42.7749 	-0.223799 	-0.000214553
0.0556817 	42.8828 	-0.225295 	-0.000153276
0.0559359 	42.9907 	-0.226792 	-9.19977e-05
0.0561902 	43.0986 	-0.228288 	-3.07197e-05
0.0564444 	43.2081 	-0.231536 	5.29861e-13
0.0566987 	43.3217 	-0.23068 	-3.31092e-05
0.056953 	43.4368 	-0.232192 	-9.62748e-05
0.0572072 	43.552 	-0.233704 	-0.00015944
0.0574615 	43.6672 	-0.235216 	-0.000222606
0.0577157 	43.7823 	-0.236728 	-0.000285772
0.05797 	43.8975 	-0.23824 	-0.000232791
0.0582242 	44.0127 	-0.239752 	-0.000171202
0.0584785 	44.1278 	-0.241265 	-0.000109613
0.0587327 	44.243 	-0.242777 	-4.8024e-05
0.058987 	44.3588 	-0.245131 	1.34433e-11
0.0592412 	44.4801 	-0.245423 	-3.91422e-05
0.0594955 	44.6028 	-0.246946 	-0.00010245
0.0597497 	44.7255 	-0.248469 	-0.000165758
0.060004 	44.8481 	-0.249992 	-0.000229066
0.0602583 	44.9708 	-0.251515 	-0.000292374
0.0605125 	45.0934 	-0.253038 	-0.000250842
0.0607668 	45.2161 	-0.254561 	-0.000189166
0.061021 	45.3387 	-0.256084 	-0.00012749
0.0612753 	45.4614 	-0.257607 	-6.58135e-05
0.0615295 	45.5841 	-0.25913 	-4.13751e-06
0.0617838 	45.7131 	-0.260521 	-4.56019e-05
0.062038 	45.8435 	-0.26205 	-0.000108864
0.0622923 	45.9739 	-0.26358 	-0.000172126
0.0625465 	46.1043 	-0.26511 	-0.000235388
0.0628008 	46.2347 	-0.26664 	-0.000298651
0.0630551 	46.365 	-0.268074 	-0.000267612
0.0633093 	46.4953 	-0.269423 	-0.000203991
0.0635636 	46.6256 	-0.270772 	-0.00014037
0.0638178 	46.7559 	-0.272121 	-7.67498e-05
0.0640721 	46.8861 	-0.27347 	-1.31292e-05
0.0643263 	47.0223 	-0.274888 	-4.12377e-05
0.0645806 	47.1605 	-0.276225 	-0.000102174
0.0648348 	47.2988 	-0.277563 	-0.000163109
0.0650891 	47.437 	-0.278901 	-0.000224045
0.0653433 	47.5752 	-0.280238 	-0.000284981
0.0655976 	47.7135 	-0.281576 	-0.000264121
0.0658519 	47.8517 	-0.282914 	-0.000200785
0.0661061 	47.9899 	-0.284251 	-0.000137448
0.0663604 	48.1282 	-0.285589 	-7.41108e-05
0.0666146 	48.2664 	-0.286927 	-1.07739e-05
0.0668689 	48.4099 	-0.288509 	-2.81021e-05
0.0671231 	48.5563 	-0.28985 	-8.93322e-05
0.0673774 	48.7028 	-0.29119 	-0.000150562
0.0676316 	48.8492 	-0.292531 	-0.000211792
0.0678859 	48.9956 	-0.293872 	-0.000273022
0.0681401 	49.142 	-0.295213 	-0.000263023
0.0683944 	49.2885 	-0.296554 	-0.000199324
0.0686486 	49.4349 	-0.297895 	-0.000135624
0.0689029 	49.5813 	-0.299236 	-7.19249e-05
0.0691572 	49.7277 	-0.300577 	-8.22531e-06
0.0694114 	49.8788 	-0.302376 	-1.45846e-05
0.0696657 	50.0337 	-0.303726 	-7.62838e-05
0.0699199 	50.1885 	-0.305075 	-0.000137983
0.0701742 	50.3434 	-0.306425 	-0.000199682
0.0704284 	50.4982 	-0.307775 	-0.000261381
0.0706827 	50.6531 	-0.309125 	-0.000262325
0.0709369 	50.8079 	-0.310474 	-0.000198087
0.0711912 	50.9628 	-0.311824 	-0.00013385
0.0714454 	51.1177 	-0.313174 	-6.96126e-05
0.0716997 	51.2725 	-0.314524 	-5.37518e-06
0.071954 	51.4314 	-0.316586 	-5.3804e-07
0.0722082 	51.5949 	-0.317854 	-5.86574e-05
0.0724625 	51.7584 	-0.319121 	-0.000116777
0.0727167 	51.9219 	-0.320389 	-0.000174896
0.072971 	52.0855 	-0.321657 	-0.000233016
0.0732252 	52.249 	-0.322925 	-0.00024426
0.0734795 	52.4125 	-0.324192 	-0.000183711
0.0737337 	52.576 	-0.32546 	-0.000123161
0.073988 	52.7395 	-0.326728 	-6.2612e-05
0.0742422 	52.903 	-0.327996 	-2.06256e-06
0.0744965 	53.0706 	-0.330084 	6.35039e-05
0.0747508 	53.2421 	-0.331418 	-4.16926e-05
0.075005 	53.4144 	-0.332585 	-9.52889e-05
0.0752593 	53.5866 	-0.333751 	-0.000148885
0.0755135 	53.7589 	-0.334917 	-0.000202481
0.0757678 	53.9311 	-0.336083 	-0.00022238
0.076022 	54.1034 	-0.33725 	-0.000166515
0.0762763 	54.2756 	-0.338416 	-0.00011065
0.0765305 	54.4479 	-0.339582 	-5.4785e-05
0.0767848 	54.6202 	-0.340752 	5.97514e-06
0.077039 	54.7965 	-0.342566 	0.000136934
0.0772933 	54.9759 	-0.344496 	-2.84506e-05
0.0775475 	55.1568 	-0.345643 	-8.08736e-05
0.0778018 	55.3378 	-0.346791 	-0.000133297
0.0780561 	55.5187 	-0.347938 	-0.00018572
0.0783103 	55.6996 	-0.349085 	-0.000214484
0.0785646 	55.8806 	-0.350232 	-0.000159824
0.0788188 	56.0615 	-0.351379 	-0.000105164
0.0790731 	56.2425 	-0.352527 	-5.05034e-05
0.0793273 	56.4237 	-0.353608 	2.48337e-05
0.0795816 	56.6085 	-0.354634 	0.000220085
0.0798358 	56.7956 	-0.357718 	-1.53061e-05
0.0800901 	56.9851 	-0.358827 	-6.56263e-05
0.0803443 	57.1746 	-0.359935 	-0.000115947
0.0805986 	57.3641 	-0.361043 	-0.000166267
0.0808529 	57.5536 	-0.362151 	-0.000202791
0.0811071 	57.7431 	-0.36326 	-0.000150315
0.0813614 	57.9326 	-0.364368 	-9.78393e-05
0.0816156 	58.1221 	-0.365476 	-4.53633e-05
0.0818699 	58.3121 	-0.366292 	4.70972e-05
0.0821241 	58.5053 	-0.365942 	0.000315394
0.0823784 	58.7 	-0.370697 	-2.85551e-06
0.0826326 	58.8978 	-0.371701 	-4.82738e-05
0.0828869 	59.0956 	-0.372705 	-9.36922e-05
0.0831411 	59.2935 	-0.373709 	-0.00013911
0.0833954 	59.4913 	-0.374713 	-0.00018011
0.0836496 	59.6891 	-0.375717 	-0.000132748
0.0839039 	59.887 	-0.376721 	-8.53863e-05
0.0841582 	60.0848 	-0.377725 	-3.80244e-05
0.0844124 	60.2833 	-0.378042 	7.26933e-05
0.0846667 	60.4846 	-0.37579 	0.000421633
0.0849209 	60.6872 	-0.381683 	6.44679e-05
0.0851752 	60.8925 	-0.383412 	-3.01075e-05
0.0854294 	61.0984 	-0.384223 	-6.68463e-05
0.0856837 	61.3043 	-0.385034 	-0.000103585
0.0859379 	61.5101 	-0.385845 	-0.000140324
0.0861922 	61.716 	-0.386656 	-0.00010494
0.0864464 	61.9219 	-0.387467 	-6.66388e-05
0.0867007 	62.1278 	-0.388278 	-2.83378e-05
0.086955 	62.3345 	-0.387864 	0.000100173
0.0872092 	62.5438 	-0.383969 	0.000485265
0.0874635 	62.7541 	-0.38973 	0.000158629
0.0877177 	62.9664 	-0.392761 	-1.44485e-05
0.087972 	63.1799 	-0.393309 	-3.95823e-05
0.0882262 	63.3935 	-0.393856 	-6.47161e-05
0.0884805 	63.607 	-0.394403 	-8.98499e-05
0.0887347 	63.8206 	-0.394951 	-7.00933e-05
0.088989 	64.0341 	-0.395498 	-4.39039e-05
0.0892432 	64.2477 	-0.396045 	-1.77145e-05
0.0894975 	64.4623 	-0.394787 	0.000126971
0.0897518 	64.6791 	-0.389753 	0.000519344
0.090006 	64.8968 	-0.394666 	0.000254878
0.0902603 	65.1155 	-0.399237 	-4.84817e-06
0.0905145 	65.3362 	-0.399547 	-1.9544e-05
0.0907688 	65.5569 	-0.399857 	-3.42399e-05
0.091023 	65.7776 	-0.400167 	-4.89358e-05
0.0912773 	65.9983 	-0.400477 	-3.99894e-05
0.0915315 	66.219 	-0.400787 	-2.46878e-05
0.0917858 	66.4397 	-0.401098 	-9.38626e-06
0.09204 	66.6615 	-0.398982 	0.000152816
0.0922943 	66.8852 	-0.393015 	0.00054813
0.0925485 	67.1096 	-0.396784 	0.000350614
0.0928028 	67.3343 	-0.403028 	-3.17826e-07
0.0930571 	67.5613 	-0.403088 	-4.02903e-06
0.0933113 	67.7883 	-0.403148 	-7.74023e-06
0.0935656 	68.0154 	-0.403209 	-1.14514e-05
0.0938198 	68.2424 	-0.403269 	-9.85127e-06
0.0940741 	68.4694 	-0.403329 	-5.99107e-06
0.0943283 	68.6964 	-0.40339 	-2.13087e-06
0.0945826 	68.9247 	-0.400348 	0.000177485
0.0948368 	69.1544 	-0.393483 	0.000573711
0.0950911 	69.3845 	-0.395775 	0.000444946
0.0953453 	69.6148 	-0.40253 	6.02447e-05
0.0955996 	69.8467 	-0.403365 	8.81395e-06
0.0958539 	70.079 	-0.403101 	1.92642e-05
0.0961081 	70.3113 	-0.402836 	2.97144e-05
0.0963624 	70.5436 	-0.402572 	2.70688e-05
0.0966166 	70.7759 	-0.402307 	1.62133e-05
0.0968709 	71.0081 	-0.402043 	5.35779e-06
0.0971251 	71.2415 	-0.397999 	0.000199194
0.0973794 	71.476 	-0.390273 	0.000592494
0.0976336 	71.7107 	-0.390886 	0.000533537
0.0978879 	71.9455 	-0.397462 	0.000151252
0.0981421 	72.1811 	-0.39968 	1.60818e-05
0.0983964 	72.4172 	-0.399045 	4.26915e-05
0.0986507 	72.6533 	-0.39841 	6.93013e-05
0.0989049 	72.8895 	-0.397775 	6.73145e-05
0.0991592 	73.1256 	-0.39714 	3.97174e-05
0.0994134 	73.3617 	-0.396505 	1.21204e-05
0.0996677 	73.5986 	-0.391412 	0.000216063
0.0999219 	73.8362 	-0.382826 	0.000601327
0.100176 	74.0738 	-0.381607 	0.000611228
0.10043 	74.3116 	-0.387942 	0.000236249
0.100685 	74.5495 	-0.391552 	1.62272e-05
0.100939 	74.7877 	-0.390523 	6.00878e-05
0.101193 	75.0258 	-0.389494 	0.000103948
0.101447 	75.2639 	-0.388464 	0.000108528
0.101702 	75.5021 	-0.387435 	6.31272e-05
0.101956 	75.7402 	-0.386405 	1.77268e-05
0.10221 	75.9786 	-0.380282 	0.000224978
0.102464 	76.2173 	-0.370897 	0.000594065
0.102719 	76.4559 	-0.367793 	0.000668598
0.102973 	76.6947 	-0.373953 	0.000308793
0.103227 	76.9333 	-0.37905 	8.11014e-06
0.103481 	77.1713 	-0.377718 	6.53127e-05
0.103736 	77.4093 	-0.376387 	0.000122515
0.10399 	77.6473 	-0.375055 	0.000138766
0.104244 	77.8853 	-0.373723 	7.9688e-05
0.104498 	78.1233 	-0.372392 	2.06099e-05
0.104753 	78.3609 	-0.365331 	0.000229417
0.105007 	78.5983 	-0.3552 	0.000581744
0.105261 	78.8357 	-0.35019 	0.000715248
0.105516 	79.0731 	-0.356357 	0.000371153
0.10577 	79.3104 	-0.362524 	2.70592e-05
0.106024 	79.546 	-0.361438 	6.79612e-05
0.106278 	79.7815 	-0.359732 	0.000141723
0.106533 	80.0169 	-0.358026 	0.00017598
0.106787 	80.2524 	-0.356321 	9.99947e-05
0.107041 	80.4878 	-0.354615 	2.40095e-05
0.107295 	80.722 	-0.346451 	0.000224971
0.10755 	80.9557 	-0.335304 	0.000553862
0.107804 	81.1893 	-0.327997 	0.00073697
0.108058 	81.4228 	-0.333993 	0.0004151
0.108312 	81.6563 	-0.339989 	9.32288e-05
0.108567 	81.8876 	-0.340251 	6.40191e-05
0.108821 	82.1179 	-0.338175 	0.000154142
0.109075 	82.3482 	-0.336099 	0.000212308
0.109329 	82.5785 	-0.334023 	0.000119734
0.109584 	82.8088 	-0.331947 	2.71609e-05
0.109838 	83.0369 	-0.322904 	0.000210222
0.110092 	83.2642 	-0.31097 	0.000507732
0.110346 	83.4914 	-0.301444 	0.000726546
0.110601 	83.7183 	-0.307549 	0.000434717
0.110855 	83.9452 	-0.313654 	0.000142888
0.111109 	84.1698 	-0.315451 	5.19593e-05
0.111363 	84.3921 	-0.313114 	0.000153765
0.111618 	84.6144 	-0.310778 	0.000237959
0.111872 	84.8368 	-0.308442 	0.000133714
0.112126 	85.0591 	-0.306106 	2.94695e-05
0.11238 	85.2783 	-0.296204 	0.00019226
0.112635 	85.4962 	-0.283321 	0.000460289
0.112889 	85.7141 	-0.271252 	0.000705592
0.113143 	85.9315 	-0.277425 	0.000442018
0.113397 	86.1489 	-0.283598 	0.000178445
0.113652 	86.3643 	-0.286913 	3.77657e-05
0.113906 	86.5755 	-0.284236 	0.000154693
0.11416 	86.7868 	-0.281558 	0.000271621
0.114414 	86.9981 	-0.278881 	0.000153367
0.114669 	87.2094 	-0.276204 	3.40494e-05
0.114923 	87.4164 	-0.26546 	0.000169532
0.115177 	87.6217 	-0.251494 	0.000406761
0.115431 	87.827 	-0.237529 	0.00064399
0.115686 	88.0316 	-0.242935 	0.000432834
0.11594 	88.2362 	-0.249324 	0.000198915
0.116194 	88.4396 	-0.25431 	1.95883e-05
0.116448 	88.6365 	-0.251317 	0.000150484
0.116703 	88.8334 	-0.248325 	0.000281379
0.116957 	89.0303 	-0.245332 	0.000173377
0.117211 	89.2271 	-0.24234 	4.02964e-05
0.117465 	89.4187 	-0.230825 	0.000146174
0.11772 	89.608 	-0.215609 	0.000355831
0.117974 	89.7972 	-0.200393 	0.000565488
0.118228 	89.9857 	-0.203948 	0.000416387
0.118482 	90.1741 	-0.210549 	0.000209057
0.118737 	90.3624 	-0.217149 	1.72661e-06
0.118991 	90.5415 	-0.21401 	0.00013979
0.119245 	90.7205 	-0.210789 	0.000280754
0.119499 	90.8995 	-0.207568 	0.000190756
0.119754 	91.0785 	-0.204347 	4.79956e-05
0.120008 	91.2513 	-0.19249 	0.000124342
0.120262 	91.4211 	-0.176261 	0.000311658
0.120517 	91.5909 	-0.160031 	0.000498975
0.120771 	91.7598 	-0.161622 	0.000399438
0.121025 	91.9284 	-0.168571 	0.000213639
0.121279 	92.097 	-0.175521 	2.78398e-05
0.121534 	92.2564 	-0.173712 	0.000124722
0.121788 	92.4142 	-0.170359 	0.000271426
0.122042 	92.5719 	-0.167007 	0.000205173
0.122296 	92.7297 	-0.163654 	5.71998e-05
0.122551 	92.8808 	-0.151944 	0.000101797
0.122805 	93.0277 	-0.134967 	0.000267738
0.123059 	93.1747 	-0.11799 	0.000433679
0.123313 	93.3208 	-0.117527 	0.000375477
0.123568 	93.4665 	-0.124941 	0.000210367
0.123822 	93.6121 	-0.132355 	4.52561e-05
0.124076 	93.749 	-0.131978 	0.000105329
0.12433 	93.8825 	-0.12866 	0.000250428
0.124585 	94.016 	-0.125342 	0.000211992
0.124839 	94.1495 	-0.122024 	6.62374e-05
0.125093 	94.2763 	-0.111049 	8.02233e-05
0.125347 	94.3977 	-0.0936964 	0.000227271
0.125602 	94.519 	-0.0763435 	0.000374318
0.125856 	94.6396 	-0.0738751 	0.000349445
0.12611 	94.7596 	-0.0819582 	0.000202699
0.126364 	94.8797 	-0.0900413 	5.59536e-05
0.126619 	94.9916 	-0.0912064 	8.37324e-05
0.126873 	95.0986 	-0.088108 	0.000219067
0.127127 	95.2055 	-0.0850097 	0.000208399
0.127381 	95.3125 	-0.0819113 	7.29478e-05
0.127636 	95.4134 	-0.0721977 	6.17908e-05
0.12789 	95.5072 	-0.0547635 	0.000195696
0.128144 	95.6011 	-0.0373293 	0.000329601
0.128398 	95.6943 	-0.0328764 	0.000331409
0.128653 	95.7869 	-0.0417623 	0.000197484
0.128907 	95.8795 	-0.0506481 	6.35592e-05
0.129161 	95.965 	-0.0534101 	6.34759e-05
0.129415 	96.0442 	-0.0506407 	0.000184286
0.12967 	96.1233 	-0.0478714 	0.000197103
0.129924 	96.2025 	-0.045102 	7.64453e-05
0.130178 	96.2767 	-0.0370175 	4.5603e-05
0.130432 	96.3424 	-0.0197429 	0.000170054
0.130687 	96.408 	-0.00246833 	0.000294504
0.130941 	96.4732 	0.00396391 	0.000319015
0.131195 	96.5378 	-0.00578513 	0.000194375
0.131449 	96.6023 	-0.0155342 	6.97352e-05
0.131704 	96.661 	-0.0199432 	4.55316e-05
0.131958 	96.7123 	-0.0175698 	0.000148892
0.132212 	96.7636 	-0.0151964 	0.00017891
0.132466 	96.8148 	-0.012823 	7.58324e-05
0.132721 	96.8626 	-0.00659774 	3.10451e-05
0.132975 	96.9005 	0.0103482 	0.000148495
0.133229 	96.9385 	0.0272941 	0.000265945
0.133483 	96.9761 	0.0357386 	0.000310666
0.133738 	97.0131 	0.0251908 	0.000192909
0.133992 	97.0501 	0.0146429 	7.51526e-05
0.134246 	97.0826 	0.00862884 	3.11647e-05
0.134501 	97.1069 	0.0106121 	0.000117301
0.134755 	97.1313 	0.0125953 	0.000158169
0.135009 	97.1556 	0.0145786 	7.23865e-05
0.135263 	97.178 	0.0188275 	1.70798e-05
0.135518 	97.1896 	0.0353187 	0.000126446
0.135772 	97.2012 	0.05181 	0.000235813
0.136026 	97.2127 	0.0622564 	0.000297582
0.13628 	97.2236 	0.0509174 	0.000187816
0.136535 	97.2345 	0.0395784 	7.8049e-05
0.136789 	97.242 	0.0319879 	2.04133e-05
0.137043 	97.2411 	0.0336214 	9.10563e-05
0.137297 	97.2401 	0.035255 	0.000137552
0.137552 	97.2392 	0.0368885 	6.72947e-05
0.137806 	97.2378 	0.0391345 	4.22901e-06
0.13806 	97.2251 	0.0552902 	0.000104484
0.138314 	97.2123 	0.0714459 	0.000204739
0.138569 	97.1995 	0.0840799 	0.00027983
0.138823 	97.1862 	0.0721077 	0.000179106
0.139077 	97.1729 	0.0601355 	7.8382e-05
0.139331 	97.1572 	0.0511182 	1.28603e-05
0.139586 	97.133 	0.0524671 	7.08355e-05
0.13984 	97.1089 	0.0538161 	0.000119627
0.140094 	97.0848 	0.055165 	6.20437e-05
0.140348 	97.0607 	0.056514 	4.46052e-06
0.140603 	97.0265 	0.0713333 	8.65658e-05
0.140857 	96.9916 	0.0872836 	0.000180399
0.141111 	96.9566 	0.102292 	0.000267982
0.141365 	96.9212 	0.089889 	0.000173616
0.14162 	96.8858 	0.0774858 	7.92509e-05
0.141874 	96.8489 	0.0672597 	8.12415e-06
0.142128 	96.8037 	0.0684479 	5.88425e-05
0.142382 	96.7585 	0.0696361 	0.000109561
0.142637 	96.7133 	0.0708242 	6.05004e-05
0.142891 	96.6681 	0.0720124 	1.01889e-05
0.143145 	96.6151 	0.0849233 	7.04528e-05
0.143399 	96.5601 	0.100811 	0.000158795
0.143654 	96.5052 	0.116699 	0.000247138
0.143908 	96.4499 	0.105719 	0.000168627
0.144162 	96.3946 	0.0930616 	7.9699e-05
0.144416 	96.3384 	0.0818329 	4.86841e-06
0.144671 	96.2743 	0.0829389 	5.1775e-05
0.144925 	96.2102 	0.0840449 	9.86816e-05
0.145179 	96.1461 	0.0851509 	6.19365e-05
0.145433 	96.082 	0.086257 	1.54626e-05
0.145688 	96.012 	0.0972178 	5.53628e-05
0.145942 	95.9391 	0.113092 	0.000138329
0.146196 	95.8662 	0.128967 	0.000221295
0.14645 	95.7932 	0.120448 	0.000162806
0.146705 	95.72 	0.1076 	7.92148e-05
0.146959 	95.6465 	0.0954803 	2.31622e-06
0.147213 	95.5655 	0.0965301 	4.65497e-05
0.147467 	95.4845 	0.0975799 	9.07831e-05
0.147722 	95.4035 	0.0986296 	6.4251e-05
0.147976 	95.3226 	0.0996794 	2.04762e-05
0.14823 	95.2374 	0.108625 	4.14989e-05
0.148484 	95.1486 	0.124511 	0.000119467
0.148739 	95.0598 	0.140396 	0.000197436
0.148993 	94.9708 	0.134408 	0.000156807
0.149247 	94.8818 	0.121413 	7.81844e-05
0.149502 	94.7928 	0.108496 	2.3502e-07
0.149756 	94.6968 	0.109501 	4.22896e-05
0.15001 	94.6008 	0.110505 	8.43441e-05
0.150264 	94.5048 	0.11151 	6.68216e-05
0.150519 	94.4089 	0.112515 	2.52481e-05
0.150773 	94.3102 	0.119357 	2.8481e-05
0.151027 	94.2072 	0.135226 	0.000101007
0.151281 	94.1043 	0.151096 	0.000173534
0.151536 	94.0013 	0.147652 	0.000149087
0.15179 	93.8983 	0.134498 	7.58938e-05
0.152044 	93.7952 	0.121344 	2.70028e-06
0.152298 	93.6863 	0.121765 	3.75981e-05
0.152553 	93.5771 	0.122705 	7.66359e-05
0.152807 	93.468 	0.123646 	6.75054e-05
0.153061 	93.3588 	0.124586 	2.89532e-05
0.153315 	93.2482 	0.129228 	1.65923e-05
0.15357 	93.1329 	0.145034 	8.32282e-05
0.153824 	93.0177 	0.16084 	0.000149864
0.154078 	92.9024 	0.159924 	0.000139673
0.154332 	92.7871 	0.14658 	7.23741e-05
0.154587 	92.6718 	0.133235 	5.0754e-06
0.154841 	92.5517 	0.133013 	3.21795e-05
0.155095 	92.4312 	0.133861 	6.69833e-05
0.155349 	92.3107 	0.134709 	6.51915e-05
0.155604 	92.1901 	0.135557 	3.08528e-05
0.155858 	92.0691 	0.137913 	6.16559e-06
0.156112 	91.9433 	0.153613 	6.68915e-05
0.156366 	91.8176 	0.169312 	0.000127617
0.156621 	91.6919 	0.170913 	0.000129518
0.156875 	91.5661 	0.157349 	6.81457e-05
0.157129 	91.4404 	0.143785 	6.77397e-06
0.157383 	91.3109 	0.142942 	2.63672e-05
0.157638 	91.1808 	0.143677 	5.60053e-05
0.157892 	91.0508 	0.144411 	5.98754e-05
0.158146 	90.9208 	0.145146 	3.06583e-05
0.1584 	90.7907 	0.145881 	1.44118e-06
0.158655 	90.6565 	0.160714 	5.24783e-05
0.158909 	90.5222 	0.176279 	0.000107679
0.159163 	90.3878 	0.180393 	0.000119579
0.159417 	90.2536 	0.1666 	6.37575e-05
0.159672 	90.1193 	0.152806 	7.93576e-06
0.159926 	89.9821 	0.15137 	2.06263e-05
0.16018 	89.8444 	0.151981 	4.46704e-05
0.160434 	89.7068 	0.152592 	5.21799e-05
0.160689 	89.5691 	0.153204 	2.84956e-05
0.160943 	89.4314 	0.153815 	4.81126e-06
0.161197 	89.291 	0.166224 	4.00906e-05
0.161451 	89.1499 	0.18164 	9.04002e-05
0.161706 	89.0089 	0.188278 	0.000110522
0.16196 	88.8679 	0.174262 	5.96177e-05
0.162214 	88.727 	0.160247 	8.71345e-06
0.162468 	88.584 	0.158253 	1.53101e-05
0.162723 	88.4406 	0.158741 	3.37815e-05
0.162977 	88.2972 	0.15923 	4.29024e-05
0.163231 	88.1538 	0.159718 	2.47198e-05
0.163485 	88.0103 	0.160206 	6.53706e-06
0.16374 	87.8653 	0.170157 	2.95486e-05
0.163994 	87.7193 	0.18542 	7.56822e-05
0.164248 	87.5734 	0.194594 	0.000102641
0.164503 	87.4277 	0.180378 	5.59394e-05
0.164757 	87.282 	0.166163 	9.23786e-06
0.165011 	87.1349 	0.163649 	1.05718e-05
0.165265 	86.9876 	0.16402 	2.37499e-05
0.16552 	86.8402 	0.164391 	3.26451e-05
0.165774 	86.6928 	0.164762 	1.96807e-05
0.166028 	86.5455 	0.165133 	6.71634e-06
0.166282 	86.3973 	0.172606 	2.05417e-05
0.166537 	86.2482 	0.187712 	6.31622e-05
0.166791 	86.0992 	0.199431 	9.59286e-05
0.167045 	85.9505 	0.185043 	5.27653e-05
0.167299 	85.8017 	0.170656 	9.602e-06
0.167554 	85.6523 	0.167658 	6.39798e-06
0.167808 	85.5027 	0.16792 	1.4626e-05
0.168062 	85.3531 	0.168181 	2.16692e-05
0.168316 	85.2034 	0.168442 	1.35787e-05
0.168571 	85.0538 	0.168703 	5.48826e-06
0.168825 	84.9039 	0.173687 	1.27521e-05
0.169079 	84.7533 	0.188631 	5.23946e-05
0.169333 	84.6028 	0.202889 	9.01833e-05
0.169588 	84.4526 	0.188361 	5.00218e-05
0.169842 	84.3024 	0.173832 	9.86029e-06
0.170096 	84.1521 	0.170386 	2.76419e-06
0.17035 	84.0017 	0.170545 	6.42747e-06
0.170605 	83.8514 	0.170705 	1.00908e-05
0.170859 	83.701 	0.170865 	6.62515e-06
0.171113 	83.5506 	0.171024 	3.02464e-06
0.171367 	83.4002 	0.173522 	5.9336e-06
0.171622 	83.2496 	0.188296 	4.30123e-05
0.171876 	83.099 	0.203069 	8.0091e-05
0.17213 	82.9487 	0.190448 	4.76211e-05
0.172384 	82.7985 	0.175817 	1.00461e-05
0.172639 	82.6486 	0.171953 	-4.00465e-07
0.172893 	82.4988 	0.172019 	-9.47432e-07
0.173147 	82.349 	0.172084 	-1.4944e-06
0.173401 	82.1992 	0.17215 	-1.07597e-06
0.173656 	82.0494 	0.172215 	-5.38555e-07
0.17391 	81.8996 	0.172281 	-1.14165e-09
0.174164 	81.7501 	0.186831 	3.47312e-05
0.174418 	81.6006 	0.201419 	6.95531e-05
0.174673 	81.4515 	0.191405 	4.54739e-05
0.174927 	81.3025 	0.176706 	1.0178e-05
0.175181 	81.1541 	0.172454 	-3.07405e-06
0.175435 	81.006 	0.172435 	-7.39404e-06
0.17569 	80.8578 	0.172416 	-1.1714e-05
0.175944 	80.7097 	0.172397 	-9.19056e-06
0.176198 	80.5615 	0.172378 	-4.94707e-06
0.176452 	80.4134 	0.172359 	-7.03578e-07
0.176707 	80.2659 	0.184361 	2.728e-05
0.176961 	80.1186 	0.198754 	5.99841e-05
0.177215 	79.9717 	0.191361 	4.33949e-05
0.177469 	79.8248 	0.176646 	1.02404e-05
0.177724 	79.6789 	0.172036 	-5.29571e-06
0.177978 	79.5333 	0.171942 	-1.29584e-05
0.178232 	79.3877 	0.171847 	-2.0621e-05
0.178486 	79.2422 	0.171753 	-1.75299e-05