/*--------------------------------*- C++ -*----------------------------------*\
| =========                 |                                                 |
| \\      /  F ield         | OpenFOAM: The Open Source CFD Toolbox           |
|  \\    /   O peration     | Version:  v3.0+                                 |
|   \\  /    A nd           | Web:      www.OpenFOAM.com                      |
|    \\/     M anipulation  |                                                 |
\*---------------------------------------------------------------------------*/
FoamFile
{
    version     2.0;
    format      ascii;
    class       volVectorField;
    location    "2000";
    object      D;
}
// * * * * * * * * * * * * * * * * * * * * * * * * * * * * * * * * * * * * * //

dimensions      [0 1 0 0 0 0 0];

internalField   nonuniform List<vector> 
27023
(
(4.66613e-07 1.51713e-07 0)
(-4.6789e-07 1.51956e-07 0)
(-3.76019e-07 1.14336e-07 0)
(3.75021e-07 1.14065e-07 0)
(4.60095e-07 1.46622e-07 0)
(-4.61359e-07 1.46876e-07 0)
(-1.66187e-06 1.30383e-06 0)
(1.65808e-06 1.30344e-06 0)
(-2.19404e-07 6.98158e-08 0)
(2.18845e-07 6.94859e-08 0)
(-1.19316e-06 7.56824e-07 0)
(1.18993e-06 7.56577e-07 0)
(-5.20385e-08 4.85056e-08 0)
(5.19331e-08 4.8147e-08 0)
(8.72594e-07 3.02003e-06 0)
(-3.86094e-08 3.64818e-07 0)
(-4.7327e-08 3.45809e-07 0)
(1.71135e-06 2.69661e-06 0)
(-1.71646e-06 2.69694e-06 0)
(-1.21102e-06 2.36383e-06 0)
(1.20599e-06 2.36359e-06 0)
(-1.67669e-06 1.322e-06 0)
(1.67288e-06 1.32161e-06 0)
(-1.06125e-06 1.11016e-06 0)
(1.05734e-06 1.10991e-06 0)
(-2.32754e-07 2.06592e-06 0)
(7.21009e-07 7.64884e-07 0)
(-6.40589e-07 5.01466e-05 0)
(7.37372e-07 7.82136e-07 0)
(-2.44647e-06 1.34546e-05 0)
(-4.38078e-07 2.20555e-06 0)
(-1.2372e-06 2.38996e-06 0)
(1.23217e-06 2.38972e-06 0)
(1.66947e-06 4.42493e-06 0)
(8.83848e-07 3.06694e-06 0)
(-1.66657e-06 6.83339e-06 0)
(-1.01397e-06 1.83191e-06 0)
(1.00932e-06 1.83165e-06 0)
(-2.25555e-07 7.1328e-08 0)
(2.25e-07 7.10143e-08 0)
(3.68056e-07 1.11705e-07 0)
(-3.69033e-07 1.11977e-07 0)
(1.51086e-06 1.32441e-05 0)
(4.69245e-07 1.51181e-07 0)
(-4.70535e-07 1.5143e-07 0)
(-1.74012e-06 2.72814e-06 0)
(1.73499e-06 2.72781e-06 0)
(-1.09514e-06 1.5221e-06 0)
(1.09085e-06 1.5218e-06 0)
(-1.58038e-06 6.84873e-06 0)
(-1.07181e-06 1.50934e-06 0)
(1.06752e-06 1.50904e-06 0)
(1.71307e-06 4.48217e-06 0)
(-4.48408e-08 2.63662e-08 0)
(4.47327e-08 2.60882e-08 0)
(-1.85501e-06 4.36855e-06 0)
(-1.92021e-06 1.7626e-05 0)
(-7.82372e-06 6.97354e-05 0)
(8.86386e-07 6.94912e-06 0)
(-3.72778e-07 1.1382e-07 0)
(3.71796e-07 1.13567e-07 0)
(-2.25699e-06 1.33854e-05 0)
(-1.25413e-07 2.7671e-06 0)
(-9.1256e-07 4.78334e-05 0)
(1.65988e-06 1.33918e-05 0)
(-4.10143e-07 2.20007e-06 0)
(-1.15767e-06 2.71199e-06 0)
(-2.56602e-07 2.05993e-06 0)
(7.08595e-07 4.91759e-07 0)
(9.77172e-07 6.9461e-06 0)
(-9.92444e-07 1.83594e-06 0)
(9.8778e-07 1.83569e-06 0)
(-1.42915e-06 1.429e-06 0)
(1.42507e-06 1.42865e-06 0)
(-2.43047e-06 2.58767e-06 0)
(2.42563e-06 2.58714e-06 0)
(-2.94512e-08 3.54633e-08 0)
(2.94007e-08 3.51608e-08 0)
(2.01791e-06 1.74041e-06 0)
(-2.02209e-06 1.7409e-06 0)
(6.295e-07 1.36861e-06 0)
(-1.18397e-06 7.51844e-07 0)
(1.18073e-06 7.51601e-07 0)
(-1.41558e-06 1.43467e-06 0)
(1.41149e-06 1.43433e-06 0)
(2.65466e-06 2.74937e-06 0)
(-2.65959e-06 2.74993e-06 0)
(1.15351e-06 2.70809e-06 0)
(-9.01052e-08 5.07692e-05 0)
(1.07293e-05 0.000156943 0)
(-1.04312e-05 0.000156854 0)
(-5.13248e-07 1.63818e-07 0)
(5.118e-07 1.63556e-07 0)
(-4.2111e-07 3.83419e-07 0)
(8.37497e-08 3.60857e-08 0)
(1.02124e-06 1.00217e-06 0)
(-1.02506e-06 1.0024e-06 0)
(6.42592e-07 1.35454e-06 0)
(1.14924e-06 1.03198e-05 0)
(-2.48055e-08 8.28781e-06 0)
(2.27379e-06 1.46286e-05 0)
(1.07843e-05 0.000159198 0)
(-1.02845e-05 0.000159259 0)
(-1.4883e-06 1.21416e-06 0)
(1.48451e-06 1.21383e-06 0)
(-1.33953e-07 8.23377e-06 0)
(-1.66471e-06 1.39799e-06 0)
(1.66079e-06 1.3976e-06 0)
(-1.86554e-06 4.31961e-06 0)
(-8.36857e-06 7.06366e-05 0)
(-1.70969e-06 1.78385e-05 0)
(-1.65914e-06 1.40525e-06 0)
(1.6552e-06 1.40486e-06 0)
(-1.03982e-06 1.09113e-06 0)
(1.03591e-06 1.09089e-06 0)
(-2.44095e-06 2.62163e-06 0)
(2.43608e-06 2.62111e-06 0)
(-3.97208e-07 3.38703e-08 0)
(6.64228e-07 2.47283e-07 0)
(7.25855e-07 2.0531e-06 0)
(-7.13479e-07 3.56344e-06 0)
(-9.29645e-08 2.75993e-06 0)
(1.14641e-06 6.80911e-07 0)
(-1.14931e-06 6.81187e-07 0)
(-1.79179e-06 1.42056e-06 0)
(1.78792e-06 1.42012e-06 0)
(-5.14944e-07 1.61954e-07 0)
(5.13481e-07 1.61686e-07 0)
(-1.47179e-06 1.19391e-06 0)
(1.46802e-06 1.19358e-06 0)
(1.00757e-06 1.02262e-05 0)
(8.03699e-09 1.65963e-08 0)
(-7.94553e-09 1.62678e-08 0)
(4.26364e-07 2.27406e-06 0)
(-6.7014e-07 3.57242e-06 0)
(2.6732e-06 2.78327e-06 0)
(-2.67815e-06 2.78383e-06 0)
(-2.21888e-07 1.17876e-06 0)
(-1.67295e-06 2.4394e-06 0)
(1.66804e-06 2.43906e-06 0)
(1.50827e-06 1.12233e-06 0)
(-1.51188e-06 1.12267e-06 0)
(1.47397e-07 1.29463e-06 0)
(-1.60929e-06 1.25225e-06 0)
(1.60555e-06 1.25188e-06 0)
(4.27874e-07 2.30688e-06 0)
(1.5996e-06 1.86445e-05 0)
(-8.65335e-07 6.24417e-07 0)
(-1.18688e-06 2.73222e-06 0)
(-7.17574e-07 2.9461e-07 0)
(7.1557e-07 2.94389e-07 0)
(-8.40871e-07 3.6868e-07 0)
(8.38468e-07 3.68456e-07 0)
(1.77202e-06 1.06875e-05 0)
(7.53957e-07 2.0483e-06 0)
(7.96791e-06 9.37103e-05 0)
(-7.92554e-06 9.36739e-05 0)
(-9.17829e-07 3.094e-06 0)
(-1.67501e-06 2.41336e-06 0)
(1.67013e-06 2.41301e-06 0)
(3.14781e-06 8.75503e-06 0)
(1.89454e-06 1.86873e-05 0)
(5.96368e-06 2.99663e-05 0)
(-2.24064e-07 7.60228e-06 0)
(9.63768e-07 4.8493e-07 0)
(-9.66444e-07 4.85164e-07 0)
(1.4028e-06 1.01021e-06 0)
(-1.40631e-06 1.01052e-06 0)
(4.66516e-07 1.41431e-06 0)
(-4.96633e-08 1.38534e-06 0)
(-9.34575e-07 4.70999e-05 0)
(2.00082e-06 1.7189e-06 0)
(-2.00498e-06 1.71939e-06 0)
(6.53331e-06 9.39901e-05 0)
(-6.50006e-06 9.3933e-05 0)
(4.72031e-06 5.1208e-05 0)
(-1.47976e-07 7.54623e-06 0)
(1.5318e-07 1.27579e-06 0)
(3.96354e-06 5.1294e-05 0)
(-2.40817e-07 1.16523e-06 0)
(1.18367e-06 2.72827e-06 0)
(1.4927e-06 1.11311e-06 0)
(-1.49632e-06 1.11344e-06 0)
(2.16911e-06 1.48425e-05 0)
(2.00882e-06 4.01913e-06 0)
(2.06551e-06 4.02268e-06 0)
(1.00096e-06 1.00054e-06 0)
(-1.00479e-06 1.00077e-06 0)
(5.78596e-06 3.03274e-05 0)
(1.70393e-06 2.50491e-05 0)
(1.39178e-06 9.94904e-07 0)
(-1.39527e-06 9.95207e-07 0)
(5.76365e-07 1.13529e-06 0)
(-2.11771e-07 4.76949e-06 0)
(-1.78968e-06 1.42753e-06 0)
(1.78579e-06 1.42709e-06 0)
(4.72088e-06 1.47245e-05 0)
(1.32178e-06 8.99708e-07 0)
(-1.32515e-06 8.99993e-07 0)
(6.49175e-07 2.42518e-07 0)
(-9.55944e-07 3.11387e-06 0)
(6.96392e-07 5.0211e-07 0)
(-2.75947e-06 3.2591e-06 0)
(2.75419e-06 3.25856e-06 0)
(4.59746e-07 1.44979e-07 0)
(-4.61015e-07 1.4524e-07 0)
(6.0712e-07 1.95297e-06 0)
(3.41825e-06 8.45427e-06 0)
(-2.71414e-06 3.22874e-06 0)
(2.70888e-06 3.22821e-06 0)
(-3.49492e-10 7.38176e-09 0)
(3.45763e-10 7.31752e-09 0)
(-3.9608e-07 3.69461e-07 0)
(6.33723e-07 1.96484e-06 0)
(2.35592e-07 7.47205e-08 0)
(-2.36243e-07 7.51741e-08 0)
(6.61247e-07 1.10199e-06 0)
(-6.74198e-08 1.37178e-06 0)
(-6.14787e-07 3.06093e-05 0)
(2.17789e-06 2.11882e-06 0)
(-2.18239e-06 2.11933e-06 0)
(1.83537e-06 2.54736e-05 0)
(1.15725e-06 6.91695e-07 0)
(-1.16017e-06 6.91973e-07 0)
(1.75501e-06 1.08422e-05 0)
(-1.95546e-06 2.06928e-06 0)
(1.95095e-06 2.06882e-06 0)
(-1.39158e-06 1.29627e-06 0)
(1.38763e-06 1.29595e-06 0)
(-1.26756e-07 5.28546e-08 0)
(1.26469e-07 5.25165e-08 0)
(-1.76182e-06 7.15471e-05 0)
(-2.0232e-06 2.10963e-06 0)
(2.01868e-06 2.10916e-06 0)
(3.04501e-06 8.63098e-06 0)
(-2.21497e-06 2.52046e-06 0)
(2.21015e-06 2.51998e-06 0)
(-3.7911e-06 5.41806e-06 0)
(-1.26155e-06 3.94109e-06 0)
(1.69864e-06 1.31793e-06 0)
(-1.70242e-06 1.31834e-06 0)
(-7.32116e-07 5.94568e-07 0)
(-5.39106e-06 2.11246e-05 0)
(-2.69216e-06 6.19164e-06 0)
(1.47925e-06 3.36366e-06 0)
(-4.16993e-07 2.41953e-07 0)
(5.08861e-08 1.76947e-05 0)
(6.61309e-07 6.85756e-07 0)
(-3.35319e-06 1.26452e-05 0)
(1.50418e-06 3.41143e-06 0)
(1.86236e-06 1.62008e-06 0)
(-1.86646e-06 1.62053e-06 0)
(1.3365e-06 9.78776e-06 0)
(3.50029e-07 6.05118e-07 0)
(4.75119e-06 1.53298e-05 0)
(3.41031e-06 8.57004e-06 0)
(-3.1911e-06 5.49746e-06 0)
(3.53115e-06 1.0418e-05 0)
(-1.38006e-06 2.4661e-06 0)
(1.37503e-06 2.46584e-06 0)
(-3.52293e-07 1.10553e-08 0)
(-8.97748e-08 9.83147e-07 0)
(-7.47859e-06 3.91907e-05 0)
(-2.24333e-06 2.51344e-06 0)
(2.23851e-06 2.51295e-06 0)
(-1.62458e-06 1.26849e-06 0)
(1.62082e-06 1.26811e-06 0)
(-2.50615e-07 3.18934e-06 0)
(2.7667e-07 6.00481e-07 0)
(-1.1364e-06 6.63488e-07 0)
(1.13347e-06 6.63221e-07 0)
(-3.98627e-06 2.7872e-05 0)
(6.43548e-07 2.63146e-06 0)
(1.84642e-06 6.12192e-06 0)
(-6.54644e-07 1.19389e-05 0)
(-1.82202e-07 4.83252e-06 0)
(9.73974e-07 4.94953e-07 0)
(-9.76672e-07 4.95189e-07 0)
(1.43378e-06 2.69367e-06 0)
(-1.43898e-06 2.69392e-06 0)
(-4.29079e-06 2.15123e-05 0)
(2.34461e-06 6.30505e-06 0)
(-8.02345e-06 0.000169525 0)
(7.92621e-06 0.000169351 0)
(3.60438e-09 2.99645e-08 0)
(-3.58407e-09 3.02294e-08 0)
(8.53217e-07 5.42339e-06 0)
(1.39191e-06 7.18452e-06 0)
(-2.31886e-07 2.2487e-07 0)
(-7.68796e-07 3.16294e-07 0)
(-2.24794e-06 0.000140387 0)
(9.28034e-07 5.51039e-06 0)
(1.83301e-06 1.89282e-06 0)
(-1.83738e-06 1.89326e-06 0)
(2.46787e-06 2.50716e-06 0)
(-2.47264e-06 2.50771e-06 0)
(3.00675e-06 1.24448e-05 0)
(-2.6784e-06 5.6597e-06 0)
(2.63741e-06 3.02432e-06 0)
(-2.64254e-06 3.02484e-06 0)
(-4.70497e-08 5.33105e-08 0)
(-1.53138e-07 3.97725e-07 0)
(1.44586e-06 1.09739e-06 0)
(-1.4495e-06 1.09771e-06 0)
(1.92566e-07 5.33396e-10 0)
(-3.36094e-07 8.8972e-08 0)
(3.3513e-07 8.85879e-08 0)
(-6.78978e-07 1.09737e-06 0)
(-9.88947e-07 3.38553e-06 0)
(4.03747e-07 1.70551e-05 0)
(-4.79343e-07 4.29089e-05 0)
(-6.47735e-09 2.86737e-08 0)
(6.5014e-09 2.84035e-08 0)
(-1.55498e-07 4.4526e-08 0)
(1.5514e-07 4.4249e-08 0)
(-2.56669e-06 1.12717e-05 0)
(1.18328e-06 1.95709e-06 0)
(-1.18796e-06 1.95738e-06 0)
(-4.30435e-08 2.04689e-06 0)
(-1.10567e-06 4.18388e-06 0)
(-7.65189e-08 5.84343e-08 0)
(7.6335e-08 5.80052e-08 0)
(7.95398e-07 8.26933e-07 0)
(4.94784e-07 1.40565e-07 0)
(3.9304e-07 3.32087e-08 0)
(-1.31709e-06 5.45238e-06 0)
(4.36351e-06 9.88513e-06 0)
(-2.96532e-07 3.20216e-06 0)
(-8.4157e-07 6.10644e-07 0)
(9.45958e-07 5.79265e-07 0)
(3.83032e-07 8.95899e-07 0)
(-9.49031e-07 5.79781e-07 0)
(5.04231e-06 1.06555e-05 0)
(-8.11361e-08 3.64875e-08 0)
(-2.36629e-06 1.124e-05 0)
(6.22269e-07 2.385e-07 0)
(-6.24e-07 2.3872e-07 0)
(4.3419e-07 2.10256e-06 0)
(-2.07105e-07 4.17341e-07 0)
(-1.52778e-06 1.34454e-06 0)
(1.52385e-06 1.34419e-06 0)
(6.91769e-06 2.65909e-05 0)
(-6.95504e-06 2.65972e-05 0)
(-5.50524e-10 7.22005e-09 0)
(5.4524e-10 7.15717e-09 0)
(6.67755e-07 4.89949e-07 0)
(-4.87726e-07 1.67444e-07 0)
(4.86405e-07 1.67229e-07 0)
(2.48569e-06 2.45733e-05 0)
(-3.68649e-07 2.91808e-06 0)
(4.8905e-06 2.35921e-05 0)
(-4.89929e-06 2.35923e-05 0)
(-2.0568e-06 2.1231e-06 0)
(2.05227e-06 2.12262e-06 0)
(-3.36084e-08 2.38162e-08 0)
(3.35407e-08 2.3554e-08 0)
(-1.23482e-07 9.33938e-08 0)
(1.96457e-06 1.72761e-06 0)
(-1.96876e-06 1.72809e-06 0)
(2.41669e-07 6.38233e-06 0)
(7.46759e-07 3.47039e-07 0)
(2.55799e-06 3.0536e-06 0)
(-2.56315e-06 3.0541e-06 0)
(1.42907e-06 9.96718e-07 0)
(-1.43249e-06 9.97043e-07 0)
(-3.0885e-06 6.92845e-05 0)
(2.30703e-06 1.10231e-05 0)
(1.25545e-07 4.67933e-07 0)
(5.7821e-07 2.01546e-07 0)
(-5.79844e-07 2.01787e-07 0)
(2.02637e-06 1.79975e-06 0)
(-2.03061e-06 1.80024e-06 0)
(3.46734e-07 2.24653e-07 0)
(1.95645e-06 3.6832e-06 0)
(3.83769e-07 2.67743e-08 0)
(2.53073e-06 5.52809e-06 0)
(1.95496e-06 3.73194e-06 0)
(8.05591e-07 1.21782e-06 0)
(5.78065e-06 4.08122e-05 0)
(-9.265e-07 1.63702e-06 0)
(-1.05658e-06 4.14934e-06 0)
(9.22013e-07 1.63674e-06 0)
(-1.7057e-06 1.35876e-06 0)
(1.70186e-06 1.35836e-06 0)
(6.59605e-07 7.25789e-07 0)
(-3.01492e-07 1.35546e-06 0)
(-1.97857e-06 2.45314e-05 0)
(3.70582e-06 1.05461e-05 0)
(8.98393e-07 6.31852e-07 0)
(4.94511e-08 -7.39721e-08 0)
(6.12722e-07 5.56616e-07 0)
(-4.30335e-06 0.000140556 0)
(-7.49819e-07 3.4733e-07 0)
(-3.46881e-06 0.000155966 0)
(-2.31459e-08 3.26429e-07 0)
(4.02368e-07 6.91684e-06 0)
(-1.2764e-06 3.78327e-06 0)
(-1.68996e-06 1.60463e-05 0)
(4.24846e-06 7.27215e-06 0)
(1.38677e-06 3.79066e-06 0)
(-1.38021e-06 1.303e-06 0)
(1.37625e-06 1.30268e-06 0)
(-4.84682e-07 2.85733e-07 0)
(5.84061e-07 1.11627e-06 0)
(-1.39695e-06 4.2868e-05 0)
(5.98075e-07 2.08489e-07 0)
(-5.99781e-07 2.08733e-07 0)
(-1.49559e-08 1.66487e-06 0)
(-6.23309e-07 3.02105e-06 0)
(9.2192e-07 8.66869e-07 0)
(-6.51711e-08 2.05337e-06 0)
(-9.24245e-07 8.66972e-07 0)
(-1.35324e-09 2.13997e-08 0)
(1.35427e-09 2.12251e-08 0)
(2.59872e-06 3.77222e-05 0)
(-1.93767e-06 4.91403e-06 0)
(-6.74575e-07 2.16954e-07 0)
(-2.00892e-06 3.52474e-06 0)
(-1.39543e-06 5.40117e-06 0)
(1.53875e-06 4.08619e-06 0)
(-4.30684e-07 1.17714e-06 0)
(2.27547e-06 5.44452e-06 0)
(-3.03478e-07 -1.19423e-08 0)
(-1.52549e-07 1.27333e-06 0)
(-6.91142e-07 3.10706e-05 0)
(3.65871e-06 6.33935e-06 0)
(2.52777e-06 3.00555e-06 0)
(-2.53291e-06 3.00604e-06 0)
(4.80744e-06 1.14473e-05 0)
(-5.00074e-07 1.20487e-05 0)
(-8.12242e-06 3.94511e-05 0)
(6.70013e-07 1.08352e-06 0)
(-2.32804e-06 2.72623e-06 0)
(2.32308e-06 2.72574e-06 0)
(1.32939e-06 1.50262e-06 0)
(-1.33358e-06 1.50296e-06 0)
(-2.34593e-06 4.86309e-06 0)
(-8.35415e-08 -6.79908e-08 0)
(-2.68514e-07 7.74569e-08 0)
(2.67846e-07 7.71996e-08 0)
(7.51701e-06 2.39075e-05 0)
(-7.52624e-06 2.39077e-05 0)
(-1.40455e-06 2.15334e-06 0)
(1.3998e-06 2.15303e-06 0)
(-3.73656e-10 1.22574e-08 0)
(3.76177e-10 1.23632e-08 0)
(4.2207e-07 1.13889e-06 0)
(6.21125e-07 5.84407e-06 0)
(1.68051e-06 3.80434e-06 0)
(6.40818e-08 -4.39139e-08 0)
(2.42339e-07 7.47818e-09 0)
(1.30593e-06 8.63857e-07 0)
(-1.30922e-06 8.64144e-07 0)
(1.32314e-06 8.82004e-07 0)
(-1.32645e-06 8.82296e-07 0)
(-1.63937e-06 3.08984e-06 0)
(1.63393e-06 3.08954e-06 0)
(-7.96675e-07 3.49628e-07 0)
(7.94456e-07 3.49405e-07 0)
(2.75756e-07 1.08794e-06 0)
(-2.09648e-08 1.25047e-06 0)
(3.3642e-07 2.58475e-06 0)
(1.99378e-06 5.61974e-06 0)
(-4.86734e-07 9.18559e-07 0)
(-5.52986e-06 2.14454e-05 0)
(7.38567e-07 4.21647e-06 0)
(1.71771e-06 1.34218e-06 0)
(-1.72151e-06 1.34259e-06 0)
(2.18162e-06 5.76162e-06 0)
(-2.42767e-06 2.45146e-05 0)
(-2.81716e-06 5.44926e-05 0)
(-3.19464e-06 6.51154e-06 0)
(-2.2803e-06 4.68202e-06 0)
(8.01947e-07 7.80483e-07 0)
(3.82836e-07 2.04331e-06 0)
(-1.77418e-06 1.76386e-06 0)
(1.76991e-06 1.76344e-06 0)
(3.96906e-06 5.42813e-05 0)
(-3.85215e-06 5.42859e-05 0)
(-3.50246e-07 1.03975e-07 0)
(3.49301e-07 1.03643e-07 0)
(-2.01033e-06 2.11833e-06 0)
(2.00579e-06 2.11786e-06 0)
(-7.31751e-08 2.35166e-06 0)
(-2.94681e-07 9.33897e-07 0)
(3.95738e-07 2.02447e-06 0)
(-3.73865e-07 2.29851e-08 0)
(-6.14502e-06 1.52395e-05 0)
(-4.00954e-06 0.000113533 0)
(1.16349e-06 7.14236e-07 0)
(-1.16664e-06 7.14482e-07 0)
(1.21414e-06 4.02837e-06 0)
(-7.69291e-07 3.11559e-07 0)
(-7.02296e-08 2.38739e-06 0)
(1.18619e-06 1.98315e-06 0)
(-1.19089e-06 1.98344e-06 0)
(-5.41292e-07 1.90177e-07 0)
(5.39799e-07 1.8995e-07 0)
(-6.15982e-07 5.49157e-07 0)
(4.64965e-06 1.14493e-05 0)
(1.48873e-06 4.10442e-06 0)
(5.62416e-07 1.53154e-07 0)
(-5.64202e-07 1.53444e-07 0)
(4.17062e-06 2.19504e-05 0)
(1.5713e-07 4.38954e-07 0)
(-9.77175e-07 1.55216e-06 0)
(9.72807e-07 1.55187e-06 0)
(7.87692e-07 1.19598e-06 0)
(-1.45407e-06 1.0076e-06 0)
(1.45068e-06 1.00726e-06 0)
(-1.222e-06 7.88371e-07 0)
(1.21873e-06 7.88116e-07 0)
(9.05832e-07 7.03326e-07 0)
(1.03096e-06 5.62987e-07 0)
(-1.03368e-06 5.63243e-07 0)
(8.60839e-07 3.97142e-06 0)
(2.02323e-06 9.59029e-06 0)
(-2.19969e-06 2.71247e-06 0)
(2.19471e-06 2.71202e-06 0)
(2.00378e-06 3.52543e-06 0)
(2.48711e-06 2.86097e-06 0)
(-2.49215e-06 2.86148e-06 0)
(-4.68214e-06 2.14456e-05 0)
(1.66241e-06 1.62436e-06 0)
(-1.66658e-06 1.62476e-06 0)
(1.46493e-06 2.7153e-06 0)
(-1.47013e-06 2.71556e-06 0)
(3.60327e-07 2.3189e-06 0)
(-8.70824e-07 4.35348e-07 0)
(8.68504e-07 4.35113e-07 0)
(7.37694e-06 4.98129e-05 0)
(4.11998e-07 7.02862e-06 0)
(2.65321e-07 2.30504e-06 0)
(3.14112e-07 1.36408e-06 0)
(-1.15571e-06 1.02234e-06 0)
(1.15194e-06 1.02209e-06 0)
(1.94375e-06 1.72941e-06 0)
(-1.94794e-06 1.72988e-06 0)
(1.28673e-06 4.03952e-06 0)
(4.72645e-06 1.45247e-05 0)
(-8.09701e-07 1.21818e-06 0)
(-2.63699e-07 2.52272e-05 0)
(8.24663e-07 6.27326e-07 0)
(8.08982e-07 7.62539e-07 0)
(-3.99444e-06 5.31983e-05 0)
(2.62599e-07 7.52771e-08 0)
(-2.63253e-07 7.55334e-08 0)
(5.58348e-06 1.48785e-05 0)
(2.48292e-06 2.54009e-06 0)
(-2.48772e-06 2.54064e-06 0)
(-4.37966e-06 2.82222e-05 0)
(-9.26236e-08 2.28151e-06 0)
(1.52705e-06 1.36255e-06 0)
(-1.531e-06 1.3629e-06 0)
(7.41238e-07 3.34318e-07 0)
(4.81947e-06 2.39019e-05 0)
(-4.82828e-06 2.39021e-05 0)
(-2.80273e-08 1.68376e-06 0)
(-6.73612e-08 -8.05724e-08 0)
(1.07139e-06 1.15449e-05 0)
(6.84802e-07 7.35567e-07 0)
(1.09667e-06 3.89864e-06 0)
(-9.83425e-07 1.52971e-06 0)
(9.79082e-07 1.52942e-06 0)
(3.13637e-06 1.26098e-05 0)
(9.47456e-09 2.86278e-07 0)
(-1.75782e-06 2.18245e-06 0)
(1.75316e-06 2.18206e-06 0)
(-5.28223e-07 3.4824e-06 0)
(1.21598e-06 2.45097e-06 0)
(-1.22106e-06 2.4512e-06 0)
(4.2909e-07 3.33927e-06 0)
(-5.86876e-07 2.2366e-07 0)
(5.85267e-07 2.23449e-07 0)
(1.31333e-06 8.97702e-07 0)
(-1.31671e-06 8.97983e-07 0)
(6.55349e-07 2.74501e-07 0)
(-6.57141e-07 2.74706e-07 0)
(-2.86078e-06 1.00189e-05 0)
(7.18522e-07 1.08733e-06 0)
(-7.24293e-07 1.08787e-06 0)
(-3.33653e-06 1.2443e-05 0)
(7.40796e-07 3.14437e-07 0)
(-7.42862e-07 3.14656e-07 0)
(1.62164e-06 7.17762e-06 0)
(-3.32327e-07 5.18837e-07 0)
(4.48285e-07 1.428e-06 0)
(2.03766e-06 4.92907e-06 0)
(-6.39996e-08 2.32719e-07 0)
(1.03304e-07 2.67195e-08 0)
(3.47789e-07 2.44069e-07 0)
(3.69958e-06 6.27305e-06 0)
(-1.01665e-06 1.09312e-06 0)
(1.01274e-06 1.09288e-06 0)
(-6.07283e-06 4.65859e-05 0)
(-1.01323e-06 1.11954e-06 0)
(1.00929e-06 1.1193e-06 0)
(8.36383e-06 7.47288e-05 0)
(1.37109e-06 1.39692e-06 0)
(-1.37515e-06 1.39725e-06 0)
(3.69783e-07 2.60244e-06 0)
(1.70458e-07 6.41994e-06 0)
(1.23961e-06 2.42843e-06 0)
(-1.24467e-06 2.42866e-06 0)
(-2.24786e-06 2.65574e-06 0)
(2.24293e-06 2.65527e-06 0)
(-2.67831e-06 5.7362e-06 0)
(-5.32731e-07 1.08053e-06 0)
(-7.63542e-07 6.40879e-07 0)
(-1.55722e-06 1.78403e-06 0)
(1.55286e-06 1.78366e-06 0)
(-2.1725e-06 2.19064e-06 0)
(2.16793e-06 2.19013e-06 0)
(-2.53266e-06 1.78019e-05 0)
(8.14e-07 4.00446e-06 0)
(-7.68665e-06 0.000172442 0)
(7.53798e-06 0.000172216 0)
(-8.27212e-07 1.60214e-06 0)
(8.22656e-07 1.60183e-06 0)
(8.45908e-06 6.99367e-05 0)
(2.21159e-09 2.43351e-09 0)
(6.8913e-10 1.0008e-09 0)
(-6.94888e-10 1.00964e-09 0)
(-2.22969e-09 2.45461e-09 0)
(1.28434e-06 9.94451e-06 0)
(-5.03998e-08 4.96375e-08 0)
(5.02824e-08 4.92741e-08 0)
(7.30313e-07 2.95466e-07 0)
(-7.32387e-07 2.95689e-07 0)
(5.02608e-07 1.61074e-07 0)
(-5.0402e-07 1.61334e-07 0)
(-5.91222e-07 2.27536e-07 0)
(5.89603e-07 2.27326e-07 0)
(-1.48412e-07 7.61581e-07 0)
(-1.25219e-06 1.24723e-06 0)
(1.24822e-06 1.24693e-06 0)
(1.75154e-06 4.32936e-06 0)
(4.49799e-06 5.82307e-05 0)
(1.18194e-06 1.20301e-06 0)
(-1.18589e-06 1.20329e-06 0)
(1.04307e-06 3.885e-06 0)
(-1.45326e-06 1.6632e-06 0)
(1.44898e-06 1.66285e-06 0)
(1.41287e-06 4.47401e-06 0)
(8.19663e-07 2.49975e-06 0)
(-2.28299e-06 4.74621e-06 0)
(6.29011e-07 2.56776e-07 0)
(-6.30731e-07 2.56981e-07 0)
(-2.03784e-06 3.99828e-06 0)
(-1.6793e-07 4.95776e-06 0)
(3.78084e-09 1.39963e-06 0)
(2.89565e-06 2.49291e-05 0)
(1.67777e-06 1.62111e-06 0)
(-1.68193e-06 1.62151e-06 0)
(1.55211e-07 1.99797e-08 0)
(-8.90873e-07 6.69414e-07 0)
(1.9998e-06 1.77873e-06 0)
(-2.00403e-06 1.77921e-06 0)
(-7.58188e-11 1.04761e-08 0)
(7.61051e-11 1.05652e-08 0)
(-1.60998e-06 3.11227e-06 0)
(1.60451e-06 3.11197e-06 0)
(-4.12417e-06 2.19398e-05 0)
(6.77627e-07 1.67897e-05 0)
(-2.29801e-06 2.10565e-06 0)
(2.29354e-06 2.10511e-06 0)
(6.96512e-07 1.21952e-06 0)
(9.0402e-07 6.19738e-07 0)
(-1.21766e-07 -7.43658e-08 0)
(-8.47344e-06 0.000131149 0)
(-7.45627e-07 3.35731e-07 0)
(-1.04708e-06 2.9622e-06 0)
(-9.23635e-07 6.73037e-06 0)
(5.17189e-08 5.52977e-08 0)
(3.31645e-07 1.35011e-06 0)
(2.36291e-06 5.48714e-06 0)
(-6.8979e-07 2.44669e-07 0)
(-1.93813e-06 4.32518e-06 0)
(2.39634e-06 6.41591e-06 0)
(4.81976e-07 1.44167e-07 0)
(4.12875e-06 5.32556e-05 0)
(-7.61088e-09 3.00444e-08 0)
(7.63191e-09 2.97675e-08 0)
(-1.39286e-06 1.41864e-06 0)
(1.38879e-06 1.4183e-06 0)
(-7.27745e-07 3.52437e-07 0)
(8.68462e-08 1.84828e-06 0)
(8.05291e-07 4.22192e-06 0)
(1.52168e-06 4.98302e-05 0)
(-8.22514e-06 4.95995e-05 0)
(-1.82846e-06 4.17089e-06 0)
(9.11745e-07 6.92247e-07 0)
(1.73853e-07 3.69943e-06 0)
(-7.78238e-06 7.60749e-05 0)
(8.32131e-06 7.59392e-05 0)
(2.82305e-07 1.23383e-06 0)
(-4.88455e-07 1.45826e-07 0)
(4.87054e-07 1.45539e-07 0)
(-8.43287e-07 7.58344e-07 0)
(-4.86006e-06 1.36449e-05 0)
(2.30034e-07 3.73305e-06 0)
(3.50481e-06 2.84463e-05 0)
(-1.79444e-06 1.78047e-06 0)
(1.79015e-06 1.78004e-06 0)
(2.64943e-06 3.07182e-06 0)
(-2.65459e-06 3.07234e-06 0)
(6.52965e-10 2.48938e-08 0)
(-6.28325e-10 2.46716e-08 0)
(2.50499e-07 1.96847e-05 0)
(1.25562e-07 4.4784e-07 0)
(7.9932e-07 2.82848e-06 0)
(8.43691e-08 1.02486e-06 0)
(9.36907e-07 1.20373e-06 0)
(-9.40944e-07 1.20398e-06 0)
(-4.64399e-06 4.33867e-05 0)
(-2.29956e-07 6.71386e-08 0)
(2.29394e-07 6.68632e-08 0)
(2.19413e-06 2.14538e-06 0)
(-2.19865e-06 2.1459e-06 0)
(4.95405e-06 1.16057e-05 0)
(-1.57856e-06 1.57826e-06 0)
(1.5744e-06 1.57788e-06 0)
(2.74537e-07 3.48964e-08 0)
(-2.39238e-06 4.92024e-06 0)
(1.4323e-06 4.84988e-06 0)
(1.68778e-06 1.43001e-05 0)
(-3.10363e-06 7.96642e-06 0)
(-2.74135e-07 5.16675e-06 0)
(-2.18014e-06 2.72621e-06 0)
(2.17515e-06 2.72576e-06 0)
(-5.46426e-06 5.85958e-05 0)
(2.40331e-07 1.64907e-06 0)
(-1.4478e-06 1.01558e-06 0)
(1.44435e-06 1.01525e-06 0)
(1.82195e-06 9.0047e-06 0)
(3.08626e-06 4.40523e-06 0)
(5.4869e-07 7.84952e-07 0)
(-3.09219e-06 4.40567e-06 0)
(-4.20865e-07 5.86711e-08 0)
(4.19177e-07 5.8165e-08 0)
(-1.80969e-06 5.796e-06 0)
(-5.68605e-07 1.69975e-07 0)
(2.52662e-06 8.72826e-06 0)
(1.60118e-08 -1.07231e-08 0)
(1.69169e-06 4.33958e-06 0)
(4.84096e-07 1.28077e-06 0)
(-6.91826e-06 1.96947e-05 0)
(3.83996e-07 2.07058e-06 0)
(-5.53321e-07 1.44803e-07 0)
(5.51544e-07 1.44509e-07 0)
(2.51549e-06 2.84951e-06 0)
(-2.52051e-06 2.85003e-06 0)
(-8.3672e-07 4.32687e-06 0)
(-3.62709e-07 1.63861e-05 0)
(1.69901e-06 1.68545e-06 0)
(-1.70323e-06 1.68585e-06 0)
(1.67408e-06 3.85252e-06 0)
(-2.38282e-06 1.01816e-05 0)
(-7.59264e-06 7.47366e-05 0)
(-4.33731e-07 2.29131e-06 0)
(-2.6311e-06 1.38328e-05 0)
(-4.7818e-07 1.62566e-07 0)
(4.76888e-07 1.6235e-07 0)
(4.44488e-07 3.43477e-06 0)
(-9.93683e-07 1.27091e-06 0)
(9.89598e-07 1.27064e-06 0)
(2.36887e-06 2.61213e-06 0)
(-2.37374e-06 2.61264e-06 0)
(-3.94149e-08 2.39246e-06 0)
(1.35177e-06 4.85722e-06 0)
(8.46245e-08 5.24061e-08 0)
(6.90947e-06 1.96955e-05 0)
(-1.0937e-06 6.3646e-07 0)
(1.09063e-06 6.36233e-07 0)
(-1.5213e-06 5.76778e-06 0)
(-8.07111e-08 9.60076e-07 0)
(1.17542e-06 7.73977e-06 0)
(2.7604e-06 8.15972e-06 0)
(1.45748e-06 1.04919e-05 0)
(6.58903e-07 6.65297e-07 0)
(2.85825e-07 1.15623e-06 0)
(6.02956e-07 2.91247e-07 0)
(-1.3129e-06 3.96283e-06 0)
(-2.37412e-06 2.52155e-06 0)
(2.36933e-06 2.52103e-06 0)
(-1.20447e-06 7.56948e-07 0)
(1.20127e-06 7.56693e-07 0)
(-6.90837e-06 3.11766e-05 0)
(6.78759e-06 3.11451e-05 0)
(3.373e-07 2.29116e-06 0)
(-8.02786e-08 -7.31456e-08 0)
(-2.2929e-06 2.49103e-06 0)
(2.28811e-06 2.49052e-06 0)
(2.43306e-06 4.79563e-06 0)
(2.35852e-06 5.64987e-06 0)
(-4.91115e-08 2.97404e-06 0)
(1.63249e-06 1.36717e-05 0)
(-2.80519e-06 0.000158746 0)
(-1.06515e-07 6.66729e-08 0)
(1.06273e-07 6.62339e-08 0)
(6.73516e-07 2.63338e-06 0)
(3.19548e-07 3.2405e-06 0)
(-1.59669e-06 1.21521e-06 0)
(1.59299e-06 1.21484e-06 0)
(6.74129e-08 1.36546e-06 0)
(-2.79991e-06 2.49003e-05 0)
(5.12607e-08 -8.08698e-08 0)
(-2.11942e-06 1.88283e-06 0)
(2.11512e-06 1.88232e-06 0)
(5.88624e-07 1.55091e-07 0)
(-5.90615e-07 1.55375e-07 0)
(7.98692e-07 9.65933e-07 0)
(4.64609e-07 1.38765e-07 0)
(-4.65928e-07 1.39054e-07 0)
(1.30349e-06 3.11209e-05 0)
(2.03799e-07 5.85192e-06 0)
(-6.61717e-07 4.93289e-05 0)
(-6.03766e-07 2.54886e-05 0)
(-2.23323e-06 2.67708e-06 0)
(2.22829e-06 2.67662e-06 0)
(9.37081e-07 1.69053e-05 0)
(1.17104e-06 2.04781e-06 0)
(-1.17581e-06 2.04808e-06 0)
(-2.79538e-06 3.16239e-06 0)
(2.79017e-06 3.16185e-06 0)
(6.95481e-07 1.07735e-06 0)
(-6.99378e-07 1.07781e-06 0)
(-8.05198e-07 3.59573e-07 0)
(8.02968e-07 3.5935e-07 0)
(1.48437e-06 1.07403e-06 0)
(-1.4879e-06 1.07437e-06 0)
(-2.81965e-07 2.07761e-06 0)
(3.50405e-06 9.83499e-06 0)
(-1.54957e-06 1.14837e-06 0)
(1.54596e-06 1.14802e-06 0)
(4.57804e-06 1.41041e-05 0)
(1.11183e-07 1.44223e-06 0)
(-8.06136e-07 3.4172e-07 0)
(8.03829e-07 3.41498e-07 0)
(-2.08218e-06 2.88515e-06 0)
(2.07704e-06 2.88474e-06 0)
(9.42789e-07 5.31316e-07 0)
(1.71993e-06 1.69541e-06 0)
(-1.72415e-06 1.69583e-06 0)
(2.38498e-06 2.23864e-06 0)
(-2.38955e-06 2.2392e-06 0)
(-9.45845e-07 5.31491e-07 0)
(-1.01573e-06 5.31128e-06 0)
(-1.32186e-06 4.20236e-06 0)
(-2.52788e-06 5.52952e-05 0)
(-1.76597e-06 2.53883e-06 0)
(1.761e-06 2.53847e-06 0)
(3.0154e-06 4.39203e-06 0)
(-1.07835e-07 1.23267e-06 0)
(-8.54286e-08 5.29315e-08 0)
(-3.02131e-06 4.39246e-06 0)
(-6.27945e-07 1.39862e-06 0)
(-8.40279e-07 7.38227e-07 0)
(1.35394e-06 4.50681e-06 0)
(-1.00136e-06 1.29249e-06 0)
(9.97255e-07 1.29222e-06 0)
(-1.22725e-08 1.22468e-06 0)
(-2.88252e-07 1.18388e-06 0)
(1.87669e-06 5.42143e-06 0)
(-6.73779e-06 2.37905e-05 0)
(6.72871e-06 2.37902e-05 0)
(-1.46379e-06 9.58322e-06 0)
(6.89244e-08 1.85904e-06 0)
(-1.96493e-08 3.32507e-08 0)
(1.9638e-08 3.29553e-08 0)
(6.55397e-07 6.18188e-07 0)
(7.73787e-07 8.11269e-07 0)
(1.49789e-06 7.23455e-06 0)
(-1.58693e-06 1.21406e-06 0)
(1.58323e-06 1.2137e-06 0)
(9.65066e-07 5.89701e-07 0)
(7.07155e-06 5.0619e-05 0)
(9.44032e-07 5.40338e-07 0)
(-2.25111e-06 1.75963e-05 0)
(-7.75763e-07 3.45819e-07 0)
(7.73632e-07 3.45599e-07 0)
(3.73538e-06 1.11056e-05 0)
(-4.71967e-07 8.95837e-07 0)
(-9.67973e-07 5.89947e-07 0)
(1.25623e-05 0.000122338 0)
(-1.25461e-05 0.000122333 0)
(-9.4711e-07 5.40513e-07 0)
(2.71806e-06 7.89281e-06 0)
(-8.16556e-07 3.4924e-07 0)
(8.14218e-07 3.49017e-07 0)
(2.39795e-06 3.04488e-06 0)
(-2.40313e-06 3.04535e-06 0)
(-2.27343e-06 5.99458e-06 0)
(4.49183e-07 1.45389e-06 0)
(-1.45232e-06 5.68778e-06 0)
(-1.25474e-06 8.22554e-07 0)
(1.25145e-06 8.22289e-07 0)
(1.74091e-06 2.04356e-06 0)
(-1.74545e-06 2.04397e-06 0)
(4.63461e-09 4.95214e-07 0)
(1.93873e-06 1.42177e-05 0)
(-1.75225e-06 2.55775e-06 0)
(1.74727e-06 2.55739e-06 0)
(1.66615e-06 6.03849e-06 0)
(-2.2083e-07 8.01127e-08 0)
(2.2027e-07 7.97105e-08 0)
(1.02533e-06 3.6555e-06 0)
(5.83026e-07 1.46463e-07 0)
(-3.28811e-06 5.27299e-06 0)
(2.62475e-06 8.18677e-06 0)
(2.26795e-06 5.83711e-06 0)
(4.75629e-06 1.50955e-05 0)
(-1.00947e-06 2.93885e-06 0)
(1.04856e-06 2.87184e-06 0)
(4.59025e-07 4.852e-06 0)
(-2.20079e-06 2.2132e-06 0)
(2.19622e-06 2.21269e-06 0)
(3.02003e-07 3.16107e-05 0)
(-4.17392e-08 7.03779e-07 0)
(-4.56884e-07 2.27118e-06 0)
(1.49961e-06 5.0669e-06 0)
(9.09052e-07 1.17348e-05 0)
(1.64569e-07 2.83966e-07 0)
(1.28033e-07 1.4605e-06 0)
(-2.29307e-06 1.22606e-05 0)
(2.07861e-06 1.63248e-05 0)
(-6.17387e-08 5.14114e-07 0)
(-3.15211e-07 9.95606e-07 0)
(6.60824e-07 6.35656e-07 0)
(-6.26315e-07 1.4213e-06 0)
(5.57325e-06 1.51132e-05 0)
(-8.6283e-07 6.80525e-06 0)
(7.51278e-07 4.45771e-06 0)
(2.69423e-07 7.67189e-08 0)
(-2.70096e-07 7.69675e-08 0)
(-6.28719e-07 5.96597e-07 0)
(2.20593e-07 7.43716e-08 0)
(-2.21199e-07 7.48304e-08 0)
(7.67074e-07 2.85282e-06 0)
(3.99949e-07 2.09325e-06 0)
(-1.1703e-06 1.01809e-06 0)
(1.16655e-06 1.01784e-06 0)
(-5.93351e-07 2.04254e-07 0)
(-1.51975e-07 6.98017e-08 0)
(1.51564e-07 6.93329e-08 0)
(5.41135e-07 5.23081e-07 0)
(1.96465e-06 2.46448e-05 0)
(-5.85097e-07 1.46751e-07 0)
(7.41848e-07 2.77008e-07 0)
(-8.87936e-07 6.52098e-07 0)
(-5.88216e-07 4.8512e-07 0)
(4.25876e-06 7.38633e-06 0)
(-7.91745e-07 1.19637e-06 0)
(-1.8251e-06 1.02222e-05 0)
(-2.36207e-06 6.68198e-06 0)
(-5.0027e-07 1.67769e-07 0)
(4.98897e-07 1.67534e-07 0)
(-3.74857e-07 2.88122e-06 0)
(2.65725e-07 1.06705e-06 0)
(-9.46635e-08 3.75131e-08 0)
(9.44502e-08 3.72044e-08 0)
(-8.76767e-07 5.37156e-07 0)
(6.10429e-06 0.000231406 0)
(-5.38673e-06 4.61058e-05 0)
(-9.94562e-07 4.15989e-06 0)
(9.49655e-07 2.21772e-06 0)
(-9.54649e-07 2.21794e-06 0)
(2.51662e-06 5.60508e-06 0)
(2.63697e-07 1.64767e-06 0)
(-4.35306e-06 4.39217e-05 0)
(7.10325e-08 2.86684e-08 0)
(-7.11991e-08 2.89631e-08 0)
(4.88672e-06 3.9609e-05 0)
(3.56341e-06 5.24442e-05 0)
(2.66605e-08 -4.41755e-08 0)
(-1.7697e-07 5.03676e-06 0)
(3.5068e-07 7.19825e-07 0)
(-2.76736e-06 6.69602e-06 0)
(-6.14879e-07 5.26448e-07 0)
(3.48435e-06 1.65411e-05 0)
(9.74597e-07 2.20512e-06 0)
(-9.79603e-07 2.20535e-06 0)
(3.55992e-06 7.87322e-06 0)
(1.95879e-06 4.2267e-06 0)
(-4.21587e-08 7.55853e-07 0)
(-1.3311e-07 7.43005e-07 0)
(5.53051e-06 3.99892e-05 0)
(1.06522e-06 6.0064e-07 0)
(-1.06821e-06 6.00868e-07 0)
(-7.75809e-08 1.22652e-06 0)
(7.6197e-07 2.28112e-06 0)
(3.68116e-06 9.12281e-06 0)
(2.76133e-07 7.85334e-08 0)
(-2.76825e-07 7.87772e-08 0)
(1.96539e-06 9.40816e-06 0)
(-3.32663e-07 3.6566e-07 0)
(-2.19641e-06 1.02647e-05 0)
(1.84024e-06 1.91816e-06 0)
(-1.84464e-06 1.9186e-06 0)
(4.03453e-07 2.24671e-06 0)
(8.98696e-07 9.54192e-07 0)
(-9.02252e-07 9.54037e-07 0)
(-9.56467e-07 4.75449e-07 0)
(9.53708e-07 4.75227e-07 0)
(-4.69369e-06 4.62116e-05 0)
(1.09486e-06 2.91406e-06 0)
(-2.1644e-08 3.54425e-08 0)
(2.16265e-08 3.51379e-08 0)
(6.70138e-07 1.20499e-06 0)
(-4.4387e-08 5.3237e-08 0)
(-7.69549e-06 0.000178237 0)
(-2.25639e-06 2.39831e-06 0)
(2.25167e-06 2.3978e-06 0)
(4.74437e-06 0.000112519 0)
(-1.49622e-06 1.05294e-06 0)
(1.49278e-06 1.05259e-06 0)
(-1.56191e-06 9.33861e-05 0)
(-3.45927e-06 1.65397e-05 0)
(4.06997e-07 2.15456e-06 0)
(1.10991e-06 6.82461e-07 0)
(6.1527e-07 1.17776e-06 0)
(3.75368e-07 4.89136e-06 0)
(-1.11309e-06 6.82682e-07 0)
(-3.68465e-06 9.27629e-06 0)
(-1.93304e-07 1.94793e-06 0)
(7.69834e-07 2.34937e-06 0)
(1.03758e-06 2.19931e-06 0)
(-1.04255e-06 2.19954e-06 0)
(-7.03293e-07 3.48552e-07 0)
(7.2605e-07 3.85748e-07 0)