/*--------------------------------*- C++ -*----------------------------------*\
| =========                 |                                                 |
| \\      /  F ield         | OpenFOAM: The Open Source CFD Toolbox           |
|  \\    /   O peration     | Version:  v3.0+                                 |
|   \\  /    A nd           | Web:      www.OpenFOAM.com                      |
|    \\/     M anipulation  |                                                 |
\*---------------------------------------------------------------------------*/
FoamFile
{
    version     2.0;
    format      ascii;
    class       volScalarField;
    location    "2000";
    object      sigmaxz;
}
// * * * * * * * * * * * * * * * * * * * * * * * * * * * * * * * * * * * * * //

dimensions      [1 -1 -2 0 0 0 0];

internalField   nonuniform List<scalar> 
27023
(
1.02016e-13
7.20732e-14
4.54477e-13
3.47943e-13
0
-3.45065e-13
2.87122e-12
-7.09115e-13
-6.7962e-14
-3.19054e-13
-4.20628e-13
-6.19609e-13
-4.3657e-14
2.3449e-14
5.20352e-13
6.42087e-13
-5.81173e-13
0
2.12309e-12
0
-4.71394e-14
-1.21277e-14
-1.65638e-12
-5.93211e-13
1.51249e-12
2.41956e-12
1.12818e-12
5.23455e-12
-8.83365e-13
-3.23874e-12
6.24877e-12
2.59723e-13
3.21528e-12
-3.11863e-13
6.34004e-13
-6.86131e-12
1.09967e-12
2.19867e-12
1.25442e-13
-1.81098e-13
-1.34873e-13
-5.74013e-14
-6.92398e-12
-7.47795e-14
7.47728e-14
3.27823e-12
-2.364e-12
-3.08258e-12
3.08255e-12
-2.07369e-12
2.3279e-12
-9.09329e-13
5.41157e-12
2.83123e-15
6.78706e-14
1.13272e-12
1.82427e-12
8.46352e-12
-1.5338e-12
-7.08685e-13
-4.72849e-13
-1.24272e-11
5.03745e-12
2.8372e-12
-7.3999e-12
-1.47191e-12
7.65483e-13
-3.3184e-12
7.34852e-13
-7.26029e-12
0
-2.21951e-12
-2.06418e-13
-1.25961e-12
-1.31157e-12
-8.18084e-13
7.60124e-15
-4.31489e-14
4.95542e-12
-2.25436e-12
7.89172e-13
2.70272e-12
-2.12595e-12
-3.91924e-13
9.81317e-13
-3.17559e-12
-1.70408e-12
1.85764e-12
3.46471e-12
-2.9987e-12
1.76609e-12
8.66665e-14
-1.81157e-13
-2.53142e-13
-5.71677e-14
-2.43441e-12
-2.57053e-12
2.31674e-12
-3.69784e-12
2.00625e-12
-1.36744e-12
-5.71794e-12
-2.19114e-12
-1.39706e-14
1.37749e-12
8.72931e-12
-8.53432e-13
6.22159e-13
-3.24162e-12
1.78374e-11
-8.13779e-12
-5.10709e-14
6.64292e-13
-3.10234e-12
4.70132e-13
1.4139e-12
3.37438e-12
-2.26396e-13
-1.02079e-12
1.57576e-12
-8.82618e-12
5.23471e-12
-4.93807e-13
1.35878e-12
-2.46704e-12
1.16095e-12
-4.0332e-14
2.13244e-13
2.2293e-13
1.51985e-12
-6.99203e-13
1.68842e-14
-8.3401e-15
9.24382e-14
-6.33422e-12
-4.91707e-12
-1.18148e-13
1.53922e-12
1.59686e-12
1.86224e-13
-4.46236e-13
-3.57629e-12
-1.56474e-12
-1.50638e-12
-1.03636e-12
1.17514e-12
-5.88569e-12
-2.10694e-12
7.60204e-13
1.28038e-13
-1.95028e-13
7.57732e-13
-4.23887e-13
1.87609e-12
1.83967e-12
1.31522e-11
-5.60184e-12
3.83117e-12
3.97445e-12
-1.74406e-12
2.82229e-12
-6.2784e-12
6.00126e-12
6.46048e-12
-3.46814e-13
-3.6125e-13
-2.49957e-13
1.37348e-12
-2.16665e-13
-1.05919e-12
9.14748e-13
4.48522e-12
1.59291e-13
-1.4541e-12
0
7.95013e-12
8.3934e-12
-2.08862e-12
-1.52688e-12
2.4533e-13
6.49962e-13
-2.54992e-12
-1.63547e-12
-1.87956e-12
-4.35282e-12
1.23293e-12
1.16166e-12
-7.89537e-13
-4.1802e-12
2.90388e-12
-1.99001e-12
1.21119e-13
-5.41754e-13
-1.49153e-12
1.15386e-12
1.90975e-12
-7.4818e-12
7.16549e-13
4.31167e-13
4.03387e-13
3.3188e-12
7.62941e-13
2.43432e-12
4.68986e-12
0
-4.82039e-13
1.79719e-12
-1.08068e-12
2.12943e-12
2.62197e-12
0
9.20229e-16
-4.57142e-13
1.77502e-12
-2.07883e-13
1.21398e-13
-1.08937e-12
1.13986e-12
2.1538e-12
1.69775e-12
2.32129e-12
7.30593e-12
6.63197e-13
6.22268e-14
-1.94912e-12
-1.38648e-12
3.0488e-12
-4.70028e-13
-1.7613e-12
1.78265e-14
1.17724e-13
-5.45804e-12
-9.53461e-13
-1.56185e-12
-2.06734e-12
2.61286e-12
-1.12086e-12
4.05343e-12
1.86028e-13
3.19544e-12
-3.1982e-12
2.06894e-12
-2.25044e-13
-7.48082e-12
-6.96485e-13
8.12795e-13
6.95655e-12
6.52081e-13
-4.90324e-13
4.84121e-13
-1.96521e-12
2.97929e-12
-4.92967e-12
-7.81875e-13
1.97878e-12
-5.0179e-12
0
-4.21936e-12
-4.1789e-12
1.58338e-12
5.23691e-13
-1.34926e-12
-6.21239e-12
1.95832e-12
-3.76231e-12
-3.59452e-12
-1.58614e-13
-6.83392e-13
-3.06617e-12
-1.22376e-13
4.17293e-14
1.42536e-11
5.39867e-12
7.18592e-13
-3.7316e-12
-1.39221e-12
-4.45208e-14
-2.98864e-14
-4.52951e-12
7.41941e-13
-1.4087e-11
1.4529e-12
1.8997e-11
-2.86435e-12
-1.37074e-14
-1.45516e-14
-3.84409e-12
9.15193e-12
-1.92467e-12
-2.18709e-14
-5.48854e-12
2.47506e-12
-3.7696e-13
1.76765e-12
0
-9.74534e-13
-3.2942e-12
1.8711e-12
1.98021e-12
0
-8.23603e-14
-8.27675e-13
6.20149e-13
0
-1.26634e-13
2.36462e-14
-5.96475e-15
-3.15885e-12
-6.30913e-12
-2.51174e-12
1.69111e-11
3.39183e-14
-3.38313e-14
1.10018e-13
2.68098e-13
3.07716e-12
-1.19742e-12
3.50597e-13
-3.43185e-12
1.35042e-12
-3.58255e-14
-5.63391e-14
6.72063e-13
7.04145e-13
-4.6851e-13
-5.95101e-13
3.72712e-12
-9.99833e-13
-2.53483e-12
3.65193e-13
-8.35098e-14
-1.71338e-12
-4.62248e-12
-2.17257e-13
-6.25364e-12
-3.53413e-13
-5.95541e-13
4.76857e-13
-1.3415e-12
-7.55164e-14
-1.0257e-12
1.60563e-11
-8.73345e-12
0
1.56398e-15
-1.36854e-12
-3.78889e-13
8.10855e-13
-1.97265e-12
1.89893e-12
2.42331e-12
-3.69405e-13
2.71625e-13
-1.71087e-12
1.90135e-14
-1.39567e-14
-4.98689e-13
3.16401e-12
-3.48282e-12
5.55626e-13
9.95577e-13
1.05222e-12
-3.11797e-12
5.21173e-14
1.30383e-12
-5.87046e-12
2.67411e-12
7.56574e-13
-3.53098e-13
3.54055e-13
-2.30812e-12
-1.46999e-12
-1.19814e-12
0
-1.14643e-13
6.04088e-12
-3.84779e-12
-1.4647e-12
4.49613e-12
2.54803e-12
2.75995e-12
1.91984e-12
2.13749e-12
9.73909e-13
-2.48632e-13
-1.05629e-12
-8.18221e-13
3.78619e-12
-9.40492e-13
9.25064e-14
-1.13075e-12
1.60582e-11
4.30088e-13
-4.255e-12
-4.48772e-13
7.73554e-13
4.06425e-13
-9.71869e-12
-6.13245e-12
0
5.00407e-13
-5.83239e-13
-4.64594e-13
-1.19576e-12
-1.50193e-11
2.41296e-13
-5.73469e-13
1.09496e-12
6.50702e-12
1.32111e-12
2.36616e-12
-1.88113e-12
5.63969e-15
-7.41695e-15
3.68271e-12
2.10774e-13
-3.12747e-13
-4.14219e-12
3.48413e-12
-4.84378e-12
0
-5.06816e-12
2.24369e-13
-2.49261e-12
6.91376e-12
-4.48475e-12
0
-2.22174e-13
5.91184e-12
1.73703e-13
6.75477e-12
0
1.45269e-12
-2.88493e-12
-1.04088e-12
2.05887e-12
-9.51526e-13
6.24482e-14
9.89607e-14
-2.09486e-13
-5.60856e-12
-1.47886e-11
-2.44575e-13
-3.43815e-12
1.39504e-15
1.0975e-17
-4.18252e-13
3.55018e-12
5.04627e-13
-1.67982e-15
2.46511e-13
1.45194e-13
-1.43542e-13
-4.41202e-13
8.47281e-13
-1.82298e-12
-3.61076e-12
8.06629e-13
1.11481e-12
1.40984e-12
2.10538e-12
-9.37206e-13
-2.96262e-12
-2.83242e-12
-3.46115e-12
-5.79026e-12
-2.76309e-12
1.38489e-12
3.66449e-16
7.24069e-12
1.67745e-11
0
8.0622e-13
-8.42804e-13
8.80459e-13
0
-1.0291e-12
4.57091e-12
7.79037e-12
-2.99145e-13
4.53229e-13
-3.12606e-12
1.44833e-12
-1.63161e-12
2.88788e-12
1.92312e-12
-5.42449e-13
-5.90382e-12
-1.94417e-11
-3.70587e-12
1.69559e-12
2.60876e-12
2.86253e-13
-2.92573e-12
-2.56574e-13
-3.87428e-13
-1.3555e-12
-1.09849e-13
-9.73719e-13
6.23667e-12
1.35834e-12
8.18828e-15
-6.65523e-15
-4.45677e-12
4.16127e-13
1.69228e-12
1.23501e-12
8.22816e-14
9.55547e-13
1.4076e-12
-1.16455e-12
-1.81393e-12
-8.8394e-13
1.69555e-13
9.36924e-13
1.96919e-12
-1.75198e-12
-3.25519e-12
3.32597e-12
-3.70501e-13
-4.01827e-12
2.00821e-12
2.0365e-12
-6.3558e-13
1.51184e-12
-6.48965e-12
-3.17685e-12
3.91711e-12
-1.85958e-12
1.58369e-13
6.01392e-12
-1.04274e-12
3.39411e-14
1.99366e-13
2.77366e-13
-2.77332e-13
-3.30984e-12
-3.06181e-12
-5.2559e-13
3.16212e-12
1.33073e-12
6.76681e-12
2.1471e-12
-1.63292e-13
7.29987e-12
2.54502e-13
3.58249e-13
1.49229e-13
-6.0479e-13
-6.88747e-12
-8.68545e-12
3.68338e-12
-5.55728e-13
-9.63999e-13
-9.47566e-13
4.53418e-12
7.56464e-12
2.54976e-12
-1.73966e-13
-7.20554e-12
1.01643e-12
4.22366e-12
1.48473e-12
-3.34533e-12
5.27657e-12
6.77175e-13
0
0
3.7451e-12
3.90183e-12
2.09248e-12
7.26716e-13
8.89151e-14
0
1.1121e-12
7.56866e-13
-2.14357e-13
-4.20625e-13
1.31224e-12
7.61037e-13
-7.90016e-13
-3.81123e-12
6.54504e-13
0
-3.85994e-12
1.30461e-12
5.26814e-14
-4.08441e-12
6.29524e-13
-1.73341e-13
0
-4.17155e-12
7.98497e-13
-1.8125e-12
-3.99787e-12
2.11881e-12
-2.01669e-12
-8.61468e-12
-1.7636e-12
1.10829e-12
-2.58658e-12
2.88613e-12
-1.54545e-12
2.21007e-12
7.53966e-13
9.70272e-15
-3.70463e-12
2.97553e-12
-6.43618e-13
2.73988e-12
-2.74085e-12
-4.1874e-12
2.29334e-13
-5.26921e-12
-3.47841e-13
-1.17078e-11
-1.90018e-11
-1.47818e-12
-1.81145e-12
-2.63944e-11
-7.6337e-15
-5.22024e-15
6.54746e-16
5.39847e-16
-3.64793e-12
-4.42254e-14
5.76284e-14
0
-6.33209e-13
-2.40062e-14
2.37138e-14
2.04892e-13
-1.56366e-13
5.14242e-13
-8.09343e-13
2.00921e-12
-7.03995e-13
9.42736e-13
1.32476e-12
-3.24292e-12
-1.51894e-12
-1.60436e-12
-2.09959e-12
2.12576e-12
1.37931e-12
3.26722e-12
-1.1298e-12
-6.3164e-13
1.6776e-12
0
2.49881e-12
-8.66539e-13
2.13316e-12
0
2.62628e-13
9.89062e-13
-2.38175e-12
-1.87134e-12
-1.35955e-15
1.8882e-15
-3.37438e-12
-1.83994e-12
-5.80754e-12
-4.30513e-12
5.37126e-13
6.01494e-12
-1.36973e-12
-3.91675e-13
0
-3.19055e-12
1.17278e-13
-3.06839e-12
-6.09041e-12
-4.75901e-14
4.07176e-12
-7.06768e-12
-1.06933e-12
-7.81379e-12
1.68589e-12
0
3.48675e-12
2.12636e-14
6.39688e-15
-2.43031e-13
2.11559e-12
1.45526e-12
1.66038e-12
-1.46594e-12
-4.00404e-12
1.6864e-11
-2.7926e-12
-5.28434e-13
6.3616e-12
2.23e-12
-4.31004e-12
-2.94319e-12
-5.88568e-14
-3.11232e-14
-1.05173e-12
-1.17626e-12
9.65539e-15
-7.56202e-12
1.11863e-12
5.58029e-13
2.15774e-12
1.44129e-12
-9.23872e-16
5.1141e-15
-1.3937e-12
-2.3944e-16
-3.76493e-12
3.74112e-13
1.40368e-12
-6.65864e-13
-7.0975e-12
2.47888e-13
6.59002e-14
0
3.08204e-12
-9.67669e-14
-1.37442e-13
1.45915e-12
-1.67421e-13
-6.89344e-12
-5.23108e-13
-4.13756e-12
-1.36062e-12
-2.72961e-12
0
1.94019e-12
-6.37925e-12
5.28093e-13
-1.76392e-12
6.19847e-13
4.06072e-12
-4.65975e-13
-9.2099e-13
4.65719e-13
-4.52158e-13
-2.70486e-13
1.19596e-12
2.92932e-13
1.35505e-12
1.00133e-12
-2.56834e-12
1.08893e-12
2.47122e-12
7.98391e-13
3.55026e-13
-5.21471e-13
-2.56516e-12
-4.51911e-13
-3.04188e-12
3.33165e-13
4.84518e-12
0
4.95097e-12
4.02898e-13
8.95082e-12
1.77142e-12
2.37171e-12
-6.92802e-13
-2.97055e-13
5.11482e-12
-1.12535e-12
-5.48984e-13
-2.7873e-12
-1.88953e-12
-6.3058e-13
1.62738e-12
-4.20226e-14
-3.13206e-12
7.73239e-13
4.85594e-14
-4.54136e-12
2.25473e-12
6.7095e-13
-3.72237e-12
-2.954e-12
0
1.10024e-13
-5.19335e-13
-6.02985e-12
0
1.81499e-12
3.8652e-13
-2.58505e-12
-5.98265e-12
1.59736e-12
3.36137e-12
-1.44501e-13
0
0
5.24386e-12
-8.27216e-13
2.60656e-12
7.58544e-12
-6.45222e-12
6.60402e-15
0
6.07486e-12
5.85459e-12
1.64399e-13
-4.48901e-13
-8.21862e-13
-3.99819e-13
1.882e-13
1.21354e-12
4.10648e-12
2.42279e-13
3.17428e-13
4.35934e-14
-8.94509e-14
-2.21279e-13
1.36391e-11
3.17543e-12
-7.0105e-12
-1.15276e-11
-1.41084e-13
-8.21614e-13
-1.00486e-11
-2.36732e-14
-8.54385e-13
0
-7.14252e-12
1.8701e-12
-1.55607e-12
-3.6214e-14
-4.92063e-13
-3.8456e-12
-6.83672e-13
-3.52927e-12
1.97442e-12
-5.11666e-13
2.26092e-12
8.00911e-12
-1.24029e-13
-5.71729e-14
2.01751e-13
-1.62273e-12
1.15323e-12
9.14052e-13
5.41132e-12
0
-4.54493e-12
2.19988e-12
-8.45238e-13
7.82854e-12
-1.57883e-12
-3.02898e-12
3.42989e-13
4.94651e-13
2.93378e-12
-1.72118e-12
7.17019e-15
4.15385e-14
-1.92794e-12
2.2547e-12
-8.67587e-13
-1.59685e-12
6.77374e-13
-9.62606e-13
0
6.08234e-12
5.37829e-12
5.89549e-12
3.78641e-12
-3.13495e-13
2.35101e-14
-1.69577e-14
3.87738e-13
8.5143e-13
5.98399e-12
-6.36116e-13
1.14082e-12
-1.02243e-13
-3.52733e-12
5.61666e-13
5.04034e-12
-1.65498e-13
6.31414e-14
-1.98287e-12
-2.19112e-12
3.07771e-13
1.70268e-11
2.60358e-11
4.94799e-13
1.85611e-12
-9.92515e-14
-8.27214e-13
0
1.05899e-12
6.78504e-12
-4.10043e-13
1.99093e-12
1.1379e-13
-3.19153e-13
-8.23812e-13
5.54229e-13
5.63704e-13
3.26436e-12
1.99003e-12
4.18861e-12
-1.55153e-12
1.28282e-13
-3.84241e-14
2.68776e-12
-2.1731e-13
-3.22455e-13
-2.87876e-12
1.18065e-13
-3.05839e-12
-3.2818e-12
1.19694e-12
-3.76703e-13
1.09099e-12
-1.08253e-12
-1.51763e-11
3.80731e-13
-1.31598e-12
0
-4.03559e-12
2.55324e-13
-2.16308e-12
5.02826e-12
-1.39879e-12
1.0083e-12
1.61561e-12
9.01357e-14
-3.26646e-12
7.24436e-12
-4.8895e-12
-5.8739e-12
0
-1.31406e-13
-8.01188e-13
-1.90864e-13
2.1128e-13
-1.43842e-12
4.97817e-12
3.6059e-13
-9.52433e-13
0
2.33485e-13
4.96142e-14
1.38456e-12
6.45052e-12
8.77999e-14
0
2.3466e-12
1.0684e-13
1.41997e-12
1.12079e-12
-1.20343e-12
2.386e-12
1.317e-12
-1.03903e-12
2.28263e-12
1.2251e-12
-1.67258e-13
-3.77036e-15
5.03316e-13
2.59668e-12
8.92651e-12
1.00566e-12
2.12671e-12
-2.62894e-12
-1.20782e-12
3.10997e-12
8.14557e-12
6.58322e-14
-9.42309e-14
0
2.88836e-13
-4.36602e-13
3.73316e-13
2.57866e-12
-2.31377e-12
3.88203e-14
6.16816e-12
1.00695e-12
1.6099e-12
-9.64884e-13
1.00632e-12
2.58565e-12
-1.1568e-14
2.74084e-12
-3.66807e-13
-2.62316e-13
1.33417e-12
-1.51502e-12
4.05461e-12
-6.06399e-13
-1.1435e-13
4.78554e-12
-5.5479e-13
-5.23094e-13
0
2.00924e-12
-1.18231e-12
1.97751e-12
-1.93748e-12
6.17801e-13
9.14615e-14
8.16311e-12
-5.56997e-13
4.61678e-14
-5.90377e-15
-1.02465e-12
-7.75171e-15
-2.40877e-12
1.54834e-12
-7.45961e-13
-5.20338e-12
-7.01545e-13
1.33032e-12
3.55654e-13
-4.07261e-12
1.51904e-12
0
-2.06631e-13
-1.20083e-13
1.02109e-13
-6.87366e-12
-8.21763e-13
-2.29254e-12
-6.47752e-13
1.4527e-12
-1.78383e-13
-1.36798e-12
-1.12368e-12
8.70115e-13
2.13024e-14
-8.41507e-15
1.29546e-13
-1.36269e-12
-3.70832e-13
9.24345e-13
-1.57486e-12
-3.73317e-13
2.70415e-12
1.2529e-12
-2.18241e-13
-3.2799e-13
3.71262e-12
-6.32379e-12
-3.75603e-14
-1.94766e-12
2.33385e-12
7.04678e-13
8.85485e-14
-1.85966e-12
-3.30128e-12
-7.52621e-14
-1.51632e-12
-3.02548e-12
1.02601e-12
8.95197e-13
-4.69426e-12
7.39526e-13
1.12602e-13
-5.16472e-14
-4.44872e-12
4.25485e-12
4.30244e-13
5.87434e-13
-7.58447e-12
6.8355e-13
3.12931e-12
-9.18425e-13
1.51991e-12
1.65411e-13
-2.20185e-12
-2.18413e-12
1.72854e-12
-4.87392e-13
-4.04269e-12
-9.04418e-13
-1.67877e-12
4.16287e-12
-5.87548e-12
7.71533e-13
1.77863e-12
-3.89106e-13
3.13842e-12
6.2014e-13
-2.7155e-12
-5.92867e-12
1.69746e-13
1.37188e-12
3.85141e-12
5.97668e-12
1.43588e-12
2.71102e-12
-5.83211e-13
-6.87758e-12
-1.03667e-12
2.47008e-13
1.04684e-12
2.53635e-14
-3.96016e-12
-3.96246e-12
6.60405e-13
-1.16794e-12
1.46522e-13
-2.80424e-13
5.69454e-14
1.78907e-13
7.23935e-14
-1.471e-11
-1.56262e-11
2.17644e-12
-1.92453e-13
1.24186e-12
-7.53651e-14
-1.66924e-13
3.44608e-13
1.46178e-12
-2.7621e-12
2.8684e-12
-1.2853e-11
3.85444e-13
-1.66843e-15
8.49866e-16
2.68489e-13
2.68382e-12
4.09777e-12
1.5603e-11
1.9226e-12
-2.01397e-12
9.95623e-13
1.12657e-11
6.48373e-12
-2.61508e-12
-3.90887e-12
1.30394e-12
1.53709e-13
-1.19871e-12
-4.76048e-12
-1.18187e-12
7.3064e-13
5.81334e-13
0
1.81786e-12
-1.3955e-12
-5.36745e-13
1.37702e-12
3.56458e-12
-4.63004e-13
5.67037e-13
6.57597e-13
-1.83715e-13
5.87641e-14
5.58125e-13
-7.32864e-13
-2.20317e-13
-2.21227e-13
-9.04036e-12
-7.96935e-13
4.8097e-12
-1.71304e-12
1.4266e-12
6.99628e-12
-9.45071e-13
-1.34455e-13
-1.18679e-11
-1.07545e-12
1.01636e-12
5.83705e-12
9.8235e-13
-2.11425e-13
3.73079e-13
3.5894e-12
-2.30671e-11
-8.64901e-13
8.25828e-13
2.1548e-12
6.89431e-12
5.25114e-12
-1.29628e-12
1.8429e-12
-1.16388e-13
6.75946e-14
-6.73685e-14
-6.04416e-12
-1.56141e-13
-4.43991e-13
1.80679e-13
-6.15403e-13
2.36468e-11
-1.20818e-12
1.75987e-12
-6.17351e-13
1.0926e-12
-1.67708e-12
5.09177e-14
-1.52163e-13
2.22035e-12
-1.74514e-12
3.69437e-12
-3.07873e-12
1.2883e-13
2.84559e-12
5.06709e-13
-5.74022e-12
1.04604e-12
-3.85895e-12
7.2556e-14
-7.25582e-13
1.28175e-12
5.52717e-13
-1.85401e-12
4.90645e-13
-3.49096e-12
2.55106e-13
2.9436e-13
-1.40149e-13
-2.70257e-12
-1.42365e-13
1.49041e-13
6.23094e-13
4.00145e-13
-4.63462e-13
2.31093e-12
-7.41697e-13
-1.04749e-13
9.27433e-13
-1.00708e-13
-2.40164e-12
-1.17848e-11
3.04696e-11
-2.12059e-11
-1.33662e-12
-2.60015e-12
-2.60408e-12
8.98058e-13
-1.51036e-12
1.12047e-11
-5.15499e-13
-2.23653e-12
-6.75762e-13
-1.4657e-12
7.40228e-12
-3.44845e-13
-2.49323e-12
3.57831e-12
-8.35462e-13
-5.81976e-13
6.50716e-13
5.68449e-12
1.64325e-12
-4.12341e-12
6.08452e-12
1.18043e-13
-4.08664e-12
1.28804e-12
1.33654e-12
3.56455e-12
-2.24673e-12
5.21687e-13
0
-1.08677e-12
1.74474e-13
1.37869e-12
2.70288e-13
-3.6793e-12
6.68976e-12
-1.00115e-12
-1.49278e-12
2.23134e-13
1.78851e-12
-8.96772e-12
4.041e-15
0
-1.3633e-11
0
1.93742e-12
1.02736e-14
-5.55257e-14
-2.15838e-12
1.46724e-13
2.30092e-12
4.17303e-12
-2.62693e-13
0
0
5.44873e-13
-3.59113e-13
1.15466e-12
1.33585e-12
-1.09519e-11
-2.06149e-12
2.88045e-12
-1.4342e-11
-4.79801e-12
-6.47771e-12
5.67012e-13
4.76584e-13
-1.4264e-12
8.44404e-13
0
6.17504e-13
-1.5778e-12
1.94674e-12
0
-5.12078e-15
6.97396e-15
-2.8211e-12
8.34625e-13
4.7594e-13
1.88728e-13
-2.42303e-12
1.87812e-12
1.3269e-12
2.3635e-12
-1.51903e-12
2.74417e-13
1.29239e-12
-8.36382e-12
3.08163e-14
-2.70467e-14
0
1.139e-14
2.63248e-13
-3.29769e-12
0
-1.27127e-12
-2.06952e-12
-5.36109e-13
8.76352e-13
-4.97098e-13
4.41349e-13
-6.78615e-12
-1.09281e-12
1.05518e-12
1.01882e-12
1.19702e-13
1.14418e-12
8.36696e-13
0
-1.70988e-12
5.51802e-12
1.36143e-12
-6.03717e-13
-1.89252e-12
6.54106e-13
-1.03644e-12
2.84901e-12
5.02438e-12
3.34944e-13
-8.70251e-13
-8.90184e-13
-2.10105e-12
1.73948e-12
1.38819e-12
-1.79118e-12
-1.7752e-12
0
9.18647e-13
3.73171e-12
2.77216e-12
3.84025e-12
-1.19489e-12
-4.9944e-14
-2.42763e-12
3.82946e-13
2.03186e-12
4.19658e-12
6.33845e-13
-3.16203e-12
-1.17364e-15
-8.73326e-16
-1.97728e-13
-9.10074e-13
-6.5071e-12
2.13603e-12
6.73922e-13
4.59056e-15
3.40153e-12
-2.99372e-14
2.14103e-13
-3.22706e-12
-7.0142e-12
-1.64549e-13
1.11026e-13
3.38633e-12
-9.27597e-12
-2.74747e-12
8.58935e-13
3.90473e-13
-3.45607e-13
3.43003e-12
-9.82288e-14
9.06217e-15
1.53406e-14
3.19532e-12
7.14987e-13
5.41674e-12
-1.37752e-12
-1.03393e-12
3.32784e-13
-1.19651e-13
-7.57072e-14
6.26624e-12
3.44026e-12
-3.22193e-12
5.54982e-13
-7.3481e-13
4.32218e-13
6.07247e-12
1.88743e-12
2.46742e-13
9.88158e-13
2.13425e-13
-4.99854e-13
-9.81679e-13
-2.41273e-12
1.60458e-12
-1.01171e-12
-6.93907e-13
-4.4859e-12
1.09643e-12
7.9757e-13
1.00662e-11
5.48353e-13
1.655e-13
2.06269e-12
-3.04498e-13
1.09884e-12
0
-1.86974e-12
9.88889e-13
-9.85045e-13
-4.06937e-13
1.57399e-12
1.26843e-12
-2.92634e-13
-1.41749e-13
2.5284e-12
-1.51753e-13
1.3737e-13
-9.82087e-13
-6.05592e-12
1.11912e-12
-1.77989e-12
-3.04215e-12
3.79185e-13
-2.28498e-13
-5.55543e-12
3.29917e-12
0
-2.23805e-13
-2.57014e-12
-1.10809e-13
8.17368e-13
-1.29168e-12
-8.18208e-13
-3.53477e-12
4.65686e-12
-1.86949e-14
0
1.9547e-13
-6.25079e-14
5.51422e-13
-3.10373e-12
-6.68636e-12
2.81501e-12
4.45422e-13
-2.29882e-13
1.07596e-13
-3.20508e-12
1.18773e-12
-2.69684e-13
1.11723e-12
1.48926e-12
-6.38186e-14
2.20563e-12
4.20991e-14
2.06888e-13
1.98646e-12
1.76942e-16
-9.91491e-16
2.89715e-12
-1.61816e-12
1.77841e-12
0
-6.6841e-14
-7.82923e-12
-6.40939e-13
-1.42242e-13
4.61803e-13
7.34531e-13
1.16818e-12
2.29234e-12
-1.81732e-13
-1.8316e-13
0
-1.33171e-13
-2.51391e-13
8.50423e-13
2.35524e-12
4.21845e-12
7.96304e-14
-1.96039e-13
-1.01801e-11
6.92737e-12
-2.03277e-12
1.06323e-12
2.60269e-12
2.60181e-12
7.25265e-12
3.37248e-12
3.88897e-12
-1.47101e-12
-1.75449e-13
-7.02955e-12
2.4876e-12
-5.10365e-12
-3.15623e-12
-8.1955e-13
1.7681e-12
-2.77092e-13
6.71776e-13
0
-1.90997e-12
-1.60054e-12
9.42806e-13
2.87866e-13
-1.17078e-12
1.54886e-12
-4.18285e-12
2.82935e-12
-3.69426e-12
1.65785e-12
-1.92895e-12
3.74149e-13
-1.58883e-13
-3.51701e-14
-9.72088e-14
1.59604e-12
1.48792e-12
1.94177e-12
-8.79882e-13
-6.23751e-13
-2.30933e-12
-5.48165e-13
-2.44418e-12
1.1306e-12
1.143e-12
6.47352e-15
9.69175e-13
1.01773e-13
1.91602e-12
-2.52821e-12
-2.84994e-13
5.61563e-13
-1.89077e-12
-9.88601e-13
5.75808e-12
-5.9715e-12
0
-1.25024e-12
-1.24996e-12
-2.41037e-12
-5.18195e-12
4.63973e-12
-4.13855e-13
1.3865e-12
2.86612e-12
-5.48192e-12
-3.96311e-13
3.50666e-13
-3.33816e-12
-9.36682e-12
5.16794e-12
2.65556e-13
-1.07863e-14
1.45652e-12
1.62262e-13
-6.34963e-13
0
6.2185e-12
-1.83886e-12
-3.46898e-12
-1.8649e-13
3.79925e-13
1.27728e-12
1.02126e-12
4.23231e-13
-8.3274e-13
1.83853e-12
-3.73519e-12
-2.17346e-14
-1.34526e-12
-4.34807e-13
1.23578e-12
1.29532e-11
2.88424e-12
1.76024e-12
-3.63786e-12
3.6379e-12
1.65984e-13
-1.89755e-13
-1.95786e-12
-1.70489e-12
-9.13651e-13
3.88635e-12
-6.21538e-13
-1.25302e-13
1.41893e-12
-1.4436e-13
-2.56411e-13
-1.50258e-11
9.57927e-12
3.38744e-12
1.48257e-11
8.26824e-12
-7.37702e-12
5.25017e-12
6.41003e-13
-5.98147e-12
-1.07345e-13
1.05992e-13
2.29572e-13
0
-2.13945e-12
-1.38902e-12
1.32317e-12
-1.0644e-11
-7.21732e-13
2.6436e-12
3.5112e-13
-5.35627e-13
-5.13467e-13
2.59486e-12
-8.17601e-13
-8.34696e-14
6.26133e-14
-1.54887e-12
-1.27208e-12
7.05856e-13
5.43246e-13
-5.84277e-13
-1.47761e-13
8.31507e-12
8.10887e-13
-2.46048e-12
-1.47921e-12
6.60314e-14
2.15246e-13
6.64276e-13
-3.6195e-13
-2.17338e-12
0
-2.99439e-12
-1.29516e-11
7.98709e-13
7.21141e-13
3.5898e-12
5.49286e-13
2.24162e-13
-5.36398e-12
-2.02418e-13
1.72578e-12
-5.7382e-13
-9.01332e-13
-6.83985e-14
2.6021e-12
-7.3832e-14
2.33078e-12
4.20672e-13
7.6826e-13
9.03778e-13
5.55951e-13
-1.7267e-12
8.12507e-13
0
1.74256e-12
-1.12453e-12
-3.23169e-13
2.49253e-12
-8.79101e-13
-5.01915e-12
-1.0054e-12
1.5986e-12
-2.8388e-14
4.06343e-14
-1.05984e-13
2.26589e-12
2.37782e-12
-7.18582e-13
-9.06722e-13
3.66337e-12
-1.18657e-12
-1.17774e-13
-6.83207e-13
-8.37643e-12
-2.07421e-12
-1.04713e-12
-5.13316e-12
7.44486e-13
-2.69627e-13
1.32767e-12
-4.91491e-13
1.50135e-13
-7.80739e-14
1.60566e-12
-3.29372e-13
-8.58361e-12
-5.91238e-13
-4.60646e-13
3.62192e-12
-6.83297e-12
6.82783e-12
-1.71458e-13
2.16505e-13
-1.19063e-12
-4.18185e-13
1.80218e-12
-1.48967e-12
-7.26189e-12
9.66729e-13
2.12487e-13
2.01531e-12
7.72834e-12
-7.71213e-13
2.92656e-13
-1.03155e-13
7.6655e-13
-3.78725e-12
1.24844e-15
-4.45041e-13
-1.68806e-12
2.29649e-12
5.65734e-12
-4.11873e-15
1.92639e-13
1.57969e-12
2.61499e-12
1.36577e-12
-1.52654e-12
9.50281e-13
0
2.67046e-11
1.3741e-12
1.84946e-12
-1.85214e-12
-1.7597e-12
0
-7.44531e-12
-1.45489e-12
-6.37562e-12
-1.76611e-12
-2.6143e-12
-6.02281e-12
-3.13541e-12
-1.30865e-12
1.9558e-12
-8.40799e-13
-1.0664e-12
3.6053e-13
-1.73582e-13
2.41348e-12
3.35859e-12
1.93113e-12
4.41394e-12
-5.89614e-12
-2.24831e-13
-3.31314e-13
4.37724e-13
0
-4.09592e-13
-6.29214e-12
-2.91988e-13
5.00059e-12
0
4.09338e-12
-2.96575e-12
-2.98855e-12
-1.39468e-12
2.42319e-13
3.88871e-12
3.60759e-12
3.44785e-13
-1.27575e-12
4.59316e-14
-1.31933e-11
7.27809e-12
0
-2.95122e-12
-1.44712e-12
-7.0703e-13
7.96606e-12
-2.10601e-12
6.67524e-13
-4.30691e-12
-1.12011e-15
1.47475e-15
1.86218e-12
1.01842e-11
1.94748e-12
-2.77206e-12
-3.90588e-12
-3.03372e-13
-1.05011e-12
-7.45127e-13
-1.29551e-12
1.51233e-12
3.5127e-13
-2.01798e-13
1.74661e-12
0
-1.44073e-12
6.93148e-13
-1.05138e-12
-1.63496e-12
3.22046e-13
-3.10027e-12
9.37774e-12
1.35684e-12
5.23124e-12
2.29074e-12
7.41424e-13
-3.42794e-13
2.76428e-12
1.02378e-12
-2.99931e-13
2.19915e-13
0
4.60448e-13
4.01212e-12
1.73897e-11
-1.53859e-12
-2.40377e-12
-3.76638e-13
1.04931e-12
-4.10014e-12
0
0
3.90149e-13
2.14139e-12
1.31659e-12
2.82599e-12
2.61134e-12
-4.52238e-12
9.78075e-13
2.03935e-12
-5.76939e-13
6.86751e-13
-2.13834e-12
2.86001e-12
-2.86185e-12
-5.24588e-13
-5.45877e-12
1.11643e-12
1.01752e-11
-1.41379e-14
-4.79222e-13
3.30908e-13
-4.68906e-12
-1.48397e-11
-7.77616e-14
8.05615e-13
2.01707e-12
-4.72436e-12
2.23695e-12
-2.00025e-12
-1.02651e-11
-8.10056e-13
0
1.56608e-12
-6.82709e-12
-1.26207e-12
5.53841e-12
-4.9756e-12
-3.41746e-13
4.19739e-13
4.12833e-12
4.85209e-12
-2.88052e-13
0
4.70676e-12
-1.88822e-12
2.28407e-12
-9.14974e-14
1.0598e-12
-1.08342e-12
1.41173e-12
2.33331e-12
-3.81268e-13
0
4.67497e-13
-1.50545e-12
3.0095e-12
-4.59545e-13
-1.35892e-13
-8.93954e-15
-8.72349e-14
2.22564e-13
-2.60501e-13
2.6145e-12
-7.08153e-13
-5.15901e-12
9.77288e-14
-1.07722e-11
-3.32271e-12
1.42607e-12
1.56415e-13
1.38768e-15
-1.10031e-12
-3.1749e-12
-4.184e-12
-7.65161e-14
9.99933e-14
7.14437e-13
-1.2782e-12
2.828e-13
9.38e-13
1.40953e-13
-3.05685e-13
-6.95812e-13
-3.09498e-12
-7.06168e-14
-5.99521e-14
-2.40299e-12
5.75619e-12
-1.3541e-12
7.17693e-12
-5.71812e-13
-1.9217e-12
-2.97564e-12
0
2.15852e-12
-1.49574e-12
-2.17579e-11
6.22102e-13
-1.67747e-12
9.82588e-13
-9.63919e-13
3.00455e-12
4.86178e-12
-3.89133e-12
5.07112e-13
-1.19669e-12
-6.21234e-12
1.11221e-11
8.51359e-13
-2.33265e-12
7.43532e-12
-2.23741e-13
-8.70701e-13
3.50515e-12
1.18758e-14
-5.39256e-14
-4.14066e-12
3.93483e-14
-1.16046e-13
2.2217e-12
0
0
-1.24281e-12
-2.12352e-12
5.74804e-13
0
5.61722e-12
-1.04496e-12
-7.18679e-13
1.52579e-12
1.30361e-11
-4.99894e-12
7.02324e-14
-7.48703e-13
5.92725e-13
-1.29519e-11
3.24699e-12
1.43485e-12
-1.60767e-13
1.17592e-12
-3.76181e-13
1.19326e-13
2.2337e-12
4.90205e-12
1.06759e-11
0
-9.05403e-13
-3.23293e-12
-8.50962e-13
-2.45727e-12
9.55356e-13
5.79065e-13
-1.8148e-12
-1.04508e-13
-1.32586e-12
1.17451e-13
2.10168e-12
-1.05856e-12
-3.6759e-12
2.40792e-13
5.9891e-12
-3.36778e-12
9.15494e-14
1.825e-12
1.36186e-13
3.56838e-12
3.28155e-12
-6.24927e-13
0
6.95487e-16
1.86707e-12
-9.98931e-13
5.7681e-12
6.17802e-13
1.98475e-12
1.46657e-12
3.36891e-14
-3.32766e-13
-3.7795e-13
-1.35201e-12
4.59413e-12
9.29012e-13
1.76328e-12
-2.20566e-12
-4.79621e-13
7.15104e-14
2.77077e-12
-2.08931e-12
-3.9222e-14
1.98671e-15
-2.82539e-15
-3.26174e-12
-5.14246e-12
5.39233e-13
-7.60022e-13
8.84038e-13
2.27942e-13
8.09365e-14
0
2.02508e-12
-1.65325e-12
-1.68498e-12
3.49368e-13
-5.93102e-12
1.03263e-12
-1.12818e-12
-2.06117e-13
5.41294e-13
-1.67341e-12
4.9649e-13
-3.40695e-13
-2.57484e-13
-1.3685e-13
-6.71772e-13
1.42646e-12
7.30988e-14
1.94559e-12
-7.45547e-13
-7.85161e-13
-2.18285e-12
-5.15952e-13
2.71456e-13
-1.07151e-13
1.52051e-13
-3.03172e-13
0
1.83132e-12
9.86788e-14
-2.42704e-13
-3.24044e-12
2.12417e-12
0
0
-6.46013e-13
-2.86506e-12
1.30584e-11
1.97164e-12
-5.53883e-13
5.53768e-13
1.44707e-12
-8.64657e-13
-3.45042e-13
2.62837e-12
3.55383e-12
3.47148e-12
2.28138e-12
-6.90678e-13
2.98733e-12
3.9781e-13
9.99013e-16
1.41324e-15
-2.61018e-12
-9.89223e-14
-1.86365e-12
-1.88353e-12
-1.54323e-12
4.62021e-12
-1.72801e-12
3.70476e-12
4.54317e-13
-2.27092e-12
-3.46204e-13
-1.84632e-13
-9.15092e-12
5.3183e-13
2.9642e-11
-7.3049e-12
-4.9731e-13
1.1441e-12
4.16981e-12
9.83528e-13
-4.81181e-12
-6.11282e-13
1.42936e-13
-2.35954e-12
-4.44225e-13
-8.5916e-13
-5.61055e-12
5.21383e-13
2.46176e-12
-3.15395e-12
1.18689e-12
-5.41765e-12
-9.36197e-14
1.61955e-12
2.5e-12
1.44694e-12
1.98487e-11
2.02516e-12
2.35171e-12
2.60369e-14
-3.18871e-14
1.3193e-13
1.86689e-14
-1.90332e-13
1.94308e-12
5.64519e-13
1.69761e-12
2.70422e-11
2.31414e-13
-1.28751e-12
2.78381e-12
6.34824e-12
5.33166e-13
-1.29282e-12
-4.1728e-12
6.18766e-13
1.92117e-12
-7.24258e-13
8.94803e-12
-1.35367e-12
5.68789e-12
1.81232e-12
-2.67181e-12
5.85115e-13
4.01149e-12
-8.24461e-13
-5.83706e-12
-1.43586e-14
2.50493e-14
-9.98358e-13
1.07708e-12
-5.30005e-13
-2.23997e-12
1.68452e-12
2.49065e-13
-1.85666e-12
-1.26053e-11
0
1.17636e-12
8.84812e-13
7.87504e-14
6.5949e-12
0
-1.19344e-12
1.26217e-14
-1.03955e-12
-1.44055e-12
2.47735e-12
2.30005e-12
5.00747e-12
-1.34602e-12
-4.02364e-12
-2.68466e-12
7.40185e-13
1.5557e-12
-1.3905e-12
1.13535e-13
7.06419e-14
4.71349e-13
-3.99793e-12
7.82405e-14
9.79833e-13
-9.31265e-13
2.80927e-13
-7.87902e-13
1.44435e-12
3.08529e-12
7.77193e-12
-2.7433e-12
8.07961e-13
-1.16385e-12
-1.88107e-12
-5.90719e-12
-1.80146e-12
-1.43642e-13
2.88842e-12
-3.70461e-12
0
4.26513e-12
-1.19714e-13
-1.3266e-12
-4.21876e-12
-7.93917e-14
4.75955e-12
1.6382e-12
1.16253e-11
9.31224e-12
2.49394e-12
-5.19924e-12
-2.48717e-13
5.19086e-13
-3.82327e-15
3.38151e-12
2.17792e-12
4.34654e-13
-8.47636e-13
9.23538e-14
2.72878e-12
-7.31908e-13
3.13903e-14
-3.67927e-14
-1.39001e-12
3.30817e-12
-1.12611e-13
5.98109e-14
-2.09626e-12
5.52619e-13
1.07949e-12
8.95847e-13
-2.3963e-12
-1.51417e-13
1.76779e-12
-1.11288e-12
1.13041e-12
3.33132e-12
6.61536e-13
-1.08385e-12
1.49183e-12
-2.07352e-12
-4.34199e-12
-4.77665e-12
3.05077e-12
-1.80282e-13
1.82315e-12
-2.19827e-12
0
4.95857e-13
-2.47726e-12
1.18621e-12
-1.06093e-11
-2.75598e-12
0
1.99344e-12
-2.25364e-12
2.59447e-12
-2.83194e-12
9.23576e-13
2.28082e-11
2.36551e-11
4.62234e-12
4.77611e-13
1.61664e-14
-1.18454e-14
-4.71468e-12
-5.6875e-13
1.03136e-12
-1.00064e-12
-6.11795e-13
4.93479e-13
1.15924e-12
1.64565e-12
5.75752e-13
0
2.08633e-15
3.93913e-12
2.37083e-12
2.58915e-13
4.56313e-12
1.26832e-12
1.91982e-13
-1.21033e-13
-7.37068e-12
-1.41331e-11
3.18791e-12
-1.97109e-12
1.52799e-12
-2.32399e-12
-5.02066e-13
-9.95327e-13
-6.47057e-13
-4.43519e-14
-8.43276e-13
-1.08539e-12
1.52971e-12
5.8769e-13
1.08946e-12
8.11818e-12
1.6785e-12
-1.66694e-13
1.08336e-13
1.28263e-12
-3.30557e-13
8.93954e-13
-8.89848e-15
-7.60375e-15
3.59512e-12
-2.86441e-12
-7.49805e-13
-2.02438e-12
7.41331e-14
-1.51522e-13
1.88272e-12
-3.87605e-14
1.16833e-13
-3.14399e-12
-1.74512e-12
5.82723e-13
4.50874e-12
0
1.34072e-12
-4.64562e-12
2.11116e-13
1.52961e-12
5.0103e-12
1.51101e-13
1.47334e-13
-2.94659e-12
1.67807e-11
-3.80418e-12
-3.5146e-12
3.25585e-12
1.7113e-12
1.20301e-12
-1.07112e-12
-2.29996e-12
1.11505e-12
3.51545e-15
5.87027e-15
-3.64541e-13
-1.34224e-13
7.84105e-13
4.58216e-12
-1.20589e-13
3.44763e-13
-2.83587e-12
-1.43124e-12
2.91699e-12
3.00835e-12
-1.93216e-12
2.89392e-12
-2.2373e-12
1.35984e-12
-1.43539e-12
-1.73604e-12
-5.72927e-12
-4.52648e-12
-2.83362e-12
2.27316e-12
-7.09126e-12
-1.26264e-12
1.73341e-12
4.03361e-13
-1.34696e-11
2.36248e-12
-1.38733e-13
3.39965e-13
-2.02878e-13
1.68425e-12
-4.3478e-13
-3.72787e-12
-2.60036e-12
-1.35963e-12
4.0735e-12
7.98398e-12
3.7846e-12
-3.07535e-12
1.90411e-12
-1.43291e-12
0
7.42665e-12
1.33012e-11
0
-3.67426e-12
1.01177e-12
1.48835e-12
1.36385e-12
2.49467e-13
7.96028e-12
-9.29425e-13
1.26491e-12
2.45827e-15
1.3365e-13
-5.44461e-13
-7.2247e-15
3.03316e-13
-1.69742e-13
8.22755e-15
-1.28593e-12
2.92545e-13
-3.9764e-12
1.45147e-12
-1.90802e-13
3.15312e-12
9.97739e-13
1.34462e-12
-3.71155e-12
-1.60382e-12
-8.71804e-13
7.38142e-12
-9.719e-13
-1.6671e-13
2.72463e-12
-8.18405e-14
6.48241e-14
-6.28571e-12
1.65421e-11
0
-2.03679e-12
4.2109e-14
-4.20432e-14
-1.53264e-14
1.47309e-14
-6.92163e-14
6.75949e-12
-9.47057e-12
0
0
-2.68117e-13
-1.23298e-12
-1.43783e-11
1.24873e-13