/*--------------------------------*- C++ -*----------------------------------*\
| =========                 |                                                 |
| \\      /  F ield         | OpenFOAM: The Open Source CFD Toolbox           |
|  \\    /   O peration     | Version:  v3.0+                                 |
|   \\  /    A nd           | Web:      www.OpenFOAM.com                      |
|    \\/     M anipulation  |                                                 |
\*---------------------------------------------------------------------------*/
FoamFile
{
    version     2.0;
    format      ascii;
    class       volSymmTensorField;
    location    "2000";
    object      sigma;
}
// * * * * * * * * * * * * * * * * * * * * * * * * * * * * * * * * * * * * * //

dimensions      [1 -1 -2 0 0 0 0];

internalField   nonuniform List<symmTensor> 
27023
(
(-1.26691e+07 -1.05041e+07 1.02016e-13 -1.02773e+07 -1.90277e-14 -5.69348e+06)
(1.26925e+07 -1.05251e+07 7.20732e-14 1.02965e+07 -1.28496e-13 5.70404e+06)
(8.21195e+06 -7.81549e+06 4.54477e-13 8.24848e+06 -1.37428e-13 4.08417e+06)
(-8.19755e+06 -7.80013e+06 3.47943e-13 -8.23391e+06 1.06793e-13 -4.07698e+06)
(-1.27831e+07 -1.00071e+07 0 -9.67166e+06 0 -5.57148e+06)
(1.28068e+07 -1.00277e+07 -3.45065e-13 9.68971e+06 1.09365e-13 5.58183e+06)
(6.74506e+07 -9.64995e+06 2.87122e-12 3.59311e+06 -2.75969e-12 1.76274e+07)
(-6.73698e+07 -9.63521e+06 -7.09115e-13 -3.58818e+06 -6.65454e-13 -1.76061e+07)
(3.11626e+06 -3.98364e+06 -6.7962e-14 5.88024e+06 4.48894e-14 2.23222e+06)
(-3.10895e+06 -3.97631e+06 -3.19054e-13 -5.87371e+06 -9.50723e-14 -2.22878e+06)
(4.89486e+07 -9.5696e+06 -4.20628e-13 5.65277e+06 7.8787e-13 1.35477e+07)
(-4.88798e+07 -9.55078e+06 -6.19609e-13 -5.64432e+06 -3.52689e-13 -1.35285e+07)
(573809 -952109 -4.3657e-14 1.61917e+06 -8.47881e-14 544123)
(-585490 -955645 2.3449e-14 -1.61511e+06 -2.22581e-14 -546014)
(-1.94006e+07 -2.09277e+06 5.20352e-13 -523742 2.16106e-12 -4.94363e+06)
(1.61819e+06 7.01599e+06 6.42087e-13 87409.4 -4.97535e-13 423194)
(1.10891e+06 6.69336e+06 -5.81173e-13 317925 -2.53212e-13 354027)
(-4.16386e+07 -1.97753e+06 0 -914436 0 -1.05583e+07)
(4.17262e+07 -1.98887e+06 2.12309e-12 911582 -1.21871e-12 1.05793e+07)
(3.05958e+07 -1.7337e+06 0 1.42991e+06 0 7.94623e+06)
(-3.05127e+07 -1.72188e+06 -4.71394e-14 -1.42419e+06 6.57274e-13 -7.92418e+06)
(6.70748e+07 -8.68929e+06 -1.21277e-14 3.07847e+06 -6.90207e-13 1.74065e+07)
(-6.69935e+07 -8.67528e+06 -1.65638e-12 -3.07403e+06 -2.04437e-12 -1.73852e+07)
(3.42573e+07 -1.24392e+06 -5.93211e-13 4.62024e+06 -9.52183e-13 9.64631e+06)
(-3.41923e+07 -1.22874e+06 1.51249e-12 -4.61027e+06 -1.62178e-13 -9.6277e+06)
(5.42472e+06 -699794 2.41956e-12 514697 -3.5142e-13 1.47369e+06)
(-2.39183e+07 2.11399e+06 1.12818e-12 -3.33173e+06 1.80584e-13 -6.76129e+06)
(2.51614e+06 -1.23331e+06 5.23455e-12 4087.16 1.36107e-11 625319)
(-2.36078e+07 1.91454e+06 -8.83365e-13 -3.6445e+06 4.7408e-13 -6.76184e+06)
(2.29521e+07 -2.39187e+06 -3.23874e-12 -109000 4.07724e-12 5.66783e+06)
(1.11969e+07 -944641 6.24877e-12 677532 -3.39111e-12 2.94629e+06)
(3.06177e+07 -2.02044e+06 2.59723e-13 1.41686e+06 -1.34321e-12 7.94842e+06)
(-3.05367e+07 -2.01009e+06 3.21528e-12 -1.41329e+06 2.66113e-12 -7.92745e+06)
(-3.10152e+07 -1.786e+06 -3.11863e-13 -80174.3 1.4538e-12 -7.7154e+06)
(-1.92056e+07 -1.50973e+06 6.34004e-13 -570694 2.64692e-12 -4.90689e+06)
(2.41226e+07 -1.629e+06 -6.86131e-12 75445.3 1.31283e-12 6.00403e+06)
(2.79057e+07 -1.13852e+06 1.09967e-12 2.42271e+06 -9.43652e-13 7.52508e+06)
(-2.78151e+07 -1.12228e+06 2.19867e-12 -2.41567e+06 1.88702e-12 -7.50087e+06)
(2.99299e+06 -3.97908e+06 1.25442e-13 5.50259e+06 -1.11775e-13 2.10793e+06)
(-2.9881e+06 -3.97234e+06 -1.81098e-13 -5.49538e+06 -8.38933e-14 -2.10493e+06)
(-8.17151e+06 -7.80933e+06 -1.34873e-13 -8.71559e+06 -5.74587e-14 -4.19003e+06)
(8.18638e+06 -7.82471e+06 -5.74013e-14 8.73103e+06 5.63447e-15 4.19755e+06)
(-1.56092e+07 -1.71571e+06 -6.92398e-12 -110185 -3.47752e-12 -3.9003e+06)
(-1.21925e+07 -1.01338e+07 -7.47795e-14 -9.48021e+06 -1.01161e-13 -5.37745e+06)
(1.22154e+07 -1.01547e+07 7.47728e-14 9.49842e+06 -1.00828e-13 5.38763e+06)
(4.11753e+07 -1.93024e+06 3.27823e-12 857617 -9.31633e-13 1.04292e+07)
(-4.10872e+07 -1.91886e+06 -2.364e-12 -859248 -1.42271e-12 -1.04078e+07)
(3.23891e+07 -1.44583e+06 -3.08258e-12 3.57133e+06 1.17568e-12 8.9225e+06)
(-3.23088e+07 -1.43427e+06 3.08255e-12 -3.55835e+06 1.17518e-12 -8.89937e+06)
(2.13583e+07 -2.1629e+06 -2.07369e-12 -118163 7.75926e-13 5.2701e+06)
(3.1266e+07 -911859 2.3279e-12 3.3694e+06 -7.01812e-13 8.59374e+06)
(-3.11849e+07 -899691 -9.09329e-13 -3.35675e+06 -1.18146e-13 -8.57049e+06)
(-3.02517e+07 -1.91209e+06 5.41157e-12 -63143.1 6.90159e-13 -7.52173e+06)
(513.594 -63690.9 2.83123e-15 521721 1.57576e-14 129577)
(-526.815 -63542.9 6.78706e-14 -517915 5.77034e-14 -128636)
(3.41313e+07 -1.7799e+06 1.13272e-12 108231 2.28744e-12 8.49553e+06)
(1.41405e+07 -1.52742e+06 1.82427e-12 178641 4.91304e-12 3.55286e+06)
(2.49105e+07 -1.27016e+06 8.46352e-12 -55746.3 2.09692e-12 6.16698e+06)
(-1.14961e+07 -2.36067e+06 -1.5338e-12 24442.7 1.27964e-12 -2.84636e+06)
(7.8375e+06 -8.08783e+06 -7.08685e-13 9.05997e+06 2.46691e-13 4.1926e+06)
(-7.82394e+06 -8.07255e+06 -4.72849e-13 -9.04428e+06 -1.48689e-13 -4.18535e+06)
(2.08578e+07 -1.48224e+06 -1.24272e-11 38010.3 4.50477e-12 5.18466e+06)
(3.28382e+06 -1.80697e+06 5.03745e-12 171136 -1.12282e-12 857245)
(3.71475e+06 -922946 2.8372e-12 -78530.8 1.42629e-11 902220)
(-1.51489e+07 -2.48669e+06 -7.3999e-12 -45792.6 -1.10491e-11 -3.7701e+06)
(9.94343e+06 -698264 -1.47191e-12 725013 6.69805e-13 2.64706e+06)
(2.72328e+07 -1.60415e+06 7.65483e-13 919400 -3.57763e-12 6.98514e+06)
(6.71356e+06 -439994 -3.3184e-12 562130 1.25599e-13 1.80525e+06)
(-2.42918e+07 2.29439e+06 7.34852e-13 -2.85795e+06 -6.14824e-13 -6.73639e+06)
(-1.45713e+07 -2.2957e+06 -7.26029e-12 -141798 -1.56169e-12 -3.65061e+06)
(2.67211e+07 -1.37884e+06 0 2.54672e+06 0 7.26194e+06)
(-2.66302e+07 -1.36258e+06 -2.21951e-12 -2.53961e+06 -3.26699e-12 -7.23762e+06)
(4.66839e+07 -3.10201e+06 -2.06418e-13 4.3632e+06 1.79116e-12 1.26658e+07)
(-4.66118e+07 -3.08726e+06 -1.25961e-12 -4.35277e+06 2.39224e-12 -1.26453e+07)
(6.20134e+07 -1.10086e+06 -1.31157e-12 88011 4.69348e-12 1.54086e+07)
(-6.19312e+07 -1.09999e+06 -8.18084e-13 -88157.4 2.29845e-12 -1.53883e+07)
(121984 -258320 7.60124e-15 757970 4.34582e-14 218334)
(-120642 -256713 -4.31489e-14 -754813 3.71473e-14 -217218)
(-7.31588e+07 -3.94069e+06 4.95542e-12 -1.04223e+06 4.47886e-12 -1.84108e+07)
(7.32437e+07 -3.94632e+06 -2.25436e-12 1.04327e+06 2.97516e-12 1.84321e+07)
(-1.81169e+07 522604 7.89172e-13 -2.42854e+06 1.20435e-12 -5.09775e+06)
(4.72885e+07 -9.08746e+06 2.70272e-12 5.36437e+06 -1.84915e-12 1.30643e+07)
(-4.72201e+07 -9.06875e+06 -2.12595e-12 -5.35598e+06 -1.45107e-12 -1.30452e+07)
(4.54681e+07 -3.39835e+06 -3.91924e-13 4.60569e+06 7.48643e-13 1.24243e+07)
(-4.53963e+07 -3.38363e+06 9.81317e-13 -4.59499e+06 2.50954e-12 -1.24038e+07)
(-6.57475e+07 -552514 -3.17559e-12 9320.13 -1.08877e-12 -1.6311e+07)
(6.58301e+07 -552180 -1.70408e-12 -9104.69 9.2589e-13 1.63315e+07)
(-2.70736e+07 -1.58964e+06 1.85764e-12 -902987 -3.68348e-13 -6.94156e+06)
(2.6021e+06 -2.2637e+06 3.46471e-12 139989 -2.68158e-13 680369)
(-1.21179e+07 -2.14327e+06 -2.9987e-12 21586 1.72439e-12 -3.00134e+06)
(1.16519e+07 -2.10533e+06 1.76609e-12 127324 2.86834e-11 2.92267e+06)
(1.58214e+07 -1.02712e+07 8.66665e-14 8.5425e+06 9.26044e-14 6.04519e+06)
(-1.57916e+07 -1.02495e+07 -1.81157e-13 -8.5256e+06 -1.09549e-13 -6.03359e+06)
(1.36347e+07 5.13612e+06 -2.53142e-13 1.57287e+06 4.58556e-13 3.77331e+06)
(-5.6829e+06 -1.48921e+06 -5.71677e-14 -359857 -7.56767e-14 -1.49933e+06)
(-3.43089e+07 -637220 -2.43441e-12 -4.34883e+06 -1.98444e-12 -9.59178e+06)
(3.43704e+07 -650283 -2.57053e-12 4.35675e+06 3.9397e-13 9.60898e+06)
(-1.80769e+07 899858 2.31674e-12 -2.51375e+06 4.70428e-13 -5.10896e+06)
(-1.20763e+07 -2.52166e+06 -3.69784e-12 -109896 -2.45491e-12 -3.02365e+06)
(622081 -2.70846e+06 2.00625e-12 -38384.2 4.46821e-12 144827)
(-1.97939e+07 -1.61411e+06 -1.36744e-12 8434.74 -4.74061e-12 -4.90917e+06)
(-1.24136e+07 -397654 -5.71794e-12 -108966 1.1862e-11 -3.1071e+06)
(1.26882e+07 -396523 -2.19114e-12 312937 2.19413e-11 3.22585e+06)
(5.47537e+07 -6.17528e+06 -1.39706e-14 4.53681e+06 9.8583e-13 1.47112e+07)
(-5.46809e+07 -6.15936e+06 1.37749e-12 -4.52929e+06 7.37547e-13 -1.46912e+07)
(2.23753e+06 -1.81208e+06 8.72931e-12 -113631 -1.62156e-13 526982)
(6.11899e+07 -6.25702e+06 -8.53432e-13 3.43333e+06 8.64995e-15 1.60343e+07)
(-6.11118e+07 -6.24373e+06 6.22159e-13 -3.428e+06 -7.94536e-13 -1.60136e+07)
(3.36918e+07 -1.84927e+06 -3.24162e-12 252510 -1.07038e-12 8.42227e+06)
(2.32962e+07 -1.43882e+06 1.78374e-11 222281 -5.52794e-12 5.83542e+06)
(1.4351e+07 -2.71342e+06 -8.13779e-12 -109633 -2.75284e-12 3.53358e+06)
(6.13605e+07 -6.55137e+06 -5.10709e-14 4.04531e+06 1.05681e-12 1.62285e+07)
(-6.12827e+07 -6.53779e+06 6.64292e-13 -4.03937e+06 2.47056e-13 -1.62077e+07)
(3.39023e+07 -642476 -3.10234e-12 4.27512e+06 3.35559e-12 9.47258e+06)
(-3.38387e+07 -628843 4.70132e-13 -4.26655e+06 1.42565e-12 -9.4547e+06)
(6.25668e+07 -709510 1.4139e-12 115983 1.84185e-12 1.55529e+07)
(-6.2484e+07 -708422 3.37438e-12 -115627 2.89715e-12 -1.55322e+07)
(1.51989e+07 1.73255e+06 -2.26396e-13 -722954 1.34351e-13 3.59177e+06)
(-2.48196e+07 77481.2 -1.02079e-12 -1.79013e+06 6.24271e-14 -6.60242e+06)
(-1.83733e+07 -1.26486e+06 1.57576e-12 -1.54401e+06 -4.78411e-13 -4.94189e+06)
(1.49819e+07 -1.82026e+06 -8.82618e-12 236114 -3.65502e-13 3.7759e+06)
(1.60094e+06 -1.45028e+06 5.23471e-12 26853.9 -9.41595e-13 403889)
(-5.10974e+07 -1.94528e+07 -4.93807e-13 -8.37488e+06 -4.96215e-13 -1.47563e+07)
(5.11652e+07 -1.94791e+07 1.35878e-12 8.38614e+06 -1.52469e-12 1.47759e+07)
(7.26612e+07 -9.20554e+06 -2.46704e-12 1.5534e+06 2.056e-12 1.84141e+07)
(-7.25762e+07 -9.19361e+06 1.16095e-12 -1.55125e+06 4.03244e-13 -1.83925e+07)
(1.55366e+07 -9.90834e+06 -4.0332e-14 8.02048e+06 1.67193e-13 5.845e+06)
(-1.55068e+07 -9.88673e+06 2.13244e-13 -8.00401e+06 1.86482e-13 -5.83352e+06)
(5.56465e+07 -6.66147e+06 2.2293e-13 4.90308e+06 3.29327e-13 1.50236e+07)
(-5.55737e+07 -6.64508e+06 1.51985e-12 -4.89491e+06 1.85433e-12 -1.50035e+07)
(-1.11001e+07 -1.5832e+06 -6.99203e-13 -103675 5.78169e-12 -2.7799e+06)
(-1.39695e+06 -1.0692e+06 1.68842e-14 -832850 4.26531e-14 -553257)
(1.42225e+06 -1.06904e+06 -8.3401e-15 767024 2.32894e-14 543202)
(-1.04387e+07 -1.22719e+06 9.24382e-14 -792205 -9.51975e-14 -2.78661e+06)
(1.29405e+07 -2.12544e+06 -6.33422e-12 142198 -2.77196e-12 3.24608e+06)
(-6.59546e+07 -20689.9 -4.91707e-12 -131694 -6.98547e-12 -1.63974e+07)
(6.60375e+07 -20373.2 -1.18148e-13 131746 1.59267e-12 1.64179e+07)
(6.40129e+06 1.92524e+06 1.53922e-12 893919 1.10883e-12 1.81009e+06)
(4.28293e+07 -2.2106e+06 1.59686e-12 1.33406e+06 -3.66991e-12 1.09578e+07)
(-4.27418e+07 -2.20162e+06 1.86224e-13 -1.33427e+06 -2.34262e-12 -1.09362e+07)
(-6.30629e+07 -1.0702e+07 -4.46236e-13 -4.64678e+06 -9.18176e-13 -1.68002e+07)
(6.31404e+07 -1.07197e+07 -3.57629e-12 4.65361e+06 2.28683e-12 1.68211e+07)
(-4.39152e+06 1.85541e+06 -1.56474e-12 -520215 -1.4867e-12 -1.2187e+06)
(6.52502e+07 -9.44822e+06 -1.50638e-12 3.82217e+06 1.59621e-12 1.71383e+07)
(-6.51711e+07 -9.4327e+06 -1.03636e-12 -3.81666e+06 -3.66428e-13 -1.71173e+07)
(-1.04949e+07 -855050 1.17514e-12 -581185 2.80746e-12 -2.7482e+06)
(-1.14126e+07 -1.78418e+06 -5.88569e-12 18253.8 -8.40192e-13 -2.82716e+06)
(3.12118e+07 -218030 -2.10694e-12 4.00953e+06 2.36528e-12 8.73912e+06)
(2.77287e+07 -2.07383e+06 7.60204e-13 924782 2.03955e-12 7.1095e+06)
(2.66355e+07 -1.54777e+07 1.28038e-13 1.1073e+07 2.80856e-13 9.35625e+06)
(-2.65879e+07 -1.54499e+07 -1.95028e-13 -1.10529e+07 -1.00817e-13 -9.33944e+06)
(3.32172e+07 -1.31598e+07 7.57732e-13 8.13046e+06 -7.96496e-13 1.02592e+07)
(-3.31638e+07 -1.31361e+07 -4.23887e-13 -8.11392e+06 -2.69313e-13 -1.02418e+07)
(-1.86126e+07 -2.43833e+06 1.87609e-12 -10520.3 -3.40678e-12 -4.62076e+06)
(-1.98036e+07 -1.015e+06 1.83967e-12 -1.46351e+06 -3.99586e-13 -5.27681e+06)
(-2.02613e+07 -684152 1.31522e-11 -255134 6.02801e-13 -5.09054e+06)
(2.02512e+07 -684422 -5.60184e-12 390773 5.35525e-12 5.1217e+06)
(1.95599e+07 -1.77865e+06 3.83117e-12 587816 -3.38212e-12 4.99905e+06)
(4.23181e+07 -2.26339e+06 3.97445e-12 1.34496e+06 -5.86458e-12 1.08337e+07)
(-4.22308e+07 -2.25479e+06 -1.74406e-12 -1.34461e+06 -1.60541e-12 -1.08119e+07)
(-3.80695e+07 -1.47537e+06 2.82229e-12 135291 2.59431e-12 -9.41224e+06)
(-1.56861e+07 -2.28192e+06 -6.2784e-12 -5096.24 -9.26399e-13 -3.8933e+06)
(-3.25517e+07 -1.18322e+06 6.00126e-12 -28895.8 2.22421e-12 -8.08392e+06)
(2.29794e+06 -2.57487e+06 6.46048e-12 265938 -7.21051e-12 636151)
(-3.94959e+07 -1.38267e+07 -3.46814e-13 -7.52066e+06 -3.13882e-13 -1.16658e+07)
(3.95567e+07 -1.38482e+07 -3.6125e-13 7.53417e+06 2.89757e-13 1.16842e+07)
(-5.72933e+07 -9.66402e+06 -2.49957e-13 -4.61206e+06 -5.26666e-13 -1.536e+07)
(5.73671e+07 -9.68247e+06 1.37348e-12 4.61965e+06 -1.46955e-12 1.53802e+07)
(-1.29431e+07 1.1882e+06 -2.16665e-13 -1.79351e+06 -1.08565e-12 -3.65644e+06)
(1.39723e+06 1.3049e+06 -1.05919e-12 165111 2.00721e-12 387650)
(3.64594e+06 -2.89205e+06 9.14748e-13 125632 3.03163e-11 935803)
(-7.35722e+07 -4.89893e+06 4.48522e-12 -1.19667e+06 3.89844e-12 -1.85517e+07)
(7.36566e+07 -4.90522e+06 1.59291e-13 1.19791e+06 2.94558e-13 1.85729e+07)
(-1.32874e+07 -2.19772e+06 -1.4541e-12 111024 2.60606e-11 -3.26933e+06)
(1.32017e+07 -2.06032e+06 0 192955 0 3.32348e+06)
(-2.06064e+07 -1.96846e+06 7.95013e-12 -303284 2.14402e-12 -5.18813e+06)
(1.70877e+06 -1.79495e+06 8.3934e-12 96622.8 -6.15713e-12 447956)
(-4.0969e+06 1.7011e+06 -2.08862e-12 -798888 -1.11262e-12 -1.21474e+06)
(-1.3531e+07 -2.39898e+06 -1.52688e-12 103558 4.37601e-12 -3.33163e+06)
(6.73448e+06 2.52078e+06 2.4533e-13 1.18895e+06 9.9669e-14 1.96596e+06)
(-2.77591e+07 -2.06486e+06 6.49962e-13 -943748 2.10585e-12 -7.12176e+06)
(-6.01979e+07 -9.99227e+06 -2.54992e-12 -4.08386e+06 -2.26405e-12 -1.59496e+07)
(6.02735e+07 -1.00098e+07 -1.63547e-12 4.09025e+06 1.77402e-12 1.597e+07)
(-2.06861e+07 -1.77446e+06 -1.87956e-12 153773 -4.28601e-12 -5.09449e+06)
(-3.79695e+07 -1.71515e+06 -4.35282e-12 -155059 1.47284e-12 -9.45949e+06)
(-4.04325e+07 -1.44802e+06 1.23293e-12 -239566 -2.76454e-14 -1.00916e+07)
(-3.24934e+07 -627074 1.16166e-12 -4.44548e+06 1.46369e-12 -9.16528e+06)
(3.25534e+07 -639407 -7.89537e-13 4.45452e+06 1.95734e-12 9.1824e+06)
(-3.41873e+07 -1.29558e+06 -4.1802e-12 -23246 8.52566e-12 -8.48833e+06)
(-1.22113e+07 -2.4035e+06 2.90388e-12 7489.14 -4.52091e-12 -3.02802e+06)
(-5.72604e+07 -1.05408e+07 -1.99001e-12 -5.23921e+06 -2.24757e-12 -1.55074e+07)
(5.73336e+07 -1.05598e+07 1.21119e-13 5.24705e+06 -6.50063e-13 1.55275e+07)
(-1.74005e+07 1.69236e+06 -5.41754e-13 -2.37422e+06 1.64806e-12 -4.90652e+06)
(2.9551e+06 -2.24158e+06 -1.49153e-12 -4771.62 -7.47971e-12 732036)
(7.30892e+07 -9.35841e+06 1.15386e-12 2.40695e+06 -7.94964e-13 1.87321e+07)
(-7.30047e+07 -9.3462e+06 1.90975e-12 -2.40414e+06 1.87756e-12 -1.87105e+07)
(-4.2571e+07 -637514 -7.4818e-12 -25069.1 5.58887e-14 -1.0569e+07)
(-5.54066e+07 -1.10088e+07 7.16549e-13 -5.14178e+06 6.00438e-13 -1.50233e+07)
(5.54789e+07 -1.10281e+07 4.31167e-13 5.14972e+06 -4.80448e-13 1.50432e+07)
(-2.33012e+07 315689 4.03387e-13 -1.87253e+06 1.85653e-13 -6.24612e+06)
(2.06935e+07 -2.16338e+06 3.3188e-12 548781 2.53746e-12 5.27064e+06)
(-2.46445e+07 2.03374e+06 7.62941e-13 -3.01188e+06 1.10131e-13 -6.8621e+06)
(6.0774e+07 -767596 2.43432e-12 -12907.4 -4.74238e-13 1.50761e+07)
(-6.06886e+07 -762660 4.68986e-12 13559 4.47924e-12 -1.50547e+07)
(-1.20628e+07 -9.53486e+06 0 -8.49511e+06 0 -5.10084e+06)
(1.20853e+07 -9.55509e+06 -4.82039e-13 8.51159e+06 1.58198e-13 5.11051e+06)
(-1.55542e+07 -428214 1.79719e-12 -1.35833e+06 7.96836e-13 -4.19633e+06)
(-4.21005e+07 -1.49386e+06 -1.08068e-12 -81851.5 -2.20286e-12 -1.04663e+07)
(6.06654e+07 -390831 2.12943e-12 72104 -4.05405e-12 1.50702e+07)
(-6.058e+07 -386394 2.62197e-12 -71814.4 3.35324e-12 -1.50489e+07)
(20292.8 -136962 0 80222.8 0 24940)
(-20078.6 -135739 9.20229e-16 -79529.5 1.0313e-15 -24714.8)
(1.32527e+07 5.81291e+06 -4.57142e-13 1.16685e+06 3.45871e-14 3.57779e+06)
(-1.65886e+07 -931508 1.77502e-12 -1.48899e+06 -4.61529e-13 -4.48542e+06)
(-7.22619e+06 -3.77357e+06 -2.07883e-13 -1.30831e+06 9.9047e-15 -2.11758e+06)
(7.24142e+06 -3.78016e+06 1.21398e-13 1.3135e+06 5.52597e-14 2.12265e+06)
(-2.041e+07 1.42969e+06 -1.08937e-12 -2.6989e+06 -1.36485e-12 -5.7338e+06)
(1.62241e+06 1.77923e+06 1.13986e-12 342802 -2.56808e-13 487609)
(4.30568e+06 -2.71765e+06 2.1538e-12 46951.5 2.0034e-12 1.07998e+06)
(-6.48264e+07 -2.16142e+06 1.69775e-12 -442605 1.19554e-12 -1.61946e+07)
(6.49084e+07 -2.16445e+06 2.32129e-12 443013 -3.56912e-12 1.6215e+07)
(-1.1108e+07 -1.3827e+06 7.30593e-12 -32324.4 -3.50393e-12 -2.76413e+06)
(-5.1423e+07 -1.89084e+07 6.63197e-13 -7.46464e+06 7.85171e-13 -1.46112e+07)
(5.14906e+07 -1.89341e+07 6.22268e-14 7.47511e+06 -5.3984e-14 1.46306e+07)
(-1.93543e+07 -1.39451e+06 -1.94912e-12 -45570.4 -9.01255e-12 -4.81351e+06)
(5.71974e+07 -3.03587e+06 -1.38648e-12 1.5413e+06 -1.15965e-12 1.45743e+07)
(-5.71148e+07 -3.02998e+06 3.0488e-12 -1.53911e+06 2.55691e-12 -1.45532e+07)
(4.71027e+07 -3.46264e+06 -4.70028e-13 4.62169e+06 -1.72903e-12 1.28339e+07)
(-4.70322e+07 -3.44671e+06 -1.7613e-12 -4.61156e+06 -2.01847e-12 -1.28139e+07)
(1.28054e+06 -1.93439e+06 1.78265e-14 3.27768e+06 -8.89954e-14 1.13099e+06)
(-1.27978e+06 -1.93199e+06 1.17724e-13 -3.2739e+06 8.67332e-14 -1.12986e+06)
(3.06745e+06 -2.16969e+06 -5.45804e-12 -304054 -1.00633e-11 685656)
(5.89097e+07 -2.41993e+06 -9.53461e-13 1.28152e+06 -3.51107e-12 1.49347e+07)
(-5.88268e+07 -2.4146e+06 -1.56185e-12 -1.28012e+06 -6.216e-13 -1.49137e+07)
(-3.88458e+07 -1.382e+06 -2.06734e-12 -55466.9 -1.65395e-12 -9.6522e+06)
(5.70741e+07 -1.78874e+06 2.61286e-12 418941 2.63347e-12 1.42652e+07)
(-5.69907e+07 -1.78536e+06 -1.12086e-12 -418933 2.25753e-12 -1.42445e+07)
(6.27457e+07 -234014 4.05343e-12 84616.7 -7.61653e-12 1.55895e+07)
(2.35878e+07 -1.77642e+06 1.86028e-13 190744 -3.00009e-12 5.89995e+06)
(-7.08814e+07 -1.09937e+07 3.19544e-12 -2.85482e+06 3.23386e-12 -1.82954e+07)
(7.09645e+07 -1.10081e+07 -3.1982e-12 2.85817e+06 3.23494e-12 1.83169e+07)
(2.51792e+07 1.65836e+06 2.06894e-12 3.50115e+06 -8.76646e-13 7.11618e+06)
(3.98614e+07 -1.58422e+06 -2.25044e-13 46310.1 1.37504e-12 9.90193e+06)
(3.99144e+07 -1.67998e+06 -7.48082e-12 96467.4 6.39349e-12 9.92751e+06)
(-3.17869e+07 -2.08616e+06 -6.96485e-13 -396982 1.10839e-12 -7.98546e+06)
(1.48006e+07 5.09318e+06 8.12795e-13 1.04009e+06 -3.10201e-13 3.9304e+06)
(190777 -2.91889e+06 6.95655e-12 355106 -7.63465e-12 135445)
(-2.1828e+07 3.00338e+06 6.52081e-13 -2.97567e+06 -4.25326e-13 -6.15429e+06)
(3.30997e+07 -900082 -4.90324e-13 -76339.1 5.95638e-12 8.19376e+06)
(-3.11242e+07 -1.74211e+06 4.84121e-13 -309950 -2.11282e-12 -7.79946e+06)
(-6.76549e+07 -4.94072e+06 -1.96521e-12 -2.52014e+06 -1.52984e-12 -1.74119e+07)
(6.77377e+07 -4.94988e+06 2.97929e-12 2.5237e+06 -3.21855e-12 1.74333e+07)
(-1.43984e+07 -2.34915e+06 -4.92967e-12 93531.6 2.39391e-13 -3.54933e+06)
(-1.07604e+07 4.66527e+06 -7.81875e-13 -1.65126e+06 1.97784e-13 -3.07958e+06)
(-4.21892e+07 -491611 1.97878e-12 -13222.9 7.10973e-13 -1.04713e+07)
(-4.28613e+07 -1.02731e+06 -5.0179e-12 -108541 -1.87731e-12 -1.06617e+07)
(5.17542e+07 -1.22939e+06 0 1775.3 0 1.28417e+07)
(-3.92464e+07 -692805 -4.21936e-12 -97736.7 -2.84515e-12 -9.76207e+06)
(3.435e+07 -2.21175e+06 -4.1789e-12 1.37625e+06 -2.25324e-13 8.86442e+06)
(-3.42645e+07 -2.20238e+06 1.58338e-12 -1.37606e+06 -1.43238e-12 -8.84315e+06)
(1.36826e+07 2.37409e+06 5.23691e-13 -1.02269e+06 -2.44565e-13 3.14119e+06)
(2.35877e+06 3.56042e+06 -1.34926e-12 542175 6.51053e-13 719783)
(3.58826e+07 108084 -6.21239e-12 290625 4.06031e-12 8.97531e+06)
(5.86836e+07 -1.34053e+06 1.95832e-12 419125 -2.55279e-13 1.46646e+07)
(-5.85998e+07 -1.33728e+06 -3.76231e-12 -418792 -3.10253e-12 -1.46437e+07)
(6.46971e+07 -9.29586e+06 -3.59452e-12 3.38738e+06 4.29904e-12 1.68931e+07)
(-6.46181e+07 -9.28085e+06 -1.58614e-13 -3.38252e+06 -9.95419e-13 -1.68723e+07)
(4.89976e+06 -1.61721e+06 -6.83392e-13 148177 2.44088e-12 1.2525e+06)
(-9.24841e+06 5.06074e+06 -3.06617e-12 -1.0734e+06 -4.75945e-13 -2.56105e+06)
(5.06017e+07 -1.71306e+07 -1.22376e-13 7.8888e+06 1.12386e-13 1.45127e+07)
(-5.05337e+07 -1.71069e+07 4.17293e-14 -7.87785e+06 -1.21797e-13 -1.44931e+07)
(2.49487e+07 -1.0996e+06 1.42536e-11 425788 -7.30772e-13 6.29592e+06)
(-1.46385e+07 -1.63766e+06 5.39867e-12 -637706 2.11596e-12 -3.79035e+06)
(-2.73183e+07 -1.43624e+06 7.18592e-13 44136.3 2.25043e-12 -6.76728e+06)
(6.37999e+06 -1.64134e+06 -3.7316e-12 143842 1.00957e-12 1.6187e+06)
(3.79476e+06 -2.14768e+06 -1.39221e-12 -81904.3 -6.55496e-12 921234)
(-4.00173e+07 -1.33613e+07 -4.45208e-14 -7.03116e+06 -9.35277e-14 -1.16737e+07)
(4.00785e+07 -1.33821e+07 -2.98864e-14 7.044e+06 7.21376e-14 1.1692e+07)
(-3.42269e+07 -1.70312e+06 -4.52951e-12 -962049 -4.54248e-12 -8.7311e+06)
(3.43145e+07 -1.71452e+06 7.41941e-13 949837 -5.7484e-12 8.74979e+06)
(2.8519e+07 -2.01816e+06 -1.4087e-11 -182150 -2.44588e-12 7.03096e+06)
(-3.54344e+07 -1.76922e+06 1.4529e-12 -12546.6 3.10036e-12 -8.79509e+06)
(7.04638e+06 -2.38304e+06 1.8997e-11 -137557 -1.69003e-11 1.71422e+06)
(-6.88094e+06 -2.25069e+06 -2.86435e-12 40996.1 -4.65244e-13 -1.69713e+06)
(-18609 -68517 -1.37074e-14 -602294 -1.53843e-14 -154059)
(18288.3 -68384.8 -1.45516e-14 607080 1.53267e-14 155167)
(-1.46619e+07 -1.97428e+06 -3.84409e-12 -48187 -2.96711e-12 -3.64987e+06)
(-1.82691e+07 -1.73384e+06 9.15193e-12 -122225 6.78111e-12 -4.56326e+06)
(8.50359e+06 6.96243e+06 -1.92467e-12 339989 8.37606e-14 2.19427e+06)
(2.94222e+07 -3.12219e+06 -2.18709e-14 3.29844e+06 -1.65294e-13 8.11865e+06)
(1.70899e+06 -1.28007e+06 -5.48854e-12 -200291 -5.664e-12 374339)
(-1.409e+07 -2.37622e+06 2.47506e-12 -134901 -3.24177e-13 -3.52948e+06)
(-5.58769e+07 -3.59641e+06 -3.7696e-13 -2.63294e+06 -2.67963e-12 -1.45175e+07)
(5.5958e+07 -3.60408e+06 1.76765e-12 2.63707e+06 -9.468e-13 1.45386e+07)
(-6.48153e+07 -803435 0 4444.37 0 -1.60809e+07)
(6.48967e+07 -803850 -9.74534e-13 -4615.78 2.12694e-12 1.61011e+07)
(-3.12008e+07 -1.75362e+06 -3.2942e-12 54240.6 4.30914e-12 -7.72809e+06)
(4.183e+07 -1.68044e+06 1.8711e-12 57446.9 7.86404e-13 1.03931e+07)
(-6.06655e+07 -763535 1.98021e-12 56171.5 -2.22623e-13 -1.50384e+07)
(6.07486e+07 -765181 0 -54337.1 0 1.50595e+07)
(996328 -1.1539e+06 -8.23603e-14 1.6262e+06 3.10179e-14 650703)
(5.46211e+06 6.52231e+06 -8.27675e-13 411307 -2.03462e-15 1.45731e+06)
(-5.61953e+07 -8.32743e+06 6.20149e-13 -4.52582e+06 1.96522e-13 -1.50661e+07)
(5.62681e+07 -8.34481e+06 0 4.53315e+06 0 1.5086e+07)
(-8.67854e+06 -321170 -1.26634e-13 1.63787e+06 9.42416e-15 -1.74693e+06)
(9.83997e+06 -4.79827e+06 2.36462e-14 1.92272e+06 -1.80344e-14 2.91856e+06)
(-9.81789e+06 -4.78446e+06 -5.96475e-15 -1.9201e+06 1.10139e-13 -2.91243e+06)
(2.06599e+07 1.15396e+06 -3.15885e-12 3.09887e+06 1.46711e-12 5.89504e+06)
(2.11315e+07 -2.17898e+06 -6.30913e-12 200379 -4.45148e-13 5.29287e+06)
(-4.04412e+06 -2.89041e+06 -2.51174e-12 263824 -6.86685e-12 -937967)
(-150572 -1.62729e+06 1.69111e-11 384520 5.36441e-12 58047.3)
(-722.396 2313.06 3.39183e-14 391077 -4.39424e-14 96855)
(766.867 1646.52 -3.38313e-14 -387978 -4.37288e-14 -96074.9)
(641285 -1.7233e+06 1.10018e-13 4.59059e+06 1.04146e-13 1.29813e+06)
(-640959 -1.72166e+06 2.68098e-13 -4.58662e+06 1.33861e-13 -1.29707e+06)
(2.82421e+07 -2.04805e+06 3.07716e-12 91265.6 -1.46883e-12 7.03008e+06)
(-3.17723e+07 -1.95082e+06 -1.19742e-12 -2.39264e+06 -4.31678e-12 -8.47701e+06)
(3.18579e+07 -1.96541e+06 3.50597e-13 2.39987e+06 5.79501e-14 8.50004e+06)
(938341 -354159 -3.43185e-12 90650.2 -2.89213e-12 255314)
(2.06345e+07 -2.32897e+06 1.35042e-12 72637.5 -3.1743e-12 5.13787e+06)
(1.29838e+06 -1.63777e+06 -3.58255e-14 1.98879e+06 -1.57955e-14 815614)
(-1.29831e+06 -1.64164e+06 -5.63391e-14 -1.98755e+06 -4.68055e-14 -815288)
(-2.57756e+07 1.13306e+06 6.72063e-13 -3.99312e+06 -1.34436e-12 -7.38622e+06)
(-1.7417e+07 3.5116e+06 7.04145e-13 -60818.8 4.95721e-13 -4.33661e+06)
(-1.39768e+07 801354 -4.6851e-13 1.50071e+06 -2.82071e-13 -3.09558e+06)
(2.13907e+07 -2.40949e+06 -5.95101e-13 -39903.1 9.25461e-13 5.29755e+06)
(-4.90751e+07 -482805 3.72712e-12 -80743.5 -4.70392e-13 -1.21966e+07)
(6.60363e+06 -2.07461e+06 -9.99833e-13 3843.99 -4.81854e-12 1.63945e+06)
(2.89817e+07 740370 -2.53483e-12 3.51398e+06 2.48499e-12 8.06284e+06)
(-3.47671e+07 -2.5202e+06 3.65193e-13 -4.02759e+06 5.41226e-13 -9.62576e+06)
(-1.21479e+07 3.29219e+06 -8.35098e-14 -1.72668e+06 3.23512e-13 -3.44258e+06)
(3.48212e+07 -2.47765e+06 -1.71338e-12 3.97137e+06 1.28859e-12 9.62523e+06)
(-5.57904e+07 -719329 -4.62248e-12 284198 -1.08792e-13 -1.37722e+07)
(5.8682e+06 -1.46935e+06 -2.17257e-13 513078 1.26958e-13 1.58332e+06)
(2.38799e+07 -1.52185e+06 -6.25364e-12 139801 -2.02722e-12 5.95977e+06)
(-2.10359e+07 -1.46858e+07 -3.53413e-13 -1.20007e+07 -1.15024e-13 -8.19707e+06)
(2.1075e+07 -1.47131e+07 -5.95541e-13 1.2023e+07 3.56776e-13 8.21229e+06)
(-1.11453e+07 -1.02186e+06 4.76857e-13 -919828 1.80029e-12 -2.99362e+06)
(7.25765e+06 6.14401e+06 -1.3415e-12 605626 5.34577e-14 1.95104e+06)
(5.32778e+07 -5.10599e+06 -7.55164e-14 4.3463e+06 4.67192e-13 1.42977e+07)
(-5.32047e+07 -5.09117e+06 -1.0257e-12 -4.3387e+06 -5.16699e-13 -1.42777e+07)
(-4.0646e+07 -642157 1.60563e-11 316897 1.1555e-12 -1.00065e+07)
(4.08823e+07 -636435 -8.73345e-12 -332213 1.29026e-11 1.00613e+07)
(48530.2 -128498 0 94382.1 0 35459.4)
(-48097.9 -127357 1.56398e-15 -93569.2 1.187e-14 -35150.5)
(-2.24976e+07 2.85754e+06 -1.36854e-12 -2.65586e+06 -1.14772e-12 -6.24109e+06)
(1.24443e+07 -1.19009e+07 -3.78889e-13 1.16925e+07 1.71863e-13 5.98885e+06)
(-1.24209e+07 -1.18781e+07 8.10855e-13 -1.16707e+07 5.52372e-13 -5.97761e+06)
(-1.73766e+07 -1.13524e+06 -1.97265e-12 256083 9.83956e-12 -4.24794e+06)
(8.29381e+06 -1.49277e+06 1.89893e-12 231355 4.3528e-12 2.11527e+06)
(-3.14444e+07 -1.95907e+06 2.42331e-12 -256401 -4.18065e-12 -7.86561e+06)
(3.14762e+07 -1.969e+06 -3.69405e-13 235785 4.86777e-12 7.86839e+06)
(6.06286e+07 -2.61087e+06 2.71625e-13 1.17979e+06 -1.22158e-12 1.53359e+07)
(-6.05456e+07 -2.60588e+06 -1.71087e-12 -1.17814e+06 -6.90113e-13 -1.53149e+07)
(-23835.3 -5547.42 1.90135e-14 209108 -8.44472e-14 45969.9)
(23770.9 -5531.27 -1.39567e-14 -206834 -3.12605e-14 -45421.7)
(4.04449e+06 7.7213e+06 -4.98689e-13 -67930.6 -2.93072e-13 986666)
(-7.06254e+07 -4.31214e+06 3.16401e-12 -1.98178e+06 8.13103e-13 -1.80153e+07)
(7.07096e+07 -4.3191e+06 -3.48282e-12 1.98452e+06 6.13005e-12 1.80369e+07)
(-3.6356e+06 -1.87059e+06 5.55626e-13 -53680.9 -2.59861e-12 -915386)
(-2.77999e+07 -349906 9.95577e-13 -2.42399e+06 5.80651e-13 -7.49916e+06)
(-5.87778e+07 -537368 1.05222e-12 -134721 1.89643e-12 -1.46174e+07)
(5.88614e+07 -541013 -3.11797e-12 136974 4.74032e-12 1.46387e+07)
(-6.23635e+07 -1.4331e+07 5.21173e-14 -5.14102e+06 -7.41699e-14 -1.67492e+07)
(6.24408e+07 -1.43512e+07 1.30383e-12 5.14813e+06 -8.54697e-13 1.67702e+07)
(1.16761e+07 -2.48677e+06 -5.87046e-12 -179593 1.34881e-11 2.85252e+06)
(-2.53885e+07 -2.20329e+06 2.67411e-12 101761 1.6964e-12 -6.27416e+06)
(-4.16363e+06 6.40353e+06 7.56574e-13 -445941 -3.44595e-13 -1.14373e+06)
(-1.82244e+07 -1.18996e+07 -3.53098e-13 -9.13126e+06 -2.24891e-13 -6.78751e+06)
(1.82589e+07 -1.19232e+07 3.54055e-13 9.15014e+06 -2.24785e-13 6.80073e+06)
(-6.98447e+07 -3.93209e+06 -2.30812e-12 -1.22017e+06 -1.83618e-12 -1.76326e+07)
(6.99279e+07 -3.93754e+06 -1.46999e-12 1.22161e+06 3.95825e-13 1.76536e+07)
(-1.17056e+07 5.68321e+06 -1.19814e-12 -721233 -2.21986e-13 -3.08336e+06)
(-3.92672e+07 -1.82375e+06 0 -287654 0 -9.81436e+06)
(-1.46041e+07 945197 -1.14643e-13 785378 -6.95426e-14 -3.42871e+06)
(-3.97934e+07 -1.49825e+06 6.04088e-12 104496 -2.40241e-12 -9.84762e+06)
(-3.96678e+07 -1.56491e+06 -3.84779e-12 -259495 -5.54532e-12 -9.90677e+06)
(-2.37275e+07 509772 -1.4647e-12 -3.44617e+06 -9.85734e-13 -6.74234e+06)
(-2.56425e+07 -694853 4.49613e-12 -23578.4 -3.45571e-12 -6.36828e+06)
(2.6215e+07 -980851 2.54803e-12 2.78864e+06 -1.81377e-12 7.19638e+06)
(1.99606e+07 -1.72084e+06 2.75995e-12 30841.8 -3.42358e-12 4.96029e+06)
(-2.61192e+07 -966588 1.91984e-12 -2.78045e+06 8.54221e-13 -7.17059e+06)
(6.88042e+07 -8.75197e+06 2.13749e-12 3.32448e+06 -1.32685e-12 1.78966e+07)
(-6.87221e+07 -8.73833e+06 9.73909e-13 -3.31995e+06 3.89394e-13 -1.78751e+07)
(-2.10263e+07 2.77479e+06 -2.48632e-13 -3.06765e+06 1.06809e-12 -5.97819e+06)
(8.26978e+06 1.22554e+06 -1.05629e-12 1.31798e+06 7.98329e-13 2.37892e+06)
(1.11762e+07 -1.68829e+06 -8.18221e-13 80291.5 1.40637e-11 2.79296e+06)
(-4.04705e+07 -1.82634e+06 3.78619e-12 31164.3 -2.13751e-12 -1.00338e+07)
(-3.28788e+07 -811654 -9.40492e-13 -4.21846e+06 -5.36626e-13 -9.20459e+06)
(-2.32724e+06 2.55255e+06 9.25064e-14 743314 -5.15652e-14 -393003)
(-2.06282e+07 3.63792e+06 -1.13075e-12 -2.53596e+06 -2.62643e-13 -5.74749e+06)
(7.72824e+06 -1.95211e+06 1.60582e-11 4155.53 -1.43027e-11 1.91856e+06)
(2.79294e+07 -380730 4.30088e-13 2.54171e+06 -8.70017e-13 7.56049e+06)
(2.93206e+06 -2.79239e+06 -4.255e-12 135761 -1.2986e-11 761188)
(1.27892e+06 6.9895e+06 -4.48772e-13 72316.5 3.5489e-13 335270)
(-6.00914e+06 -2.61158e+06 7.73554e-13 42912.7 -7.89855e-12 -1.48034e+06)
(2.54345e+07 -1.62725e+06 4.06425e-13 270105 2.49529e-12 6.37784e+06)
(1.36618e+07 -1.50087e+06 -9.71869e-12 271555 -1.80694e-13 3.45714e+06)
(-5.77085e+07 -544988 -6.13245e-12 -8758.05 -8.17665e-12 -1.43208e+07)
(-2.72481e+07 -1.49945e+06 0 -228264 0 -6.81746e+06)
(4.67088e+07 -3.81544e+06 5.00407e-13 4.88604e+06 -1.11287e-12 1.28017e+07)
(-4.66387e+07 -3.79932e+06 -5.83239e-13 -4.87551e+06 -9.62894e-13 -1.27817e+07)
(1.75199e+07 4.73198e+06 -4.64594e-13 1.39534e+06 4.17128e-13 4.69326e+06)
(-1.69273e+07 1.6726e+06 -1.19576e-12 -2.75802e+06 2.94122e-12 -4.88433e+06)