/*--------------------------------*- C++ -*----------------------------------*\
| =========                 |                                                 |
| \\      /  F ield         | OpenFOAM: The Open Source CFD Toolbox           |
|  \\    /   O peration     | Version:  v3.0+                                 |
|   \\  /    A nd           | Web:      www.OpenFOAM.com                      |
|    \\/     M anipulation  |                                                 |
\*---------------------------------------------------------------------------*/
FoamFile
{
    version     2.0;
    format      ascii;
    class       volScalarField;
    location    "2000";
    object      sigmaEq;
}
// * * * * * * * * * * * * * * * * * * * * * * * * * * * * * * * * * * * * * //

dimensions      [1 -1 -2 0 0 0 0];

internalField   nonuniform List<scalar> 
27023
(
1.92016e+07
1.92398e+07
1.41576e+07
1.413e+07
1.84303e+07
1.84679e+07
6.04807e+07
6.04071e+07
7.64675e+06
7.63448e+06
4.32408e+07
4.31769e+07
1.96067e+06
1.96013e+06
1.74807e+07
1.22317e+07
1.1619e+07
3.70197e+07
3.71023e+07
2.66847e+07
2.66122e+07
6.00866e+07
6.00128e+07
2.75554e+07
2.75022e+07
4.66781e+06
1.94518e+07
3.11431e+06
1.88948e+07
2.11926e+07
9.72706e+06
2.67744e+07
2.67024e+07
2.80829e+07
1.70908e+07
2.18817e+07
2.34367e+07
2.33583e+07
7.53669e+06
7.52459e+06
1.4187e+07
1.42147e+07
1.43064e+07
1.8531e+07
1.85688e+07
3.66388e+07
3.65567e+07
2.66676e+07
2.66032e+07
1.97125e+07
2.57345e+07
2.56696e+07
2.74369e+07
482924
479514
3.08555e+07
1.28921e+07
2.26168e+07
1.11629e+07
1.4679e+07
1.46515e+07
1.89576e+07
4.2213e+06
3.76644e+06
1.42925e+07
8.50988e+06
2.40271e+07
5.685e+06
2.0177e+07
1.36273e+07
2.23237e+07
2.22445e+07
3.92106e+07
3.91503e+07
5.58961e+07
5.58218e+07
743419
740242
6.55476e+07
6.56241e+07
1.45669e+07
4.17356e+07
4.1672e+07
3.80267e+07
3.79666e+07
5.93132e+07
5.93875e+07
2.38938e+07
4.51626e+06
1.15581e+07
1.10323e+07
1.98466e+07
1.98057e+07
1.42453e+07
5.49736e+06
2.77351e+07
2.77855e+07
1.45254e+07
1.16574e+07
4.72822e+06
1.80762e+07
1.11345e+07
1.12275e+07
4.72094e+07
4.71447e+07
3.77929e+06
5.37054e+07
5.36357e+07
3.03644e+07
2.09906e+07
1.38488e+07
5.35158e+07
5.34466e+07
2.74232e+07
2.73714e+07
5.63548e+07
5.62804e+07
1.45749e+07
2.10407e+07
1.55688e+07
1.37008e+07
2.88727e+06
5.22354e+07
5.23052e+07
6.63016e+07
6.62238e+07
1.929e+07
1.92492e+07
4.7926e+07
4.78613e+07
1.03041e+07
1.99591e+06
2.0136e+06
9.07253e+06
1.2135e+07
5.9385e+07
5.94597e+07
6.10283e+06
3.78126e+07
3.77324e+07
5.65137e+07
5.6585e+07
4.80608e+06
5.83142e+07
5.82422e+07
9.14812e+06
1.07603e+07
2.51758e+07
2.45729e+07
3.14728e+07
3.14163e+07
3.31665e+07
3.31118e+07
1.73022e+07
1.68539e+07
1.81189e+07
1.80074e+07
1.74699e+07
3.73553e+07
3.72757e+07
3.4533e+07
1.46854e+07
2.94083e+07
4.83773e+06
3.84784e+07
3.85369e+07
5.10372e+07
5.11052e+07
1.05474e+07
2.53016e+06
5.94043e+06
6.59949e+07
6.60709e+07
1.26548e+07
1.22897e+07
1.86689e+07
3.43826e+06
4.2848e+06
1.29665e+07
6.79048e+06
2.45837e+07
5.40674e+07
5.41371e+07
1.90241e+07
3.42563e+07
3.63709e+07
2.60338e+07
2.60821e+07
3.08978e+07
1.17794e+07
5.1096e+07
5.11639e+07
1.42388e+07
4.71136e+06
6.6116e+07
6.60391e+07
3.83921e+07
4.99108e+07
4.99783e+07
1.96188e+07
1.86286e+07
2.02956e+07
5.48387e+07
5.4762e+07
1.75813e+07
1.7618e+07
1.30322e+07
3.79968e+07
5.46641e+07
5.45872e+07
244152
241983
1.49704e+07
1.39404e+07
8.57943e+06
8.5946e+06
1.65914e+07
3.3121e+06
6.07959e+06
5.82515e+07
5.83254e+07
1.02768e+07
5.23626e+07
5.24319e+07
1.75879e+07
5.06926e+07
5.06191e+07
3.94865e+07
3.94269e+07
3.94148e+06
3.93646e+06
4.80962e+06
5.23276e+07
5.22534e+07
3.5075e+07
5.1251e+07
5.11756e+07
5.65281e+07
2.1352e+07
6.46393e+07
6.47158e+07
2.03197e+07
3.60209e+07
3.60435e+07
2.85966e+07
1.53543e+07
5.05954e+06
1.82387e+07
2.99517e+07
2.79988e+07
5.97291e+07
5.98026e+07
1.36766e+07
1.17175e+07
3.80504e+07
3.86155e+07
4.67249e+07
3.53427e+07
3.01845e+07
3.01061e+07
1.37573e+07
6.40614e+06
3.21425e+07
5.26599e+07
5.25845e+07
5.80731e+07
5.8001e+07
5.1377e+06
1.15635e+07
4.96559e+07
4.95887e+07
2.226e+07
1.30334e+07
2.47974e+07
6.32055e+06
5.09741e+06
3.86273e+07
3.86857e+07
3.02849e+07
3.03746e+07
2.60956e+07
3.20957e+07
7.66626e+06
7.35526e+06
542272
546670
1.36232e+07
1.66571e+07
1.41553e+07
2.4678e+07
2.7918e+06
1.32603e+07
4.88076e+07
4.88788e+07
5.84775e+07
5.85512e+07
2.83448e+07
3.77954e+07
5.47736e+07
5.48472e+07
2.17448e+06
1.22042e+07
4.94394e+07
4.95058e+07
9.12555e+06
1.11741e+07
1.11443e+07
1.64651e+07
1.92795e+07
6.31575e+06
2.85699e+06
353290
350517
4.72691e+06
4.72252e+06
2.56489e+07
2.70711e+07
2.71455e+07
991159
1.89887e+07
3.01495e+06
3.02096e+06
2.03944e+07
1.68019e+07
1.38372e+07
1.97684e+07
4.42078e+07
6.9534e+06
2.35604e+07
2.8692e+07
1.1233e+07
2.87693e+07
5.05499e+07
5.52887e+06
2.15927e+07
2.78835e+07
2.79353e+07
9.52832e+06
1.2262e+07
4.56574e+07
4.55933e+07
3.69174e+07
3.71418e+07
228927
226900
1.89713e+07
2.15006e+07
2.14596e+07
1.59889e+07
7.7491e+06
2.83688e+07
2.84149e+07
5.39763e+07
5.39023e+07
207285
205187
1.3876e+07
6.26435e+07
6.27182e+07
4.58077e+06
2.32653e+07
5.2918e+07
5.29918e+07
5.79745e+07
5.80476e+07
1.15046e+07
2.32905e+07
1.16073e+07
2.31147e+07
2.31598e+07
6.24402e+07
6.25147e+07
1.40423e+07
3.53383e+07
1.38717e+07
3.60632e+07
3.56826e+07
1.88713e+07
2.31406e+07
2.16298e+07
1.82246e+07
2.15479e+07
6.14456e+07
6.13713e+07
1.73727e+07
6.82521e+06
1.04369e+07
3.66612e+07
2.65584e+07
5.17464e+06
1.78673e+07
7.74413e+06
2.32968e+07
5.46388e+06
1.21559e+07
7.08448e+06
2.29085e+07
1.23914e+07
5.20499e+07
2.45397e+07
3.90438e+07
3.89844e+07
1.68783e+07
1.35482e+07
7.7969e+06
2.32764e+07
2.33219e+07
1.07849e+06
1.26371e+07
2.51067e+07
2.02522e+06
2.51063e+07
709339
703600
1.11033e+07
3.0484e+07
2.17882e+07
3.73384e+07
2.03949e+07
2.63186e+07
1.07227e+07
3.29825e+07
1.20837e+07
4.84898e+06
3.60043e+06
4.97767e+07
5.31387e+07
5.32116e+07
4.5793e+07
6.30683e+06
3.56439e+07
1.57798e+07
5.12274e+07
5.11526e+07
3.39551e+07
3.40146e+07
3.7181e+07
6.3655e+06
1.00888e+07
1.0073e+07
4.63262e+07
4.63122e+07
3.17215e+07
3.16465e+07
336545
339496
1.07235e+07
9.01027e+06
2.95275e+07
1.16884e+07
1.25563e+07
5.19489e+07
5.20177e+07
5.17816e+07
5.18505e+07
3.2427e+07
3.23524e+07
3.43998e+07
3.43411e+07
7.69659e+06
3.71886e+06
7.20377e+06
2.8519e+07
1.23906e+07
3.4233e+07
1.23446e+07
6.45259e+07
6.4603e+07
3.12341e+07
1.58096e+07
8.73033e+06
4.20222e+07
3.61238e+07
2.19383e+07
8.34789e+06
4.92422e+07
4.91726e+07
1.42388e+07
1.41489e+07
1.24848e+07
1.24577e+07
5.17626e+07
5.16885e+07
2.56854e+06
8.78303e+06
8.06119e+06
1.36274e+07
5.02602e+07
7.05556e+06
4.37023e+07
4.37665e+07
2.04421e+07
2.37912e+07
2.29317e+06
2.73807e+07
2.74554e+07
2.35277e+07
2.34823e+07
1.7985e+07
4.31185e+07
2.53738e+07
1.88133e+07
1.88532e+07
2.78784e+07
1.20394e+07
2.33797e+07
2.33079e+07
1.91833e+07
6.22949e+07
6.22175e+07
4.44116e+07
4.43472e+07
2.59367e+07
4.61874e+07
4.62535e+07
1.478e+07
2.07447e+07
4.83226e+07
4.82466e+07
3.72722e+07
5.38077e+07
5.38812e+07
3.11909e+07
4.62956e+07
4.63622e+07
3.03691e+07
3.04592e+07
7.17673e+06
4.22479e+07
4.21811e+07
2.45605e+07
6.00844e+06
6.01633e+06
7.56658e+06
3.24438e+07
3.23893e+07
5.96542e+07
5.97275e+07
2.29502e+07
3.81717e+07
1.89215e+07
3.32449e+06
2.30572e+07
2.12271e+07
1.35647e+07
1.00398e+07
1.00556e+07
4.41252e+07
5.8739e+07
5.88129e+07
2.25819e+07
2.81581e+06
4.62786e+07
4.6343e+07
2.24433e+07
2.96551e+07
2.96734e+07
670009
6.72367e+06
9.46554e+06
1.83323e+07
1.95967e+07
2.26791e+07
2.26079e+07
2.68591e+07
1.27674e+07
4.21263e+07
4.20504e+07
1.0541e+07
2.63414e+07
2.64111e+07
8.26268e+06
2.72309e+07
2.71803e+07
4.81182e+07
4.81847e+07
3.16305e+07
3.16872e+07
3.01167e+07
1.7565e+07
1.75923e+07
2.95094e+07
3.25873e+07
3.2645e+07
2.11072e+07
1.25957e+07
1.02213e+07
3.14504e+07
1.25741e+07
6.44192e+06
1.51015e+07
4.94966e+07
2.57199e+07
2.56672e+07
2.30739e+07
2.63176e+07
2.62658e+07
2.18582e+07
3.73194e+07
3.73782e+07
8.0917e+06
4.83691e+06
2.67675e+07
2.68408e+07
5.0271e+07
5.01954e+07
3.84312e+07
1.30592e+07
2.04506e+07
4.01689e+07
4.01015e+07
5.67971e+07
5.67227e+07
1.87726e+07
1.47292e+07
7.34251e+06
7.58778e+06
1.85654e+07
1.84769e+07
2.26687e+07
155991
283510
285941
157297
1.44319e+07
1.76812e+06
1.76732e+06
3.02246e+07
3.02793e+07
1.89806e+07
1.90202e+07
2.7722e+07
2.76706e+07
8.23084e+06
3.33256e+07
3.32704e+07
2.96614e+07
1.4761e+07
3.1058e+07
3.11126e+07
1.79583e+07
3.74449e+07
3.73811e+07
2.34562e+07
1.69478e+07
3.63351e+07
3.03049e+07
3.03598e+07
3.58057e+07
5.1509e+06
2.87183e+06
1.75491e+07
4.77623e+07
4.78295e+07
1.36193e+07
2.56432e+07
6.22778e+07
6.23525e+07
354497
357529
3.19833e+07
3.19098e+07
2.74332e+07
5.16831e+06
6.36656e+07
6.35924e+07
1.64587e+07
2.58249e+07
9.39679e+06
1.29945e+07
2.24082e+07
2.0656e+07
1.20352e+07
2.17676e+06
7.82396e+06
3.47643e+07
2.10139e+07
3.27925e+07
3.11234e+07
1.65721e+07
1.38329e+07
443691
441140
3.72163e+07
3.71567e+07
2.23286e+07
1.6814e+06
1.44956e+07
5.51406e+06
2.82094e+07
3.0849e+07
2.56863e+07
4.134e+06
1.93716e+07
2.14816e+07
7.63441e+06
1.72354e+07
1.71975e+07
2.30674e+07
4.00223e+07
5.63327e+06
2.01648e+07
4.91981e+07
4.91282e+07
5.52168e+07
5.52922e+07
371213
367888
3.83972e+06
1.07865e+07
1.57606e+07
5.37329e+06
2.35891e+07
2.36366e+07
1.72118e+07
8.10514e+06
8.09355e+06
5.83523e+07
5.84268e+07
4.55272e+07
4.28327e+07
4.27683e+07
1.33139e+07
3.65929e+07
2.30481e+07
1.40733e+07
3.62483e+07
5.19178e+06
4.78961e+07
4.78204e+07
1.92957e+07
4.91984e+06
5.78122e+07
5.77389e+07
1.93606e+07
5.19223e+07
1.4312e+07
5.19828e+07
1.45055e+07
1.44781e+07
2.62781e+07
1.87584e+07
2.75642e+07
1.20258e+07
2.75551e+07
1.15288e+07
4.7719e+07
8.37309e+06
1.8027e+07
1.79895e+07
5.50577e+07
5.51317e+07
1.44658e+07
4.64884e+06
4.66775e+07
4.67455e+07
3.02533e+07
2.51611e+07
2.05404e+07
9.43702e+06
2.27761e+07
2.15222e+07
2.1481e+07
8.39133e+06
2.44951e+07
2.4441e+07
5.43836e+07
5.44584e+07
2.2898e+06
2.10383e+07
4.66929e+06
4.7669e+07
3.99197e+07
3.98569e+07
2.09132e+07
6.19594e+06
1.52959e+07
3.26589e+07
1.36586e+07
1.77773e+07
7.98528e+06
1.90842e+07
2.32374e+07
5.5532e+07
5.54574e+07
4.50513e+07
4.49865e+07
3.58127e+07
3.51506e+07
7.8756e+06
1.0082e+07
5.38147e+07
5.37397e+07
3.78792e+07
3.44039e+07
2.80481e+06
1.4244e+07
4.80495e+06
4.07567e+06
4.06707e+06
1.43847e+07
6.23173e+06
5.89798e+07
5.89066e+07
2.71725e+06
1.61027e+07
6.86329e+06
6.49752e+07
6.49e+07
1.94978e+07
1.95381e+07
2.07003e+07
1.63983e+07
1.64349e+07
8.44896e+06
4.83706e+06
4.92037e+06
6.12548e+06
5.01346e+07
5.00593e+07
8.67215e+06
2.70055e+07
2.70795e+07
5.64774e+07
5.64e+07
1.69623e+07
1.67932e+07
3.52952e+07
3.52356e+07
5.71167e+07
5.71891e+07
6.28729e+06
3.52921e+07
5.87826e+07
5.87094e+07
3.68705e+07
3.4392e+06
3.18351e+07
3.178e+07
4.43944e+07
4.43173e+07
2.91773e+07
4.81412e+07
4.82094e+07
6.16944e+07
6.17673e+07
2.92241e+07
1.5635e+07
2.20051e+07
1.03526e+07
3.88579e+07
3.87771e+07
4.9584e+07
4.44236e+06
4.71112e+06
4.96439e+07
1.40035e+07
2.25139e+07
2.22482e+07
2.44679e+07
2.44131e+07
3.62696e+06
7.09213e+06
2.67608e+07
3.90344e+07
3.90471e+07
1.60773e+07
1.62926e+06
542383
540818
1.81554e+07
2.03892e+07
1.86919e+07
5.77068e+07
5.76349e+07
3.06003e+07
2.68804e+07
3.01989e+07
1.71188e+07
3.53625e+07
3.5302e+07
3.53203e+07
1.2841e+07
3.06726e+07
1.96285e+07
1.98664e+07
3.02455e+07
3.28025e+07
3.21641e+07
3.21094e+07
4.91421e+07
4.9216e+07
3.2068e+07
1.02941e+07
2.09373e+07
4.60299e+07
4.59646e+07
4.37606e+07
4.38341e+07
1.01837e+07
1.72213e+07
3.91294e+07
3.90484e+07
2.31292e+07
7.46567e+06
7.45121e+06
1.82325e+07
1.83311e+07
4.96898e+07
2.99668e+07
3.15555e+07
3.72348e+07
2.00252e+07
2.11929e+07
7.86283e+06
5.67278e+07
5.66537e+07
5.36419e+06
8.45348e+06
9.65682e+06
2.20438e+07
1.05513e+07
1.34714e+07
3.16019e+06
2.12838e+07
1.72886e+07
1.09328e+07
8.59075e+06
1.83007e+07
1.45882e+07
4.50322e+07
1.22814e+07
1.20394e+07
1.04888e+07
1.05054e+07
1.79685e+07
8.25817e+06
8.27278e+06
1.55048e+07
8.10674e+06
3.34416e+07
3.33872e+07
1.92441e+07
6.32398e+06
6.30974e+06
1.60282e+07
1.02045e+07
1.83587e+07
2.31611e+07
2.47702e+07
1.69529e+07
5.2639e+07
1.92243e+07
1.81674e+07
2.98786e+07
2.07577e+07
2.07164e+07
7.67142e+06
7.90916e+06
2.19012e+06
2.18803e+06
2.65917e+07
3.53754e+06
2.1355e+07
1.64695e+07
2.04822e+07
2.05542e+07
3.66465e+07
6.12298e+06
1.89542e+07
1.18278e+06
1.1851e+06
2.03983e+07
1.43115e+07
1.07169e+07
3.94788e+06
1.18649e+07
3.606e+07
1.73554e+07
2.70389e+07
2.13173e+07
2.1389e+07
4.20283e+07
3.27785e+07
8.0692e+06
8.87102e+06
2.44079e+07
3.85178e+07
3.85795e+07
4.19101e+06
1.58694e+07
4.03675e+07
1.08726e+07
1.08899e+07
2.18044e+07
1.42814e+07
2.2299e+07
4.92331e+07
4.93051e+07
8.96843e+06
2.36918e+07
2.37238e+07
3.52889e+07
3.52337e+07
1.6558e+07
2.15864e+07
742433
740759
1.58924e+07
1.94502e+06
7.63437e+06
5.49932e+07
5.49181e+07
7.25651e+06
6.35491e+07
6.34712e+07
5.97659e+06
2.66469e+07
8.3641e+06
3.77378e+07
1.45347e+07
7.07555e+06
3.7801e+07
3.9333e+07
4.4326e+06
1.58745e+07
2.23459e+07
2.24169e+07
2.09605e+07
2.1428e+07
3.54209e+07
1.57619e+07
2.42083e+07
5.88683e+06
6.19186e+06
8.88377e+06
1.1926e+07
4.3501e+06
6.65908e+06
1.3844e+07
4.90695e+06
7.37011e+06
2.29387e+07
1.33587e+07
2.97853e+07
2.2022e+07
1.26041e+07
3.68947e+07
3.44519e+07
4.28006e+07
4.28676e+07
1.27385e+07
5.63716e+06
2.01051e+07
2.01796e+07
4.2218e+07
4.2142e+07
1.44465e+07
6.69559e+06
2.95653e+07
5.26899e+06
5.28114e+06
5.35484e+07
5.34739e+07
5.52148e+06
1.02874e+07
1.9404e+07
1.10068e+07
5.09592e+06
1.31861e+07
5.61132e+06
5.7946e+06
3.66539e+07
3.23424e+07
3.22883e+07
1.85111e+07
1.85035e+07
9.94606e+06
9.01874e+06
5.35934e+07
5.35186e+07
1.13857e+07
8.66887e+06
1.93615e+07
8.54146e+06
3.34809e+07
1.48644e+07
1.29999e+07
1.11131e+07
4.00185e+07
6.89481e+06
1.31285e+07
4.74972e+07
3.37419e+07
3.36862e+07
4.21037e+07
7.75629e+06
2.20981e+07
1.75521e+07
1.82093e+07
4.60391e+07
4.59896e+07
1.73404e+07
4.85165e+07
6.36732e+06
6.37784e+06
7.90145e+06
7.88801e+06
1.61653e+07
1.98043e+07
1.81519e+07
5.51108e+07
5.27117e+07
5.2781e+07
1.05402e+07
1.05144e+07
1.38214e+07
5.67341e+07
5.66593e+07
2.23403e+07
2.21961e+07
5.82384e+06
265312
262903
1.77439e+07
1.06908e+07
4.46064e+07
1.19955e+07
5.1094e+07
5.11617e+07
1.85226e+07
4.26035e+07
4.22633e+07
1.66673e+07
1.12506e+07
2.23262e+06
1.90611e+07
1.90202e+07
5.31971e+07
5.32724e+07
9.48224e+06
2.21573e+07
2.21962e+07
4.89665e+07
4.90388e+07
1.01273e+07
2.71963e+07
2.25074e+07
9.65115e+06
2.04763e+07
2.04337e+07
1.74459e+07
1.27794e+07
3.8694e+07
3.98345e+06
2.31031e+07
2.31486e+07
2.33225e+07
1.08723e+07
4.62422e+07
4.55823e+07
4.55084e+07
3.48499e+07
4.05772e+06
1.78873e+07
1.78384e+07
6.02446e+07
6.01696e+07
2.49588e+07
3.6672e+07
3.66097e+07
2.42018e+07
3.82403e+07
3.05207e+07
3.04776e+07
1.87033e+07
1.43267e+07
4.32858e+06
3.04873e+06
2.86451e+07
9.82272e+06
7.15435e+06
413905
410567
3.82261e+07
8.18937e+06
8.17371e+06
4.61432e+07
4.60779e+07
3.76383e+06
5.74875e+07
5.74149e+07
4.35421e+07
4.36056e+07
6.07118e+07
6.07843e+07
1.60402e+07
5.59107e+07
5.5836e+07
5.39603e+06
1.9206e+07
2.17775e+06
1.69119e+07
1.279e+07
1.69196e+07
4.36277e+07
4.35571e+07
1.37941e+07
1.38298e+07
1.12727e+07
2.73859e+06
5.71127e+06
3.52864e+07
7.08403e+06
2.5961e+07
3.84263e+07
1.35558e+07
8.27055e+06
5.12451e+06
5.11676e+06
3.57402e+07
2.22846e+07
3.53079e+07
2.29357e+07
1.04405e+07
9.2479e+06
2.12179e+07
2.1147e+07
2.12263e+07
1.31992e+07
2.01746e+07
2.02879e+07
9.1864e+06
2.76903e+07
5.42566e+07
2.59644e+07
2.60165e+07
3.81454e+07
1.84617e+07
2.06247e+07
2.36225e+07
2.58065e+07
5.43221e+07
2.36731e+07
3.04853e+07
2.48237e+07
1.31271e+07
2.14796e+07
7.41764e+06
1.96732e+07
1.52867e+07
1.20185e+07
5.66245e+06
1.27586e+07
2.07096e+07
2.054e+07
1.40996e+07
4.41612e+07
4.40847e+07
3.18248e+07
1.37028e+07
7.67392e+06
1.00335e+07
3.76293e+07
3.41597e+07
4.02007e+06
4.46962e+07
1.59379e+07
7.55101e+06
3.42264e+07
2.00233e+07
2.92776e+07
1.26205e+07
6.87023e+06
3.3992e+07
3.34372e+07
2.36502e+07
662239
658118
3.79842e+07
4.18326e+07
4.18962e+07
4.20341e+06
4.67037e+07
4.66386e+07
1.27776e+07
2.05562e+07
2.05171e+07
2.51679e+07
1.52815e+06
6.48372e+06
5.85254e+07
5.84462e+07
5.62323e+06
4.4717e+07
4.89607e+07
1.79326e+07
4.5916e+07
4.58507e+07
2.4193e+07
7.08337e+06
5.89077e+06
4.15499e+07
2.08558e+07
2.07834e+07
388813
385442
4.751e+06
1.4071e+07
3.47926e+07
3.47328e+07
4.71309e+07
4.70654e+07
4.1096e+07
9.28604e+06
1.7554e+07
4.29301e+07
4.28685e+07
4.97353e+06
623286
627649
4.268e+07
4.26708e+07
4.72726e+07
4.73394e+07
4.58128e+07
5.32967e+07
5.32212e+07
3.4949e+07
3.48935e+07
2.55465e+07
1.21082e+07
4.91036e+07
4.88762e+07
1.94407e+07
3.57899e+06
4.88121e+07
8.09688e+06
2.30579e+07
2.7279e+07
2.93675e+07
1.75908e+07
5.09904e+07
5.0916e+07
1.18942e+07
4.48429e+07
4.49074e+07
5.36385e+07
5.35687e+07
1.90101e+07
3.39246e+07
3.39821e+07
2.09433e+07
2.08771e+07
2.15851e+07
1.98887e+07
1.98198e+07
2.20492e+07
5.52176e+07
5.52917e+07
1.44097e+07
9.82405e+06
2.21174e+07
1.23811e+07
1.68581e+07
1.67464e+07
8.90786e+06
2.13565e+07
1.26972e+07
1.7075e+07
201315
203588
5.95677e+07
5.96407e+07
8.94047e+06
1.54427e+07
6.07292e+07
6.06541e+07
2.34392e+07
1.82739e+07
1.18008e+07
3.50773e+07
3.541e+07
1.97688e+07
3.43603e+06
3.75781e+07
6.62767e+06
5.90993e+07
5.91728e+07
2.2912e+07
2.29836e+07
3.42684e+07
3.43499e+07
1.70688e+06
1.69537e+06
1.05734e+07
3.45349e+07
7.44712e+06
1.97603e+07
1.81828e+07
1.08387e+07
3.3658e+06
3.36191e+06
1.04934e+07
3.11692e+06
1.84197e+07
2.25189e+07
2.25655e+07
1.68298e+07
4.12497e+06
2.63102e+07
3.59912e+07
3.59275e+07
2.05984e+07
1.31978e+07
3.8375e+07
3.84564e+07
1.63251e+07
3.55816e+07
3.56382e+07
3.16992e+07
1.63965e+07
1.93441e+07
1.14542e+07
1.37778e+07
1.37445e+07
4.93895e+07
1.03781e+07
3.17746e+07
3.17215e+07
3.95004e+06
2.79685e+07
2.79163e+07
4.82053e+06
4.0057e+07
3.99935e+07
2.19039e+07
2.19468e+07
4.02609e+06
1.41502e+07
1.41895e+07
4.22628e+07
4.23416e+07
2.60901e+07
1.385e+07
2.60384e+07
2.99659e+07
2.99114e+07
2.59051e+07
8.95923e+06
2.08424e+07
2.09161e+07
7.22799e+06
5.51678e+07
5.50966e+07
7.13538e+06
3.36825e+07
5.41195e+07
5.40454e+07
703702
705841
7.13781e+06
4.55002e+07
4.54355e+07
6.1098e+06
2.09949e+07
2.09186e+07
4.90826e+06
4.89993e+06
8.43681e+06
1.99399e+07
5.48258e+07
5.4755e+07
6.22823e+07
6.23571e+07
1.94755e+07
7.90744e+06
9.47026e+06
9.4847e+06
1.44373e+07
199893
197988
5.78354e+07
5.79092e+07
1.50246e+07
1.2596e+07
1.25744e+07
6.98372e+06
4.71289e+07
4.71954e+07
1.1453e+07
1.25706e+07
5.3903e+07
5.39778e+07
5.1297e+07
5.13654e+07
1.44088e+07
1.05832e+07
3.59686e+07
1.71706e+07
1.14423e+07
5.34598e+06
1.80847e+07
1.88841e+07
2.3618e+07
2.38033e+07
4.33002e+07
4.33764e+07
5.40948e+07
5.40195e+07
4.28479e+07
2.30176e+07
6.92524e+06
1.2818e+07
5.07239e+07
2.24385e+07
3.53822e+07
3.27801e+07
3.56622e+07
2.87077e+07
2.86343e+07
2.64349e+07
2.64849e+07
5.31092e+06
7.53404e+06
1.98539e+07
8.35274e+06
1.06495e+07
1.7748e+07
1.89966e+07
8.07984e+06
2.2506e+07
2.24306e+07
6.21392e+06
2.4577e+07
2.46506e+07
1.00249e+07
6.08272e+07
6.09036e+07
5.17258e+07
5.1794e+07
1.12026e+07
3.62804e+07
3.63391e+07
6.6197e+07
6.61207e+07
4.107e+07
4.10092e+07
3.20006e+07
3.19435e+07
4.81222e+07
1.07441e+07
1.49168e+07
7.67903e+06
2.39388e+07
2.39854e+07
3.6918e+07
3.69765e+07
1.37254e+07
1.37142e+07
1.06689e+07
6.24893e+07
6.24153e+07
2.29832e+07
3.15439e+07
3.15719e+07
1.77856e+07
2.28019e+07
3.30385e+07
1.00811e+07
1.91669e+07
1.90663e+07
4.94998e+06
2.33041e+07
2.13722e+07
2.60606e+06
2.60389e+06
4.07256e+07
8.64869e+06
8.62771e+06
1.18153e+07
2.89114e+07
4.70509e+07
1.18228e+07
1.48772e+07
1.48485e+07
4.61067e+07
4.60321e+07
2.85897e+07
2.85369e+07
1.34367e+07
1.20124e+07
1.11361e+07
8.43358e+06
1.04244e+07
3.99341e+07
1.46814e+07
1.63449e+07
6.55078e+06
4.4291e+07
4.42768e+07
4.88663e+06
4.88188e+06
1.23798e+07
1.04871e+07
3.0705e+07
3.07906e+07
3.40117e+07
3.39518e+07
5.78908e+07
5.78112e+07
1.36963e+07
7.66513e+06
7.63237e+06
3.50628e+06
4.13353e+07
4.18883e+07
5.15016e+07
5.15774e+07
2.35442e+07
3.23803e+06
3.83275e+07
3.82654e+07
2.44917e+07
2.44699e+07
1.84694e+07
8.51998e+06
2.40822e+07
1.2122e+07
1.77563e+07
1.7653e+07
3.58668e+07
3.58089e+07
3.48237e+07
5.06737e+07
5.05993e+07
4.41622e+07
4.40979e+07
4.74167e+07
1.8085e+07
1.80056e+07
1.72899e+07
1.73285e+07
8.89089e+06
1.35714e+07
2.4757e+07
2.00816e+07
2.01604e+07
9.41121e+06
9.4257e+06
1.31338e+07
2.44036e+07
3.25417e+07
3.25984e+07
2.8018e+07
1.25611e+07
6.12476e+07
6.13219e+07
1.25598e+07
3.2988e+07
4.17254e+07
1.32391e+07
3.46067e+07
4.02477e+07
4.03093e+07
1.40354e+07
4.32892e+07
4.32254e+07
1.38186e+07
1.3771e+07
3.46646e+07
3.03608e+07
3.04194e+07
1.63559e+07
1.65838e+07
2.36684e+06
5.28582e+07
5.27836e+07
5.95985e+06
9.48763e+06
2.8706e+07
2.8636e+07
1.8989e+07
1.91277e+07
1.90604e+07
7.14703e+06
2.86714e+06
2.81697e+06
2.84085e+07
2.8334e+07
1.17568e+07
8.59066e+06
2.00399e+07
3.71758e+07
4.33988e+06
9.21951e+06
3.37856e+06
4.72358e+06
1.83509e+07
4.47051e+07
1.4836e+07
4.72683e+07
4.72027e+07
2.00504e+07
3.17681e+06
3.17384e+06
4.49876e+07
4.49236e+07
1.52275e+07
4.86757e+07
4.87424e+07
1.95602e+07
4.40387e+07
7.76124e+06
1.62178e+06
1.62337e+06
5.81158e+06
3.82533e+07
3.83241e+07
2.35838e+07
4.23729e+06
2.3919e+07
1.19965e+07
4.2842e+07
2.08214e+07
1.48631e+07
1.49023e+07
3.09834e+07
3.09277e+07
2.2973e+07
1.11185e+07
1.90712e+07
4.21357e+07
4.21972e+07
6.64775e+06
5.65116e+06
5.63939e+06
2.3974e+06
5.42928e+07
5.43674e+07
8.47145e+06
1.19454e+07
1.80915e+07
1.66194e+07
1.65036e+07
2.37454e+07
2.36704e+07
1.65061e+07
1.99614e+07
2.6183e+07
2.60757e+07
3.22957e+07
2.1912e+07
3.3133e+07
4.74427e+06
4.09059e+07
1.30346e+07
1.97049e+07
1.96276e+07
4.58885e+06
1.46246e+07
1.45956e+07
4.41697e+07
4.41063e+07
3.64176e+07
4.98433e+07
4.06359e+06
9.51259e+06
1.90891e+07
3.86687e+06
4.13764e+07
3.99164e+07
2.76601e+07
1.70777e+07
2.30355e+07
8.58523e+06
2.28337e+07
2.78556e+07
2.793e+07
2.61255e+07
2.60718e+07
3.48952e+07
3.55636e+07
1.6949e+07
2.57594e+07
2.58352e+07
5.00155e+06
3.03787e+07
3.00544e+07
4.2521e+07
4.25841e+07
1.03115e+07
3.06869e+07
7.11585e+06
2.29952e+07
4.04446e+07
202806
205197
1.95155e+07
1.17242e+07
1.33602e+07
1.01614e+07
6.52281e+06
2.15851e+07
2.15407e+07
3.4269e+07
3.43256e+07
1.95388e+07
4.31993e+07
5.56804e+07
5.56057e+07
2.99849e+07
3.00391e+07
1.80552e+07
1.39843e+07
1.48255e+07
1.81306e+07
3.14395e+07
3.15688e+07
1.27854e+07
2.83277e+07
2.84114e+07
3.16427e+07
3.16994e+07
3.04555e+07
2.109e+07
2.10484e+07
1.97516e+07
1.96716e+07
2.49454e+07
1.58504e+07
1.59166e+07
9.10203e+06
1.27739e+07
4.23876e+06
1.36079e+07
1.84318e+07
6.76481e+06
6.75475e+06
1.5316e+07
1.85197e+07
3.36113e+07
3.36854e+07
1.30563e+07
1.86445e+07
1.93726e+07
2.24197e+07
2.63236e+07
2.62737e+07
2.35318e+07
5.42696e+07
5.434e+07
2.13961e+07
2.2985e+07
1.00732e+07
3.56967e+07
2.88022e+07
2.87467e+07
1.07107e+07
2.64802e+07
2.18762e+07
4.96619e+07
4.97361e+07
3.25416e+07
3.25349e+07
1.49246e+07
1.57381e+07
1.47771e+07
1.01023e+07
1.5003e+07
1.36495e+07
1.78717e+07
1.6683e+07
3.19132e+06
4.97404e+06
3.4581e+07
3.46377e+07
6.33386e+06
5.67552e+07
3.81495e+07
3.82102e+07
3.66418e+07
2.29375e+07
2.17824e+07
1.77369e+07
2.29942e+07
5.26612e+07
5.27345e+07
8.03462e+06
2.46845e+07
3.6244e+07
3.63016e+07
2.0614e+07
1.94286e+07
3.14901e+07
125800
124016
1.8576e+07
4.65053e+07
4.64399e+07
1.90616e+07
6.35465e+06
1.61445e+07
3.72347e+07
3.00724e+07
1.26372e+06
5.66864e+07
1.07656e+06
1.07362e+06
1.32646e+07
2.68918e+07
8.75668e+06
764161
762149
2.2085e+07
3.30871e+07
3.31482e+07
5.90614e+07
5.89885e+07
3.07746e+07
3.08299e+07
2.19604e+07
2.25171e+06
2.24831e+06
2.22876e+07
1.18956e+07
1.61716e+07
3.68408e+06
1.86224e+07
1.73332e+07
4.1835e+07
4.17929e+07
3.82659e+07
3.8337e+07
6.27406e+06
1.89131e+07
5.0834e+07
1.25022e+07
2.53611e+07
776856
2.38949e+07
2.50909e+07
6.25101e+07
6.2433e+07
3.99206e+07
1.48338e+07
3.0158e+07
3.02462e+07
7.1955e+06
2.165e+06
986348
1.82845e+07
19023.7
18529.8
1.06439e+07
7.15654e+06
7.14341e+06
4.90377e+06
5.01631e+07
5.02296e+07
8.64683e+06
1.99924e+07
2.97574e+07
2.00714e+07
4.11285e+07
4.11188e+07
9.70783e+06
1.34735e+07
2.03423e+07
4.9593e+06
4.99736e+07
5.00401e+07
2.64662e+07
2.65018e+07
5.15267e+07
8.33943e+06
6.28534e+07
6.29289e+07
2.25473e+07
2.25049e+07
1.80548e+07
4.14848e+07
6.65634e+06
3.00257e+07
3.00789e+07
5.64583e+07
5.63828e+07
3.13546e+06
5.76714e+06
2.26318e+07
4.87494e+07
1.81393e+07
1.18505e+07
3.54654e+07
3.55249e+07
8.95482e+06
1.58596e+07
2.16421e+07
3.60656e+07
9.08436e+06
2.13291e+07
3.34654e+07
3.33902e+07
4.60106e+07
5.56311e+07
5.57058e+07
576482
571874
2.68808e+07
1.98118e+07
5.7091e+07
2.44223e+07
3.01501e+07
3.02312e+07
3.06512e+07
2.01111e+07
4.24275e+07
1.78939e+07
1.05273e+07
5.90647e+07
5.9139e+07
3.8978e+07
4.04529e+07
4.05187e+07
6.31087e+07
6.31847e+07
5.70204e+07
233783
231557
1.86031e+07
6.13694e+07
6.1443e+07
3.07937e+07
3.08654e+07
9.05034e+06
9.06352e+06
3.02428e+07
9.67656e+06
4.41095e+07
4.40314e+07
9.07536e+06
1.30074e+07
3.49167e+07
3.48558e+07
2.2695e+07
1.68204e+07
4.50242e+07
4.49606e+07
1.89779e+07
9.37665e+06
9.35793e+06
3.2008e+07
6.77244e+06
1.65766e+07
6.37005e+07
6.36224e+07
4.30024e+07
2.88715e+07
2.87974e+07
2.27581e+07
2.28047e+07
5.1462e+06
5.13709e+06
1.0217e+07
3.82507e+07
6.12123e+06
6.13336e+06
3.33663e+07
3.34408e+07
1.06936e+07
7.08487e+06
1.62928e+07
3.07285e+07
8.97691e+06
6.25464e+06
4.73863e+07
4.73207e+07
4.09726e+07
4.09076e+07
6.64607e+07
6.6538e+07
1.81736e+07
1.95643e+07
1.95389e+07
4.01585e+07
4.00884e+07
1.45828e+07
778723
784923
9.59821e+06
3.25127e+07
2.06433e+07
2.05766e+07
4.96189e+07
1.31882e+07
2.65163e+07
5.54589e+07
5.55328e+07
1.74974e+07
1.8905e+07
1.89771e+07
3.84445e+06
1.53729e+07
3.3492e+06
3.14292e+07
3.88267e+07
3.88882e+07
5.62815e+06
1.57717e+07
5.45289e+07
3.18495e+07
3.19057e+07
1.06155e+07
4.11102e+07
4.10453e+07
4.9707e+06
1.27009e+07
1.3232e+07
4.50292e+06
1.00941e+07
5.75791e+06
4.27966e+07
4.28754e+07
4.16049e+07
4.15264e+07
7.64604e+06
5.18135e+07
5.18844e+07
5.31969e+06
9.47274e+06
5.33292e+06
1.72661e+07
1.73039e+07
1.80076e+07
1.73498e+07
1.05751e+07
3.45458e+06
1.82558e+07
1.60106e+07
4.14609e+07
4.13825e+07
1.43121e+07
1.69933e+07
3.45951e+07
1.33543e+07
4.74321e+07
3.83977e+07
1.32741e+07
1.35826e+07
4.88716e+06
8.73883e+06
5.70601e+07
5.71327e+07
5.64627e+07
5.65372e+07
3.43722e+06
2.39921e+06
2.39784e+06
2.34124e+07
1.36578e+07
1.83053e+07
2.20713e+06
6.24834e+06
4.27903e+07
4.15105e+06
2.59875e+06
5.76123e+07
5.76862e+07
1.47508e+07
1.28466e+07
4.52156e+07
2.44101e+07
2.43642e+07
3.91881e+07
4.72575e+07
1.08872e+07
3.3522e+07
1.39954e+07
2.89589e+07
5.19945e+06
4.67334e+06
1.19386e+07
1.2806e+07
6.01522e+07
6.02257e+07
2.64197e+06
2.64494e+06
1.59665e+07
3.25853e+06
2.88653e+07
2.88011e+07
1.26586e+07
1.5202e+07
1.55226e+07
3.23474e+07
3.24117e+07
4.57712e+07
4.86425e+06
2.53037e+07
1.7962e+07
4.44042e+06
3.66562e+07
6.57661e+06
2.20095e+07
2.82744e+06
3.20681e+06
1.52779e+07
3.63037e+06
1.29936e+07
2.71684e+07
5.74481e+07
5.73712e+07
2.49707e+07
2.50403e+07
1.57109e+07
1.56655e+07
7.95811e+06
3.16957e+07
2.23951e+07
2.22663e+07
2.23103e+07
4.48379e+07
1.79974e+07
3.17898e+06
2.23574e+07
1.98588e+07
1.27969e+07
9.31964e+06
2.35035e+06
2.35139e+06
2.12525e+07
2.13325e+07
6.47037e+06
6.48087e+06
3.3907e+07
2.823e+07
1.64966e+07
1.41274e+07
1.79232e+07
1.34813e+07
1.13498e+06
1.79693e+06
3.68595e+06
1.62017e+07
2.8093e+07
6.84799e+06
6.65335e+06
2.51229e+07
4.08954e+07
4.08935e+07
2.62878e+07
9.17599e+06
5.85849e+06
4.36546e+07
4.35763e+07
3.79283e+07
3.78639e+07
1.85988e+07
9.28946e+06
1.53602e+07
1.76849e+07
1.7882e+07
1.65921e+07
1.75109e+07
5.95039e+06
1.70648e+07
1.10926e+07
1.08969e+07
6.11061e+06
1.24742e+07
1.53616e+06
1.51876e+06
7.75408e+06
2.47948e+07
3.50363e+07
8.7289e+06
2.4239e+07
2.42801e+07
5.00342e+07
2.8293e+07
2.82246e+07
994405
986159
1.97845e+07
4.06385e+07
4.05744e+07
4.36343e+06
2.19751e+07
1.28652e+07
6.51615e+06
1.14516e+07
1.14557e+07
3.44715e+07
3.45333e+07
1.24122e+07
4.78012e+06
2.48087e+07
5.10983e+07
5.10299e+07
4.08099e+07
4.07497e+07
4.9606e+06
2.46386e+07
2.46886e+07
1.8686e+07
1.66478e+07
4.82414e+07
4.83167e+07
8.97522e+06
1.76986e+07
2.03831e+07
6.43829e+06
110606
109964
3.1035e+07
3.10994e+07
2.66482e+07
2.67225e+07
5.60011e+06
5.59107e+06
1.4571e+07
2.73229e+06
2.73027e+06
2.99445e+07
4.16572e+07
1.96773e+07
2.9054e+07
2.8985e+07
3.82051e+06
3.50434e+07
3.60795e+06
1.14819e+07
3.84844e+07
3.19692e+07
3.20262e+07
1.71259e+07
1.12945e+07
3.81104e+07
5.62596e+07
5.63317e+07
3.48832e+07
4.04827e+07
4.04031e+07
2.48845e+07
2.48194e+07
59764.8
58933.5
1.66021e+07
2.01728e+07
1.09789e+07
5.4287e+07
1.82945e+07
2.05554e+07
1.65179e+07
1.6604e+07
5.34882e+07
5.34144e+07
1.26636e+07
4.83628e+07
4.82876e+07
2.19008e+07
2.60724e+07
2.61435e+07
4.69418e+07
2.10223e+07
4.44365e+07
4.45004e+07
4.21474e+07
2.0305e+07
2.75963e+07
1.61175e+07
1.69662e+07
3.49551e+07
3.50171e+07
1.68588e+07
1.68231e+07
1.31263e+07
3.72036e+06
4.58671e+07
1.76892e+07
5.11206e+06
2.4902e+07
2.50382e+07
9.18738e+06
6.17925e+07
6.18665e+07
4.26172e+07
4.26799e+07
5.72085e+06
9.11837e+06
9.17318e+06
5.38815e+07
3.78381e+07
2.60414e+07
5.37197e+06
4.87563e+07
1.87246e+07
5.1592e+07
4.3636e+06
5.50504e+06
1.1398e+07
1.51938e+07
2.79527e+07
2.86647e+07
2.85965e+07
3.77574e+06
6.42347e+07
6.43116e+07
3.25133e+07
3.24275e+07
1.95416e+07
1.48489e+07
7.67857e+06
7.97516e+06
3.17447e+07
5.06427e+07
5.05669e+07
3.36448e+07
1.18451e+07
9.76726e+06
7.86657e+06
749056
744899
5.25459e+07
3.32495e+06
3.40349e+07
3.39793e+07
1.86841e+07
1.87212e+07
1.29994e+07
1.3036e+07
2.78387e+07
2.82106e+07
3.82789e+06
2.79114e+07
6.09316e+06
1.98802e+07
1.9853e+07
2.82706e+07
1.93815e+07
1.94222e+07
2.16248e+07
3.92875e+07
3.92921e+07
8.11846e+06
1.28868e+07
1.26981e+07
1.56673e+07
1.12493e+07
6.24741e+06
1.75448e+07
5.34855e+07
5.35607e+07
2.40444e+07
2.39009e+07
2.39494e+07
6.48697e+07
6.49459e+07
2.22647e+07
1.35641e+07
3.43242e+07
3.43803e+07
1.273e+07
2.18983e+07
8.95897e+06
1.99585e+07
1.10299e+07
3.7338e+07
2.25045e+07
2.24602e+07
7.77864e+06
8.57359e+06
8.56249e+06
6.15745e+07
6.16467e+07
2.39882e+07
2.50597e+07
1.65186e+07
1.72891e+07
2.51102e+07