/*--------------------------------*- C++ -*----------------------------------*\
| =========                 |                                                 |
| \\      /  F ield         | OpenFOAM: The Open Source CFD Toolbox           |
|  \\    /   O peration     | Version:  v3.0+                                 |
|   \\  /    A nd           | Web:      www.OpenFOAM.com                      |
|    \\/     M anipulation  |                                                 |
\*---------------------------------------------------------------------------*/
FoamFile
{
    version     2.0;
    format      ascii;
    class       volScalarField;
    location    "2000";
    object      sigmayz;
}
// * * * * * * * * * * * * * * * * * * * * * * * * * * * * * * * * * * * * * //

dimensions      [1 -1 -2 0 0 0 0];

internalField   nonuniform List<scalar> 
27023
(
-1.90277e-14
-1.28496e-13
-1.37428e-13
1.06793e-13
0
1.09365e-13
-2.75969e-12
-6.65454e-13
4.48894e-14
-9.50723e-14
7.8787e-13
-3.52689e-13
-8.47881e-14
-2.22581e-14
2.16106e-12
-4.97535e-13
-2.53212e-13
0
-1.21871e-12
0
6.57274e-13
-6.90207e-13
-2.04437e-12
-9.52183e-13
-1.62178e-13
-3.5142e-13
1.80584e-13
1.36107e-11
4.7408e-13
4.07724e-12
-3.39111e-12
-1.34321e-12
2.66113e-12
1.4538e-12
2.64692e-12
1.31283e-12
-9.43652e-13
1.88702e-12
-1.11775e-13
-8.38933e-14
-5.74587e-14
5.63447e-15
-3.47752e-12
-1.01161e-13
-1.00828e-13
-9.31633e-13
-1.42271e-12
1.17568e-12
1.17518e-12
7.75926e-13
-7.01812e-13
-1.18146e-13
6.90159e-13
1.57576e-14
5.77034e-14
2.28744e-12
4.91304e-12
2.09692e-12
1.27964e-12
2.46691e-13
-1.48689e-13
4.50477e-12
-1.12282e-12
1.42629e-11
-1.10491e-11
6.69805e-13
-3.57763e-12
1.25599e-13
-6.14824e-13
-1.56169e-12
0
-3.26699e-12
1.79116e-12
2.39224e-12
4.69348e-12
2.29845e-12
4.34582e-14
3.71473e-14
4.47886e-12
2.97516e-12
1.20435e-12
-1.84915e-12
-1.45107e-12
7.48643e-13
2.50954e-12
-1.08877e-12
9.2589e-13
-3.68348e-13
-2.68158e-13
1.72439e-12
2.86834e-11
9.26044e-14
-1.09549e-13
4.58556e-13
-7.56767e-14
-1.98444e-12
3.9397e-13
4.70428e-13
-2.45491e-12
4.46821e-12
-4.74061e-12
1.1862e-11
2.19413e-11
9.8583e-13
7.37547e-13
-1.62156e-13
8.64995e-15
-7.94536e-13
-1.07038e-12
-5.52794e-12
-2.75284e-12
1.05681e-12
2.47056e-13
3.35559e-12
1.42565e-12
1.84185e-12
2.89715e-12
1.34351e-13
6.24271e-14
-4.78411e-13
-3.65502e-13
-9.41595e-13
-4.96215e-13
-1.52469e-12
2.056e-12
4.03244e-13
1.67193e-13
1.86482e-13
3.29327e-13
1.85433e-12
5.78169e-12
4.26531e-14
2.32894e-14
-9.51975e-14
-2.77196e-12
-6.98547e-12
1.59267e-12
1.10883e-12
-3.66991e-12
-2.34262e-12
-9.18176e-13
2.28683e-12
-1.4867e-12
1.59621e-12
-3.66428e-13
2.80746e-12
-8.40192e-13
2.36528e-12
2.03955e-12
2.80856e-13
-1.00817e-13
-7.96496e-13
-2.69313e-13
-3.40678e-12
-3.99586e-13
6.02801e-13
5.35525e-12
-3.38212e-12
-5.86458e-12
-1.60541e-12
2.59431e-12
-9.26399e-13
2.22421e-12
-7.21051e-12
-3.13882e-13
2.89757e-13
-5.26666e-13
-1.46955e-12
-1.08565e-12
2.00721e-12
3.03163e-11
3.89844e-12
2.94558e-13
2.60606e-11
0
2.14402e-12
-6.15713e-12
-1.11262e-12
4.37601e-12
9.9669e-14
2.10585e-12
-2.26405e-12
1.77402e-12
-4.28601e-12
1.47284e-12
-2.76454e-14
1.46369e-12
1.95734e-12
8.52566e-12
-4.52091e-12
-2.24757e-12
-6.50063e-13
1.64806e-12
-7.47971e-12
-7.94964e-13
1.87756e-12
5.58887e-14
6.00438e-13
-4.80448e-13
1.85653e-13
2.53746e-12
1.10131e-13
-4.74238e-13
4.47924e-12
0
1.58198e-13
7.96836e-13
-2.20286e-12
-4.05405e-12
3.35324e-12
0
1.0313e-15
3.45871e-14
-4.61529e-13
9.9047e-15
5.52597e-14
-1.36485e-12
-2.56808e-13
2.0034e-12
1.19554e-12
-3.56912e-12
-3.50393e-12
7.85171e-13
-5.3984e-14
-9.01255e-12
-1.15965e-12
2.55691e-12
-1.72903e-12
-2.01847e-12
-8.89954e-14
8.67332e-14
-1.00633e-11
-3.51107e-12
-6.216e-13
-1.65395e-12
2.63347e-12
2.25753e-12
-7.61653e-12
-3.00009e-12
3.23386e-12
3.23494e-12
-8.76646e-13
1.37504e-12
6.39349e-12
1.10839e-12
-3.10201e-13
-7.63465e-12
-4.25326e-13
5.95638e-12
-2.11282e-12
-1.52984e-12
-3.21855e-12
2.39391e-13
1.97784e-13
7.10973e-13
-1.87731e-12
0
-2.84515e-12
-2.25324e-13
-1.43238e-12
-2.44565e-13
6.51053e-13
4.06031e-12
-2.55279e-13
-3.10253e-12
4.29904e-12
-9.95419e-13
2.44088e-12
-4.75945e-13
1.12386e-13
-1.21797e-13
-7.30772e-13
2.11596e-12
2.25043e-12
1.00957e-12
-6.55496e-12
-9.35277e-14
7.21376e-14
-4.54248e-12
-5.7484e-12
-2.44588e-12
3.10036e-12
-1.69003e-11
-4.65244e-13
-1.53843e-14
1.53267e-14
-2.96711e-12
6.78111e-12
8.37606e-14
-1.65294e-13
-5.664e-12
-3.24177e-13
-2.67963e-12
-9.468e-13
0
2.12694e-12
4.30914e-12
7.86404e-13
-2.22623e-13
0
3.10179e-14
-2.03462e-15
1.96522e-13
0
9.42416e-15
-1.80344e-14
1.10139e-13
1.46711e-12
-4.45148e-13
-6.86685e-12
5.36441e-12
-4.39424e-14
-4.37288e-14
1.04146e-13
1.33861e-13
-1.46883e-12
-4.31678e-12
5.79501e-14
-2.89213e-12
-3.1743e-12
-1.57955e-14
-4.68055e-14
-1.34436e-12
4.95721e-13
-2.82071e-13
9.25461e-13
-4.70392e-13
-4.81854e-12
2.48499e-12
5.41226e-13
3.23512e-13
1.28859e-12
-1.08792e-13
1.26958e-13
-2.02722e-12
-1.15024e-13
3.56776e-13
1.80029e-12
5.34577e-14
4.67192e-13
-5.16699e-13
1.1555e-12
1.29026e-11
0
1.187e-14
-1.14772e-12
1.71863e-13
5.52372e-13
9.83956e-12
4.3528e-12
-4.18065e-12
4.86777e-12
-1.22158e-12
-6.90113e-13
-8.44472e-14
-3.12605e-14
-2.93072e-13
8.13103e-13
6.13005e-12
-2.59861e-12
5.80651e-13
1.89643e-12
4.74032e-12
-7.41699e-14
-8.54697e-13
1.34881e-11
1.6964e-12
-3.44595e-13
-2.24891e-13
-2.24785e-13
-1.83618e-12
3.95825e-13
-2.21986e-13
0
-6.95426e-14
-2.40241e-12
-5.54532e-12
-9.85734e-13
-3.45571e-12
-1.81377e-12
-3.42358e-12
8.54221e-13
-1.32685e-12
3.89394e-13
1.06809e-12
7.98329e-13
1.40637e-11
-2.13751e-12
-5.36626e-13
-5.15652e-14
-2.62643e-13
-1.43027e-11
-8.70017e-13
-1.2986e-11
3.5489e-13
-7.89855e-12
2.49529e-12
-1.80694e-13
-8.17665e-12
0
-1.11287e-12
-9.62894e-13
4.17128e-13
2.94122e-12
-1.60756e-13
6.73121e-14
2.56268e-13
-7.91175e-14
-3.80364e-13
2.3536e-12
-6.98048e-13
-5.73381e-13
8.04028e-15
-1.89067e-14
-8.89213e-12
-4.04152e-12
3.16106e-13
1.02549e-12
-4.25031e-12
-2.89508e-12
0
-2.86223e-12
-9.95988e-14
2.07647e-12
1.0427e-11
-1.53389e-12
0
2.10189e-12
-2.96366e-12
-7.05007e-14
-3.9367e-13
0
-2.38556e-12
5.6863e-12
-1.19326e-12
-1.43707e-12
6.26085e-12
-1.46523e-14
-1.17553e-13
-1.29798e-13
-7.30167e-12
-2.96347e-13
5.15665e-13
-3.36014e-12
-9.37124e-15
-1.2801e-15
-1.30378e-12
2.85154e-12
-4.98492e-13
-1.98829e-13
-1.65434e-13
-2.57752e-13
-2.57501e-13
-7.49171e-13
-6.35548e-13
-2.20346e-12
1.91597e-12
-6.94853e-13
6.64729e-13
1.88567e-13
-6.2306e-14
1.55762e-13
-4.57759e-12
2.01591e-12
8.01892e-12
-4.55726e-13
-2.7023e-12
-9.27145e-13
2.93844e-12
5.77743e-12
1.26143e-11
0
-1.41682e-12
-1.07294e-12
-4.9848e-12
0
-1.58741e-13
1.24033e-11
-7.70886e-12
2.96217e-14
1.07018e-13
3.69071e-12
2.61495e-12
2.12155e-14
-2.72941e-12
-2.29248e-12
2.9304e-13
1.7709e-12
8.21717e-12
-3.68581e-12
-1.33732e-12
3.9073e-13
-3.08954e-13
2.3523e-12
3.04113e-12
8.02058e-13
7.44553e-13
-5.86e-14
-1.78821e-13
3.09339e-12
3.00721e-13
1.10009e-13
2.14223e-14
5.69211e-12
-3.82234e-13
-2.15695e-13
2.28868e-12
1.01661e-12
-1.36887e-12
1.3709e-12
9.87543e-13
-9.77683e-13
-1.18617e-12
-2.6788e-13
-1.17182e-12
-1.38059e-12
1.44086e-12
3.11302e-12
9.90784e-13
-1.49788e-12
1.63969e-12
8.19279e-13
-1.58095e-12
-2.19634e-12
-1.35878e-12
-1.75696e-12
4.09965e-14
8.50776e-13
1.14451e-12
5.16415e-14
-1.32252e-11
-1.27272e-12
-2.06929e-12
-1.85984e-13
-7.3379e-13
-6.61612e-13
-1.93564e-12
1.73275e-12
3.71681e-12
-5.96298e-13
-6.72249e-13
6.08573e-12
4.89144e-13
-3.46821e-14
-1.97626e-11
1.04778e-13
-2.18116e-13
4.00944e-12
-1.46571e-12
3.31182e-12
6.95777e-14
-2.62154e-12
1.10529e-12
1.24616e-12
-4.74885e-13
7.20523e-12
1.01403e-11
2.29828e-12
3.33485e-14
1.53442e-12
3.99259e-13
-4.61828e-13
-6.10156e-14
1.21399e-12
-3.95632e-12
-1.64025e-13
0
0
-2.91226e-13
3.25185e-14
-8.38339e-13
-7.66192e-12
1.04204e-13
0
9.64739e-13
-1.60529e-12
-9.57643e-14
3.49886e-13
5.29091e-12
-2.99114e-12
8.97473e-13
4.87537e-12
9.39632e-13
0
5.16123e-12
4.82026e-13
1.46958e-12
-7.76038e-12
1.38651e-12
-4.02818e-14
0
6.74365e-12
-1.71232e-12
-2.30585e-12
-4.01963e-12
5.50996e-13
-2.30963e-13
-1.52449e-11
-2.34879e-12
-1.33227e-12
1.62071e-12
1.85508e-12
3.34335e-12
-2.16646e-12
1.09329e-12
2.4241e-13
2.73897e-12
5.92489e-13
1.21105e-12
-9.694e-15
-9.14137e-15
1.29204e-12
1.04066e-12
3.86769e-12
-1.14026e-12
-1.98054e-11
-2.03958e-11
9.98879e-13
1.48451e-12
-3.20754e-12
-6.52092e-16
-9.43911e-15
1.51112e-15
1.08122e-15
2.07366e-12
-1.93661e-14
4.29005e-14
0
1.42464e-13
-1.11098e-13
-1.10805e-13
2.33345e-14
-2.14308e-13
9.92511e-13
-6.37913e-13
-5.44735e-13
-3.36009e-13
-2.25075e-11
1.06429e-12
9.53234e-14
-4.94271e-12
-7.39729e-13
-2.21721e-12
8.71677e-13
1.48814e-12
3.07065e-12
-5.66083e-13
2.04625e-13
-6.76659e-13
0
-3.25259e-12
-1.73413e-12
2.05535e-12
0
3.36002e-13
-8.7139e-13
-1.87467e-12
1.76185e-13
5.33994e-15
1.39635e-14
2.56752e-12
-3.74065e-12
2.40773e-12
-2.05982e-12
3.36319e-12
3.12765e-12
-8.48334e-13
-1.20112e-12
0
-8.58834e-12
1.40909e-14
-1.37606e-12
2.06841e-12
-6.55455e-15
1.07636e-12
-5.66474e-12
9.52231e-13
5.19881e-12
3.62473e-12
0
-1.12307e-11
-1.9578e-14
-9.67122e-15
-2.42093e-13
1.48835e-12
-2.57885e-13
-9.92854e-13
-4.91698e-12
-6.47256e-12
-7.46974e-12
-3.13625e-12
6.73089e-14
-1.97445e-12
1.07064e-11
4.97027e-12
-1.48709e-13
1.83533e-13
6.04399e-15
1.6086e-12
-1.38613e-13
4.00757e-13
-5.95446e-12
-3.07666e-12
1.53822e-12
6.92597e-14
4.82575e-13
6.95423e-18
7.78964e-15
-3.63614e-12
-7.43809e-13
-3.03039e-12
-7.81487e-13
-3.08926e-13
4.95951e-13
1.99594e-11
-5.08322e-14
-6.99362e-14
0
-3.14261e-12
-4.95768e-12
3.74406e-13
2.78892e-13
6.51613e-14
4.01275e-12
3.03895e-12
-3.11892e-12
-9.44933e-12
-2.00957e-12
0
-1.37236e-12
-5.38156e-12
-5.77981e-13
2.76131e-12
1.70367e-12
1.11497e-12
1.26864e-12
5.41013e-15
1.26934e-12
1.07326e-13
-1.49723e-14
3.54645e-12
-6.4268e-13
-2.72637e-12
-1.61838e-14
-8.55589e-13
-9.90228e-14
6.81971e-12
1.2471e-12
-2.77199e-13
-4.27519e-13
-5.61819e-13
1.56397e-12
3.27918e-12
6.41775e-12
2.76083e-12
0
-4.13085e-12
1.4519e-12
-1.22514e-11
1.54818e-12
-5.35171e-12
1.52862e-13
-2.31607e-13
-3.44406e-12
2.49695e-12
-8.80274e-13
1.96638e-13
2.43671e-12
-1.09636e-12
-4.39205e-12
-2.66166e-15
-4.44045e-12
-8.77566e-13
2.16082e-13
4.12696e-13
1.72177e-12
-4.69308e-12
3.33355e-12
2.69725e-12
0
1.77647e-12
-6.71397e-13
1.31889e-13
0
2.93414e-12
-1.40148e-13
-2.67318e-12
-2.14238e-12
5.93416e-12
1.37524e-12
1.20836e-13
0
0
5.09206e-12
2.86851e-12
1.97012e-12
-1.31006e-12
-1.94071e-11
-6.9115e-15
0
1.82324e-12
-2.92048e-12
-8.49704e-13
-1.51593e-12
2.94796e-12
-1.18057e-11
1.84176e-14
-2.18934e-12
2.03608e-12
2.2057e-13
-2.69126e-13
-1.164e-12
2.33987e-13
3.62012e-14
-6.33216e-12
3.58596e-12
1.70216e-13
1.91099e-12
4.69377e-13
1.20431e-12
-1.04807e-12
-3.231e-12
-3.3437e-12
0
-4.1438e-12
1.89529e-12
6.22627e-13
-1.86786e-13
-3.54275e-13
-3.87082e-12
3.36212e-13
4.04177e-12
3.52166e-12
6.33418e-13
2.22229e-12
1.04875e-11
-1.04234e-12
-6.95254e-14
4.23213e-13
-1.28243e-12
-5.789e-13
1.9485e-12
4.29224e-12
0
-2.9568e-13
2.61924e-13
1.76513e-12
-5.80879e-13
2.5858e-12
1.91495e-12
-1.83067e-12
-4.93475e-13
-1.2589e-13
-6.5375e-13
3.03375e-14
4.12293e-12
5.60019e-13
-4.32324e-13
-5.52856e-12
2.88295e-12
-2.69705e-12
-2.25605e-12
0
3.69539e-13
1.76579e-12
1.09595e-11
-5.63944e-12
-2.18252e-12
-6.92674e-15
-1.94384e-14
-6.17214e-13
1.95201e-12
-2.45063e-12
6.9333e-14
1.43295e-12
2.41066e-13
-2.97711e-11
1.13397e-12
-4.20233e-13
5.72449e-13
1.19655e-13
2.90065e-12
1.27637e-12
-7.82412e-13
1.1616e-12
5.17351e-12
-1.369e-14
-7.57909e-12
-2.2357e-14
-7.06376e-13
0
-4.32582e-12
4.18118e-12
-5.63496e-13
1.04397e-12
-6.46717e-13
6.11192e-13
2.02607e-12
4.57972e-13
4.1998e-13
2.31248e-12
-4.10279e-12
1.05622e-12
-5.24409e-13
-1.57665e-14
-1.17377e-14
7.03381e-13
-1.40498e-13
-1.95311e-12
5.8407e-13
2.60077e-12
1.58028e-12
7.62693e-12
1.08702e-12
-7.21527e-12
-1.85917e-12
1.88618e-13
1.88092e-11
6.45005e-13
2.2763e-12
0
-2.33883e-12
7.39143e-14
-3.80723e-13
1.77286e-12
-4.89713e-12
-2.59749e-13
-4.61444e-14
-3.38449e-13
-2.13483e-12
-6.67641e-12
-6.04956e-12
-1.0514e-12
0
-4.54048e-14
-5.44529e-13
-2.9278e-14
-7.83793e-15
-9.7026e-13
3.63289e-12
-2.1726e-12
-7.32695e-13
0
-2.8586e-14
5.1688e-15
1.56652e-12
5.739e-12
-8.70504e-14
0
-1.78878e-12
-3.58602e-13
-6.16423e-12
-2.26928e-12
-5.15248e-13
-8.80049e-13
-5.92258e-13
-4.59344e-13
7.80035e-12
-1.3171e-13
5.96914e-14
5.66151e-14
-5.51918e-13
4.9108e-12
-4.4316e-12
-2.36221e-12
2.90051e-12
2.82932e-12
-1.99499e-12
-1.89711e-12
-7.75334e-12
5.6654e-14
1.32896e-13
0
-7.11202e-12
-1.10874e-13
2.10496e-12
7.84841e-13
-1.30158e-12
-7.04786e-13
-8.45039e-12
-2.85823e-12
-6.90856e-13
5.1136e-15
5.5699e-12
-8.95187e-14
-8.78747e-13
-1.03373e-11
-5.7525e-13
4.47069e-13
-7.31469e-13
-1.88976e-12
1.62934e-12
-2.76102e-13
7.43394e-14
5.92363e-12
-1.00261e-13
4.25675e-12
0
-2.03008e-12
-1.40618e-12
3.58438e-13
2.10536e-12
-6.30122e-13
1.15053e-13
-1.09697e-11
-1.57916e-12
8.55533e-15
5.42526e-15
5.71035e-13
-7.35365e-15
-5.88884e-12
2.11301e-13
5.62937e-13
-9.67548e-13
1.61604e-13
9.23377e-13
-6.66597e-12
1.24534e-12
3.32219e-12
0
7.25354e-15
7.71425e-15
-6.69088e-14
2.94472e-12
3.80435e-12
1.02047e-13
-1.48002e-12
-3.07299e-12
-1.82134e-13
-2.38517e-13
-3.82405e-12
2.41418e-13
1.54738e-12
1.32561e-14
1.76649e-12
-3.88761e-12
-1.51428e-12
1.41011e-12
-2.9628e-12
-1.33943e-13
-1.87296e-12
8.80179e-13
1.04718e-11
4.46937e-12
2.60119e-12
-6.83814e-12
1.15301e-12
3.06191e-12
-3.34913e-12
1.53536e-13
-6.57904e-13
6.38289e-13
2.11745e-12
-3.63234e-13
9.53833e-13
2.20704e-12
1.39742e-12
-2.15071e-11
-7.44067e-12
5.93567e-12
3.90051e-15
8.55017e-15
3.84146e-12
2.48418e-12
-2.02769e-12
2.29509e-14
-5.51232e-12
3.36923e-13
2.47288e-12
-3.16642e-13
-1.08983e-12
2.13937e-14
-3.6438e-12
6.53839e-13
7.14645e-13
-3.87359e-14
-3.18119e-12
2.27628e-12
1.97415e-12
-2.70555e-12
-4.26806e-12
3.82145e-13
-2.55206e-12
-1.94441e-12
-1.1225e-13
9.53076e-13
2.86261e-12
-5.10845e-12
1.87762e-12
7.76838e-13
-3.00568e-12
4.76824e-13
-7.77481e-12
-1.1984e-12
7.79583e-13
-3.16093e-12
7.18197e-13
-2.98913e-13
-1.17451e-12
-6.44517e-12
1.20997e-12
-1.21136e-12
2.15838e-12
-6.08195e-12
1.84357e-13
6.0523e-15
-1.20334e-13
-9.35416e-14
-3.39769e-13
-3.70109e-12
3.34954e-12
-1.55745e-12
2.26463e-13
-9.62876e-13
-5.60204e-14
-2.19848e-14
1.99994e-14
-7.30016e-13
-2.36493e-12
-5.30027e-12
-9.64316e-13
-1.33458e-12
-7.23688e-15
-4.57371e-15
-3.84296e-13
-1.18007e-12
-1.294e-11
1.29253e-11
1.21654e-12
3.25432e-12
-1.07771e-13
-2.83476e-12
-1.96226e-11
1.78422e-12
6.4765e-12
-1.25412e-12
2.16881e-12
1.67848e-12
-3.31409e-12
6.18878e-13
-2.29152e-12
7.19243e-13
0
1.16603e-12
5.72776e-14
-1.89943e-12
2.85295e-12
-3.49406e-12
1.75708e-12
-3.51564e-13
5.05925e-13
-6.69426e-14
-6.91116e-14
4.48962e-12
-7.98809e-12
-3.6268e-14
3.63886e-14
6.89864e-12
1.67066e-12
4.23871e-14
1.29417e-12
-2.88107e-13
4.81531e-13
-2.13291e-13
3.25307e-12
1.60381e-11
8.97463e-13
6.11251e-13
1.24268e-12
2.29742e-12
1.84235e-12
2.63978e-12
-4.47722e-13
1.78192e-11
-1.18487e-11
-6.30234e-14
1.81668e-12
-4.9448e-12
1.76125e-11
-1.01074e-12
-1.85262e-12
1.01163e-12
-4.01257e-14
-3.99542e-14
1.0203e-11
7.52815e-15
-8.06651e-14
-4.84723e-13
-2.03922e-13
-2.70734e-12
1.00595e-12
2.25079e-12
-7.05423e-13
-1.08892e-12
-3.30517e-13
2.45362e-13
-3.94634e-12
-2.54944e-12
-4.16896e-13
7.79086e-12
-5.60267e-12
2.76325e-14
1.07651e-12
1.41231e-11
9.42993e-12
3.77273e-12
1.98546e-12
-1.44432e-13
1.24948e-13
-2.32257e-12
2.32902e-12
-3.32468e-12
6.49663e-12
5.89151e-12
-2.69194e-12
-2.29467e-12
-2.19233e-13
-4.36023e-13
-4.82173e-14
1.5165e-14
-2.46444e-12
-1.51146e-12
-3.59719e-12
-1.3721e-12
3.61936e-13
3.29497e-14
3.70724e-13
-1.04977e-12
5.76065e-13
1.72891e-12
1.70199e-11
-1.20823e-12
1.30937e-11
2.34393e-13
-3.20477e-12
-6.06299e-14
-1.76259e-12
-2.36235e-12
4.15751e-14
2.06033e-12
-5.48168e-13
1.24196e-13
-1.93233e-12
2.95573e-13
-6.57046e-13
-7.69132e-12
-9.69505e-13
6.1868e-13
2.1032e-13
-1.76151e-12
2.60224e-12
-3.49945e-12
-7.42705e-13
-3.61234e-12
4.77977e-12
-5.16229e-13
-2.42139e-12
-3.43067e-12
1.18157e-12
-8.58177e-12
0
1.14355e-12
2.89377e-12
-1.78144e-12
5.9838e-13
5.11201e-12
3.98937e-12
-3.52512e-12
3.8746e-12
6.02813e-13
-2.93234e-12
-5.06755e-12
-1.43289e-12
0
5.62532e-12
0
-1.14078e-12
-3.39679e-14
-9.7035e-14
-3.65419e-12
-4.45346e-14
-1.68823e-12
-1.15225e-12
1.04839e-12
0
0
-2.26796e-13
-2.47888e-13
-4.19548e-12
5.54869e-13
9.49829e-12
-1.51757e-13
1.82629e-12
1.59597e-12
2.45005e-13
2.12019e-13
-4.58508e-14
7.12608e-14
-1.88759e-12
7.17299e-13
0
-1.17444e-12
2.14454e-12
-7.95822e-13
0
2.15118e-14
1.32074e-14
2.62761e-13
-1.00427e-12
1.21073e-13
-1.25994e-13
-5.00605e-14
9.3071e-13
-2.42672e-12
9.21362e-13
-1.68291e-12
-6.40505e-13
-8.09309e-13
2.44494e-12
2.77394e-14
2.41311e-14
0
-2.00598e-12
8.04518e-13
2.11168e-12
0
1.80911e-12
1.10207e-12
5.95238e-13
9.92836e-13
6.25553e-12
1.32622e-11
-2.15356e-12
4.62389e-12
-3.85891e-13
-1.47244e-13
2.00641e-12
9.39271e-13
-9.40387e-13
0
-4.01495e-12
-2.01876e-12
-4.6034e-12
1.54339e-12
-1.22157e-12
8.16389e-13
1.16626e-12
-1.63744e-12
3.46389e-12
-3.9683e-14
6.18284e-13
1.31312e-12
-3.09931e-12
2.86234e-12
-3.8395e-12
-1.24371e-12
1.2136e-12
0
3.40129e-12
-1.40528e-12
-1.54623e-13
-2.03574e-12
3.32143e-12
-1.53957e-13
1.6739e-12
-1.45222e-13
3.04276e-12
1.00743e-12
-2.59979e-13
2.25626e-12
4.86809e-16
-4.93881e-15
-1.64742e-12
-1.00194e-13
-1.95211e-11
8.19258e-13
-1.05317e-12
-2.388e-13
-3.45071e-12
-3.23594e-13
-1.23573e-11
-3.22079e-12
-6.54811e-13
-5.77089e-13
-1.03159e-12
1.12203e-12
-2.16954e-13
-2.57995e-12
-4.6784e-13
-1.83758e-12
-1.89487e-12
1.43025e-12
3.74222e-13
-2.09721e-14
6.78032e-15
-2.25852e-13
-2.99053e-12
5.99134e-12
-3.75759e-12
-2.06921e-12
8.01882e-13
-2.1955e-14
1.23738e-13
7.87661e-12
-6.05012e-12
6.24425e-13
4.52927e-13
5.02869e-13
3.70141e-13
8.163e-12
-7.75515e-12
-2.20304e-12
1.10949e-12
1.00516e-12
-3.70592e-13
5.48903e-13
2.70241e-12
6.44641e-13
-9.09164e-13
6.18763e-14
-2.43766e-12
2.29436e-12
2.20796e-12
1.00327e-12
-2.53482e-13
1.57408e-13
-2.2209e-12
1.85006e-12
-1.09738e-12
0
4.95008e-12
-4.06938e-13
-4.06984e-13
-2.13331e-12
-3.33936e-13
2.84868e-13
-1.10802e-13
1.86847e-13
3.18834e-12
-2.00668e-13
5.60418e-14
-1.12622e-12
6.43563e-13
-7.25814e-12
-1.61966e-12
-5.21914e-12
4.9803e-14
3.87884e-14
1.43362e-12
-5.25078e-12
0
1.75839e-12
2.35575e-12
4.17024e-14
9.18559e-13
1.76928e-12
2.65889e-12
-1.01018e-12
-1.32786e-12
-2.53607e-14
0
6.10116e-14
1.00599e-12
1.53387e-12
-2.1029e-11
2.66453e-12
3.35405e-12
-1.25949e-13
-1.15942e-13
6.73508e-14
9.27215e-13
-1.2852e-12
-2.80008e-13
1.61677e-12
-1.47448e-12
2.60879e-13
-1.7968e-13
-1.88944e-13
-2.00367e-13
-8.17993e-13
-3.37981e-15
4.7683e-15
5.17699e-12
-2.65139e-13
1.73269e-12
0
8.0147e-15
1.67967e-13
-1.38086e-12
-5.79875e-13
2.47897e-12
4.61473e-13
2.47389e-12
-9.82102e-14
-4.3918e-13
4.39074e-13
0
2.93609e-13
2.66529e-13
-1.48044e-12
-2.95571e-12
3.12395e-12
7.83045e-14
8.74151e-13
5.06722e-12
7.99982e-12
-1.52224e-12
-2.73463e-12
-1.72603e-12
1.72558e-12
-1.10458e-11
-1.04237e-12
6.06772e-13
7.262e-13
-6.02002e-12
-1.38945e-11
4.84451e-12
-4.20935e-12
3.97048e-12
1.42958e-12
3.53903e-13
1.02942e-14
-2.17973e-13
0
-7.45685e-12
-4.63123e-13
1.55515e-12
-3.38173e-14
-1.54298e-12
9.75836e-13
-2.70478e-11
-2.26391e-12
7.84321e-13
-4.98568e-13
-2.80964e-12
-1.58646e-12
1.56472e-12
1.83202e-13
-2.02903e-13
1.33815e-12
-4.9426e-13
5.06841e-14
1.55539e-13
1.32175e-12
6.84201e-13
-1.888e-12
-7.11186e-13
-9.61151e-13
-3.6514e-13
-3.07113e-13
-8.86422e-13
-2.60242e-12
-4.24415e-12
2.92068e-12
-6.05101e-14
-5.98574e-14
-3.39672e-13
8.58985e-13
-8.62035e-12
1.17045e-11
0
5.08042e-13
-5.07744e-13
2.756e-12
8.37261e-13
-1.00891e-11
-2.49167e-13
-2.01844e-12
-1.0341e-11
7.27738e-12
4.37487e-15
1.69442e-12
-5.57191e-12
-4.0139e-12
4.99427e-12
-1.12546e-14
6.90194e-14
1.2771e-12
1.85789e-12
7.12148e-13
0
-1.23426e-12
-6.02287e-13
1.50293e-12
4.03839e-14
1.42331e-13
-2.07645e-12
-8.0304e-14
-1.44727e-13
-4.99325e-13
-2.08602e-12
1.12975e-12
6.264e-12
2.48164e-13
-1.00906e-12
1.73853e-12
4.17265e-12
-4.33286e-12
-8.3542e-13
-1.08476e-12
-1.08479e-12
-2.53173e-14
2.71591e-14
2.0814e-12
-2.93825e-13
7.53961e-13
-2.97739e-13
1.43299e-13
1.94037e-13
5.56841e-13
5.692e-14
-4.05043e-12
-2.25367e-11
-1.31279e-11
1.60097e-12
6.8838e-12
-1.0477e-12
-6.87648e-12
-5.3265e-12
-1.64235e-12
-4.43272e-12
3.97243e-13
3.9737e-13
1.61617e-11
0
-2.04827e-12
-1.20162e-12
-2.03619e-12
-2.14681e-12
5.1283e-14
-6.2654e-13
-2.2491e-13
-8.55838e-13
-1.09728e-12
-1.3394e-12
-3.30563e-12
-3.3732e-13
3.72743e-13
-9.22363e-13
-6.65909e-13
4.44618e-13
2.01356e-13
1.45243e-13
6.18876e-14
-1.75531e-11
1.89456e-13
-5.88045e-14
1.02803e-12
1.09322e-13
-1.52227e-13
-3.9254e-13
-7.94373e-13
-1.79809e-12
0
4.129e-12
-5.91161e-12
-1.58044e-13
-3.67522e-13
2.88862e-12
-3.43323e-12
-1.97051e-12
7.57725e-12
-2.59155e-15
-5.17264e-13
-1.89878e-12
1.3699e-12
1.3198e-12
4.52478e-13
6.78642e-15
-1.17511e-12
-1.29193e-14
9.68748e-13
2.23945e-12
-9.67159e-13
6.23861e-13
-7.87541e-13
0
3.53133e-12
-2.38565e-12
-8.34477e-14
-3.36032e-13
2.36072e-12
-5.8319e-12
-1.90498e-13
9.52726e-13
-4.25428e-14
-1.03285e-14
-2.58097e-14
8.49947e-13
-1.63153e-12
4.36091e-14
-1.20263e-12
-2.539e-12
-1.8771e-12
7.88658e-12
6.39558e-13
1.89477e-11
-2.07249e-12
-2.3713e-13
7.55559e-12
1.01623e-12
3.1383e-13
1.4159e-12
-4.12398e-13
2.83773e-14
-1.24005e-13
-2.63426e-12
5.57259e-14
-3.39479e-12
-2.95328e-13
7.66632e-13
-7.074e-12
4.15315e-12
5.67735e-12
-8.17985e-14
-5.78142e-14
-6.29889e-13
1.51105e-12
-4.22843e-13
-8.25234e-13
4.82074e-12
-9.97062e-13
-2.22354e-13
1.23131e-12
-4.23822e-12
-1.57375e-13
-2.33696e-13
9.78819e-15
2.94572e-13
-3.82379e-12
-9.5109e-13
3.17014e-13
-9.87357e-13
-1.90865e-12
1.05448e-11
7.70069e-15
2.78904e-14
-1.68114e-11
-1.19538e-13
-1.90282e-12
-1.05864e-12
-1.4601e-12
0
-3.35346e-12
-3.64438e-12
1.75276e-12
1.75329e-12
-5.59091e-14
0
-1.06959e-13
-1.72317e-11
-5.38274e-13
-2.01484e-12
-1.12894e-11
1.93687e-11
2.16692e-14
6.37383e-13
1.5311e-12
-1.15838e-12
1.3778e-12
-7.69802e-14
-2.75222e-14
-5.82163e-13
-2.42353e-12
2.10086e-14
-6.52713e-12
-2.06232e-12
1.24479e-13
-6.31907e-13
1.6968e-12
0
-9.69532e-13
5.08126e-12
-1.41807e-13
1.51257e-12
0
-9.0345e-12
-2.32405e-13
2.24977e-12
6.63016e-13
3.81236e-13
2.10313e-12
-1.51058e-12
-2.06145e-13
-1.83427e-13
1.25862e-12
-1.50626e-11
6.70503e-12
0
-1.56367e-12
-5.75757e-13
-1.42058e-12
6.6485e-12
2.26036e-13
-9.31817e-13
3.55529e-12
-3.08201e-15
-7.6264e-15
-9.63283e-13
3.39703e-12
2.3811e-12
4.53102e-13
-5.3226e-12
3.00427e-13
-8.09322e-13
2.05055e-12
2.4608e-12
-3.3419e-13
-4.21136e-12
2.13527e-12
1.27957e-12
0
1.01064e-12
-4.71665e-12
-1.79108e-13
-2.28416e-12
-1.95467e-12
5.31729e-12
5.47861e-12
5.83654e-13
-3.94893e-12
1.27245e-12
6.46142e-13
1.62415e-13
7.0209e-13
-3.44259e-13
-3.54615e-14
-3.90577e-12
0
-7.96465e-13
8.94465e-12
-8.38166e-12
-1.30658e-12
7.99462e-13
4.35602e-12
-6.21341e-13
-6.18958e-13
0
0
-1.03742e-12
1.91022e-12
2.69969e-12
-4.71949e-12
2.14532e-12
-4.47259e-14
3.49746e-12
-3.73738e-13
2.3696e-13
8.14977e-13
2.61971e-12
2.71452e-12
2.71555e-12
5.76157e-13
2.22744e-12
-2.05412e-12
-2.6612e-13
2.67049e-12
1.08503e-12
3.62631e-12
5.15882e-12
-3.80965e-12
-3.68034e-12
-2.30156e-12
-1.95056e-12
-3.03323e-12
-4.34951e-13
1.19378e-13
3.09109e-12
7.26638e-13
0
-2.3389e-12
-1.80807e-12
-2.71506e-12
-1.91852e-12
-4.88329e-12
-9.48629e-13
-2.20695e-12
3.13533e-12
2.98434e-13
-5.74263e-13
0
-1.61509e-12
-1.17697e-14
-3.67e-12
5.92405e-14
1.26546e-12
-3.39027e-12
-4.24185e-12
-1.44031e-12
4.10484e-13
0
5.93996e-13
1.31095e-12
-6.24268e-13
-2.39047e-13
7.61083e-15
3.71385e-14
3.09214e-13
4.03057e-13
-5.89713e-13
1.23152e-11
6.39543e-13
5.32005e-13
-8.11242e-13
1.31431e-11
-3.59126e-12
-4.79793e-13
1.1824e-14
-9.87476e-15
-5.8636e-12
7.54838e-12
-1.34902e-12
-7.70341e-15
2.59105e-14
-1.39517e-13
7.5122e-14
-2.8401e-12
-1.68731e-13
1.04705e-12
-2.29961e-13
1.93314e-13
-1.62575e-12
2.42157e-14
-2.10665e-14
-1.57179e-12
-2.10448e-12
1.24442e-12
5.91526e-12
-1.06273e-13
-1.24959e-12
-2.16293e-12
0
1.91464e-12
3.96988e-13
-7.39756e-12
-5.25213e-13
2.04224e-12
2.46758e-12
-7.27596e-12
-3.36563e-13
-1.51689e-12
-2.11463e-12
-8.25305e-13
-1.59915e-12
-1.10053e-12
-1.08348e-11
-1.19537e-12
-2.57371e-12
9.10033e-12
-3.83652e-12
-9.46772e-13
6.47131e-15
-2.12006e-15
-2.75369e-15
-4.08761e-12
-2.3206e-14
-2.48745e-14
1.0686e-13
0
0
-2.19372e-11
-1.62153e-12
-2.94433e-12
0
-7.11743e-12
8.4782e-12
-2.06368e-12
3.35368e-13
-8.99144e-12
-1.11871e-12
7.64362e-13
4.92685e-13
-4.58653e-12
1.13449e-12
8.44816e-12
-8.4149e-12
-8.7608e-13
-1.70287e-12
1.8764e-13
7.3775e-14
8.02537e-13
-1.01239e-11
-1.19143e-11
0
-1.60382e-13
5.46908e-13
1.62068e-12
6.70112e-13
-5.58951e-12
-4.02327e-13
4.64761e-12
1.1455e-14
-4.33182e-12
-7.75084e-13
-8.3428e-13
2.24494e-12
3.83389e-12
-2.12121e-13
-4.00566e-12
5.04344e-12
3.35501e-13
-2.63153e-13
2.6961e-12
-2.09736e-12
1.04855e-12
-7.91335e-13
0
-1.29648e-14
8.72407e-13
-6.64069e-13
-2.50545e-12
6.03737e-13
-1.1937e-12
-6.16663e-13
5.45558e-13
2.52888e-13
-3.14623e-12
3.9883e-13
4.66899e-12
-1.20453e-12
-6.00234e-13
-3.66279e-12
-4.22525e-13
1.08298e-13
2.15842e-12
1.98341e-12
-1.1109e-13
6.40962e-15
9.33044e-15
-1.30803e-12
-4.25755e-12
-4.67071e-12
2.53094e-12
2.1833e-12
5.80824e-14
-8.02456e-14
0
1.70713e-12
4.41916e-13
-1.82007e-12
2.05501e-12
1.35313e-11
-1.78454e-12
-7.4188e-13
-2.27358e-12
-1.35289e-11
2.68652e-12
2.34642e-12
-2.41137e-13
4.76171e-14
-2.72638e-14
2.4104e-12
1.18018e-12
1.09255e-13
-1.8553e-12
-7.5727e-13
2.75369e-12
-1.02062e-12
-2.59037e-12
2.25956e-13
4.63765e-14
-5.80022e-14
-1.15589e-13
0
-2.67638e-12
1.48972e-14
2.50847e-14
-2.75996e-12
-1.51121e-12
0
0
2.75765e-13
-3.27479e-12
-4.51017e-12
-1.05872e-12
6.33516e-13
6.33287e-13
-1.25135e-12
7.11024e-13
8.40916e-13
-1.52867e-12
-1.26818e-11
-4.58622e-13
9.64575e-13
-1.42059e-12
1.63184e-12
-1.04611e-12
2.10796e-14
4.3102e-15
-8.14894e-12
5.44179e-12
-1.27298e-12
-6.22828e-13
6.33793e-12
3.14067e-12
9.19946e-13
1.75971e-12
-2.12137e-12
5.13052e-13
1.53146e-12
1.03854e-12
9.4875e-12
-2.37738e-12
-9.04728e-12
-3.31441e-12
-2.68023e-13
-1.05857e-12
5.6953e-12
-1.98844e-12
1.19866e-12
-8.55262e-13
1.02554e-13
1.12474e-12
2.71871e-12
-2.75524e-12
1.15427e-11
7.85946e-13
8.40706e-13
-2.53982e-12
2.18242e-13
-2.04799e-12
-2.56921e-12
-2.98069e-12
-4.51296e-13
3.71376e-12
9.56585e-12
-1.59817e-12
-1.4673e-12
-1.9802e-14
5.77807e-15
2.31512e-15
-5.68885e-14
1.63697e-13
-1.03046e-12
-9.90011e-14
-2.52637e-12
-3.77514e-11
1.69068e-13
1.05691e-12
-1.32642e-12
6.17272e-12
1.74248e-13
8.89261e-14
-1.93698e-14
-4.2076e-12
-5.40359e-12
4.16512e-12
-5.68727e-12
2.83561e-13
-7.01066e-12
-1.50792e-12
-1.62029e-12
7.86309e-13
1.07157e-12
1.26068e-12
-1.41532e-12
2.40685e-14
2.4184e-14
-4.39967e-12
-1.28607e-13
4.13196e-13
-1.6157e-12
2.14744e-12
-2.05068e-13
1.95508e-12
1.8901e-12
0
2.05365e-12
-1.13453e-12
6.58875e-14
2.95597e-12
0
-1.07576e-12
5.10271e-12
1.25157e-12
-3.45658e-12
1.99404e-12
2.39273e-12
1.70465e-12
-5.58544e-13
2.43388e-12
9.76209e-14
-2.53941e-14
1.09486e-12
-1.74018e-12
-2.38955e-14
9.08991e-15
2.06567e-12
5.84477e-14
-1.42433e-13
6.41036e-13
1.78418e-12
1.72723e-13
-5.32332e-14
3.54816e-13
-1.49652e-12
1.21273e-12
6.32677e-13
-3.13712e-13
1.45356e-12
-7.76937e-13
-4.59941e-12
-1.51236e-12
5.26565e-12
-6.62706e-13
-1.84683e-12
0
2.23892e-14
2.17111e-12
5.08649e-12
2.97357e-12
4.09845e-12
2.85112e-12
-3.89681e-12
7.46507e-12
-8.59994e-12
-6.8107e-13
-7.79087e-13
8.32081e-14
6.42576e-13
3.73498e-13
-7.04217e-12
-5.01534e-13
7.10824e-13
5.97453e-13
-8.05754e-13
2.63568e-12
1.16296e-11
6.09103e-14
7.78788e-14
4.88267e-13
-4.97976e-13
6.12579e-14
5.62091e-14
2.46042e-12
4.13555e-13
-7.37978e-13
-7.24022e-14
-4.5435e-12
-1.45933e-12
3.07381e-12
-1.54315e-12
6.38928e-14
-9.04547e-12
-4.17782e-13
-1.17883e-12
1.43613e-12
-6.12811e-13
-1.3045e-11
1.30396e-13
-2.35471e-12
-5.95483e-14
-2.19711e-12
2.5827e-12
0
-2.54264e-12
-4.00905e-12
1.43003e-12
5.89506e-12
9.433e-13
0
-2.30175e-12
2.03314e-12
-5.80837e-12
-2.90154e-12
-9.76406e-14
-8.78324e-12
-2.65844e-12
1.62208e-12
5.27509e-13
-2.96829e-14
-3.3098e-14
-1.28114e-12
-4.67579e-13
-6.59648e-13
-3.26618e-13
-7.67758e-13
-1.69201e-12
-1.05807e-12
1.09987e-12
2.65122e-12
0
1.12845e-14
-1.28947e-11
-1.32968e-13
1.16389e-12
-1.63317e-12
-5.70145e-12
2.61668e-13
3.00002e-14
3.49317e-12
-5.06245e-13
4.2078e-12
2.51016e-12
-1.90262e-12
2.11638e-13
5.25952e-13
1.21475e-12
-2.7087e-13
1.41591e-12
6.80655e-13
1.11201e-12
2.25004e-12
-5.30067e-13
1.18614e-12
1.62572e-13
3.9241e-13
1.86557e-12
-1.54603e-14
6.78978e-12
-2.34444e-13
7.46777e-13
2.18076e-14
1.72706e-14
2.51241e-12
5.10035e-13
-4.18081e-13
-1.83382e-13
-6.98373e-14
5.03738e-15
2.00318e-12
7.62752e-14
2.5586e-14
3.89138e-12
-4.70807e-12
-6.05191e-13
-3.23032e-12
0
1.56204e-13
-1.88967e-12
1.57816e-12
-6.28436e-13
-3.24193e-13
2.36829e-13
4.97497e-14
-4.49611e-12
2.90058e-11
-2.08e-12
-3.49573e-12
-3.29256e-12
-4.06541e-12
-3.13438e-12
6.14172e-12
-1.21584e-12
-1.08526e-12
-2.45028e-14
1.76284e-14
1.52989e-12
-1.39641e-13
-1.7012e-12
-3.34735e-12
3.6689e-13
-4.62797e-13
9.47387e-13
-9.93282e-13
6.38609e-13
8.53119e-13
2.34453e-13
1.90617e-12
-2.15499e-12
3.38965e-12
-4.89326e-12
9.03801e-13
-6.85104e-12
3.45871e-12
-1.70582e-12
-3.06984e-12
-6.98139e-13
1.10101e-12
-1.21769e-12
4.79822e-13
-1.02381e-11
2.31755e-12
3.99012e-14
-2.25146e-13
-1.10008e-13
9.79363e-14
-9.91107e-12
8.6807e-13
-1.42311e-12
-2.64791e-12
-1.00388e-11
2.58636e-12
-1.2409e-12
-1.77893e-12
-1.91517e-12
-1.08683e-12
0
-4.08571e-12
-5.9805e-12
0
4.87219e-12
1.82176e-12
2.7827e-12
-5.78355e-12
8.87913e-13
8.53034e-12
3.15439e-14
3.07821e-11
8.81808e-14
4.63092e-14
1.60762e-12
-7.12155e-12
-6.92827e-13
-1.65858e-12
1.58194e-12
-1.51035e-12
-3.14085e-13
8.48481e-14
-2.75933e-12
6.6044e-13
5.85445e-12
-1.90313e-12
-4.01507e-12
-2.31722e-12
4.51301e-12
4.40106e-13
3.3225e-12
-5.22661e-12
7.32267e-13
2.61841e-13
8.2898e-14
3.38315e-14
-2.12668e-12
-8.23733e-13
0
-3.19641e-13
7.91812e-14
7.88508e-14
-1.17402e-13
-1.17406e-13
-4.21039e-14
-3.84415e-12