/*--------------------------------*- C++ -*----------------------------------*\
| =========                 |                                                 |
| \\      /  F ield         | OpenFOAM: The Open Source CFD Toolbox           |
|  \\    /   O peration     | Version:  v3.0+                                 |
|   \\  /    A nd           | Web:      www.OpenFOAM.com                      |
|    \\/     M anipulation  |                                                 |
\*---------------------------------------------------------------------------*/
FoamFile
{
    version     2.0;
    format      ascii;
    class       volScalarField;
    location    "2000";
    object      sigmazz;
}
// * * * * * * * * * * * * * * * * * * * * * * * * * * * * * * * * * * * * * //

dimensions      [1 -1 -2 0 0 0 0];

internalField   nonuniform List<scalar> 
27023
(
-5.69348e+06
5.70404e+06
4.08417e+06
-4.07698e+06
-5.57148e+06
5.58183e+06
1.76274e+07
-1.76061e+07
2.23222e+06
-2.22878e+06
1.35477e+07
-1.35285e+07
544123
-546014
-4.94363e+06
423194
354027
-1.05583e+07
1.05793e+07
7.94623e+06
-7.92418e+06
1.74065e+07
-1.73852e+07
9.64631e+06
-9.6277e+06
1.47369e+06
-6.76129e+06
625319
-6.76184e+06
5.66783e+06
2.94629e+06
7.94842e+06
-7.92745e+06
-7.7154e+06
-4.90689e+06
6.00403e+06
7.52508e+06
-7.50087e+06
2.10793e+06
-2.10493e+06
-4.19003e+06
4.19755e+06
-3.9003e+06
-5.37745e+06
5.38763e+06
1.04292e+07
-1.04078e+07
8.9225e+06
-8.89937e+06
5.2701e+06
8.59374e+06
-8.57049e+06
-7.52173e+06
129577
-128636
8.49553e+06
3.55286e+06
6.16698e+06
-2.84636e+06
4.1926e+06
-4.18535e+06
5.18466e+06
857245
902220
-3.7701e+06
2.64706e+06
6.98514e+06
1.80525e+06
-6.73639e+06
-3.65061e+06
7.26194e+06
-7.23762e+06
1.26658e+07
-1.26453e+07
1.54086e+07
-1.53883e+07
218334
-217218
-1.84108e+07
1.84321e+07
-5.09775e+06
1.30643e+07
-1.30452e+07
1.24243e+07
-1.24038e+07
-1.6311e+07
1.63315e+07
-6.94156e+06
680369
-3.00134e+06
2.92267e+06
6.04519e+06
-6.03359e+06
3.77331e+06
-1.49933e+06
-9.59178e+06
9.60898e+06
-5.10896e+06
-3.02365e+06
144827
-4.90917e+06
-3.1071e+06
3.22585e+06
1.47112e+07
-1.46912e+07
526982
1.60343e+07
-1.60136e+07
8.42227e+06
5.83542e+06
3.53358e+06
1.62285e+07
-1.62077e+07
9.47258e+06
-9.4547e+06
1.55529e+07
-1.55322e+07
3.59177e+06
-6.60242e+06
-4.94189e+06
3.7759e+06
403889
-1.47563e+07
1.47759e+07
1.84141e+07
-1.83925e+07
5.845e+06
-5.83352e+06
1.50236e+07
-1.50035e+07
-2.7799e+06
-553257
543202
-2.78661e+06
3.24608e+06
-1.63974e+07
1.64179e+07
1.81009e+06
1.09578e+07
-1.09362e+07
-1.68002e+07
1.68211e+07
-1.2187e+06
1.71383e+07
-1.71173e+07
-2.7482e+06
-2.82716e+06
8.73912e+06
7.1095e+06
9.35625e+06
-9.33944e+06
1.02592e+07
-1.02418e+07
-4.62076e+06
-5.27681e+06
-5.09054e+06
5.1217e+06
4.99905e+06
1.08337e+07
-1.08119e+07
-9.41224e+06
-3.8933e+06
-8.08392e+06
636151
-1.16658e+07
1.16842e+07
-1.536e+07
1.53802e+07
-3.65644e+06
387650
935803
-1.85517e+07
1.85729e+07
-3.26933e+06
3.32348e+06
-5.18813e+06
447956
-1.21474e+06
-3.33163e+06
1.96596e+06
-7.12176e+06
-1.59496e+07
1.597e+07
-5.09449e+06
-9.45949e+06
-1.00916e+07
-9.16528e+06
9.1824e+06
-8.48833e+06
-3.02802e+06
-1.55074e+07
1.55275e+07
-4.90652e+06
732036
1.87321e+07
-1.87105e+07
-1.0569e+07
-1.50233e+07
1.50432e+07
-6.24612e+06
5.27064e+06
-6.8621e+06
1.50761e+07
-1.50547e+07
-5.10084e+06
5.11051e+06
-4.19633e+06
-1.04663e+07
1.50702e+07
-1.50489e+07
24940
-24714.8
3.57779e+06
-4.48542e+06
-2.11758e+06
2.12265e+06
-5.7338e+06
487609
1.07998e+06
-1.61946e+07
1.6215e+07
-2.76413e+06
-1.46112e+07
1.46306e+07
-4.81351e+06
1.45743e+07
-1.45532e+07
1.28339e+07
-1.28139e+07
1.13099e+06
-1.12986e+06
685656
1.49347e+07
-1.49137e+07
-9.6522e+06
1.42652e+07
-1.42445e+07
1.55895e+07
5.89995e+06
-1.82954e+07
1.83169e+07
7.11618e+06
9.90193e+06
9.92751e+06
-7.98546e+06
3.9304e+06
135445
-6.15429e+06
8.19376e+06
-7.79946e+06
-1.74119e+07
1.74333e+07
-3.54933e+06
-3.07958e+06
-1.04713e+07
-1.06617e+07
1.28417e+07
-9.76207e+06
8.86442e+06
-8.84315e+06
3.14119e+06
719783
8.97531e+06
1.46646e+07
-1.46437e+07
1.68931e+07
-1.68723e+07
1.2525e+06
-2.56105e+06
1.45127e+07
-1.44931e+07
6.29592e+06
-3.79035e+06
-6.76728e+06
1.6187e+06
921234
-1.16737e+07
1.1692e+07
-8.7311e+06
8.74979e+06
7.03096e+06
-8.79509e+06
1.71422e+06
-1.69713e+06
-154059
155167
-3.64987e+06
-4.56326e+06
2.19427e+06
8.11865e+06
374339
-3.52948e+06
-1.45175e+07
1.45386e+07
-1.60809e+07
1.61011e+07
-7.72809e+06
1.03931e+07
-1.50384e+07
1.50595e+07
650703
1.45731e+06
-1.50661e+07
1.5086e+07
-1.74693e+06
2.91856e+06
-2.91243e+06
5.89504e+06
5.29287e+06
-937967
58047.3
96855
-96074.9
1.29813e+06
-1.29707e+06
7.03008e+06
-8.47701e+06
8.50004e+06
255314
5.13787e+06
815614
-815288
-7.38622e+06
-4.33661e+06
-3.09558e+06
5.29755e+06
-1.21966e+07
1.63945e+06
8.06284e+06
-9.62576e+06
-3.44258e+06
9.62523e+06
-1.37722e+07
1.58332e+06
5.95977e+06
-8.19707e+06
8.21229e+06
-2.99362e+06
1.95104e+06
1.42977e+07
-1.42777e+07
-1.00065e+07
1.00613e+07
35459.4
-35150.5
-6.24109e+06
5.98885e+06
-5.97761e+06
-4.24794e+06
2.11527e+06
-7.86561e+06
7.86839e+06
1.53359e+07
-1.53149e+07
45969.9
-45421.7
986666
-1.80153e+07
1.80369e+07
-915386
-7.49916e+06
-1.46174e+07
1.46387e+07
-1.67492e+07
1.67702e+07
2.85252e+06
-6.27416e+06
-1.14373e+06
-6.78751e+06
6.80073e+06
-1.76326e+07
1.76536e+07
-3.08336e+06
-9.81436e+06
-3.42871e+06
-9.84762e+06
-9.90677e+06
-6.74234e+06
-6.36828e+06
7.19638e+06
4.96029e+06
-7.17059e+06
1.78966e+07
-1.78751e+07
-5.97819e+06
2.37892e+06
2.79296e+06
-1.00338e+07
-9.20459e+06
-393003
-5.74749e+06
1.91856e+06
7.56049e+06
761188
335270
-1.48034e+06
6.37784e+06
3.45714e+06
-1.43208e+07
-6.81746e+06
1.28017e+07
-1.27817e+07
4.69326e+06
-4.88433e+06
1.93293e+06
-6.81555e+06
6.82899e+06
160539
3.51092e+06
-8.81371e+06
488646
8.81963e+06
169223
-168040
-2.94966e+06
8.36555e+06
7.0052e+06
1.03462e+07
5.49433e+06
-7.34658e+06
3.62957e+06
-9.07053e+06
2.17864e+06
1.2513e+06
774768
-1.36221e+07
-1.46727e+07
1.46934e+07
-1.27023e+07
1.19052e+06
9.49775e+06
-5.73389e+06
1.42205e+07
-1.41995e+07
-1.1115e+07
1.11361e+07
1.01847e+07
656379
2.85524e+06
-2.85119e+06
-1.2695e+07
1.26926e+07
9.57883e+06
-9.55652e+06
-52113.1
52543.1
-3.59081e+06
-2.23431e+06
-8.1887e+06
-794896
-2.05132e+06
-1.55397e+07
1.55599e+07
-1.50566e+07
1.50765e+07
9.11293e+06
-9.09084e+06
1.01408e+07
-1.01234e+07
-2.26343e+06
142727
-2.05755e+06
-7.84264e+06
4.17168e+06
9.49547e+06
-3.2901e+06
-1.80774e+07
1.80991e+07
-8.60889e+06
4.33354e+06
2.21112e+06
1.14949e+07
9.93645e+06
-7.66968e+06
-2.63895e+06
1.48029e+07
-1.47817e+07
-3.83755e+06
3.91021e+06
3.75889e+06
-3.75184e+06
1.47676e+07
-1.47466e+07
392157
2.44031e+06
-2.68172e+06
2.86169e+06
1.38206e+07
1.39174e+06
-1.3605e+07
1.36242e+07
-5.64002e+06
7.76345e+06
472302
-8.51574e+06
8.53898e+06
6.87287e+06
-6.85988e+06
5.77602e+06
-1.19666e+07
-6.99577e+06
-5.83786e+06
5.85094e+06
-7.6033e+06
-1.40164e+06
7.77856e+06
-7.75352e+06
-6.72618e+06
1.73766e+07
-1.7355e+07
1.35663e+07
-1.35472e+07
-9.0588e+06
-1.3347e+07
1.33663e+07
-4.06958e+06
-5.7454e+06
1.34541e+07
-1.34328e+07
-1.03238e+07
-1.47444e+07
1.4765e+07
8.38329e+06
-1.42978e+07
1.43185e+07
-8.73969e+06
8.76025e+06
-2.17869e+06
1.16763e+07
-1.16578e+07
-6.81153e+06
-1.37287e+06
-1.73683e+06
-2.50921e+06
1.11205e+07
-1.11015e+07
-1.7187e+07
1.7208e+07
-6.26035e+06
-1.04073e+07
6.76538e+06
624097
-8.1199e+06
-7.47073e+06
3.51488e+06
-2.87292e+06
2.87708e+06
-1.2078e+07
-1.62242e+07
1.62446e+07
6.13041e+06
640678
-1.45457e+07
1.45662e+07
-7.47852e+06
-8.19594e+06
8.20088e+06
140546
855850
-2.37892e+06
-6.42627e+06
-5.34785e+06
7.73839e+06
-7.7133e+06
-7.37255e+06
-147532
1.22075e+07
-1.21859e+07
2.75526e+06
-7.75775e+06
7.77788e+06
-2.21788e+06
7.7649e+06
-7.75053e+06
-1.46229e+07
1.46425e+07
-8.74136e+06
8.75702e+06
8.17578e+06
-6.33061e+06
6.3325e+06
8.10177e+06
-9.47085e+06
9.48771e+06
-5.72306e+06
3.0818e+06
-3.50981e+06
-8.61043e+06
634022
-1.62854e+06
-3.16555e+06
-1.36427e+07
9.09587e+06
-9.07739e+06
6.20284e+06
9.23315e+06
-9.21459e+06
-5.80441e+06
-1.21889e+07
1.22094e+07
-2.22956e+06
-556771
-7.89764e+06
7.9182e+06
1.39787e+07
-1.39576e+07
1.05916e+07
4.482e+06
7.25801e+06
1.23952e+07
-1.23735e+07
1.59306e+07
-1.59099e+07
4.91038e+06
-3.95175e+06
2.0316e+06
-2.06765e+06
6.27284e+06
-6.24544e+06
-6.35555e+06
-41364.5
-92599.9
93379.3
41716.6
-3.95384e+06
489817
-489114
-9.00499e+06
9.02142e+06
-5.5458e+06
5.55665e+06
7.71685e+06
-7.70259e+06
1.23252e+06
1.11814e+07
-1.11619e+07
-8.18216e+06
-3.79532e+06
-1.06491e+07
1.06685e+07
-4.91178e+06
1.18777e+07
-1.18562e+07
-6.37238e+06
-5.05571e+06
9.98705e+06
-8.37453e+06
8.38966e+06
9.823e+06
723856
-17494.9
-4.57982e+06
-1.46533e+07
1.46743e+07
-1.24722e+06
8.79383e+06
-1.79923e+07
1.80137e+07
-47618
47982.1
8.95194e+06
-8.93267e+06
7.6342e+06
-1.18514e+06
1.75591e+07
-1.75389e+07
-5.86149e+06
-8.83096e+06
1.28456e+06
3.33546e+06
7.44576e+06
5.90424e+06
3.16439e+06
-654643
-2.55456e+06
-9.51294e+06
6.69336e+06
9.04894e+06
-8.64077e+06
-4.54569e+06
-3.4719e+06
132008
-131236
1.21765e+07
-1.21561e+07
7.16073e+06
-598927
-3.85684e+06
-1.32831e+06
7.77726e+06
8.43935e+06
-8.8964e+06
-881125
5.49236e+06
-5.90614e+06
-2.30454e+06
5.15705e+06
-5.14678e+06
7.9986e+06
1.10143e+07
-1.04559e+06
-5.45118e+06
1.47816e+07
-1.47606e+07
-1.52288e+07
1.52503e+07
96578.5
-95806.8
-711207
-1.15249e+06
-4.51328e+06
-640880
-8.24022e+06
8.26145e+06
4.79223e+06
2.2698e+06
-2.26709e+06
-1.6271e+07
1.62917e+07
-1.26257e+07
1.34014e+07
-1.33809e+07
-2.04172e+06
1.00253e+07
-6.29751e+06
-3.59505e+06
9.92717e+06
1.13146e+06
1.33601e+07
-1.33392e+07
5.24059e+06
-1.75261e+06
1.65316e+07
-1.65106e+07
-5.31312e+06
-1.42518e+07
-4.83566e+06
1.42727e+07
3.70983e+06
-3.68249e+06
7.2184e+06
5.51107e+06
-7.50457e+06
-293465
-7.55776e+06
-3.98922e+06
1.30906e+07
-2.62981e+06
5.40139e+06
-5.38848e+06
-1.51705e+07
1.51915e+07
3.83213e+06
1.11245e+06
-1.42404e+07
1.42612e+07
-8.32467e+06
6.76236e+06
5.41982e+06
2.81361e+06
6.11992e+06
6.20222e+06
-6.19071e+06
-2.19986e+06
8.53149e+06
-8.50993e+06
-1.50369e+07
1.50577e+07
206074
-5.7214e+06
-1.26389e+06
-1.3079e+07
1.26632e+07
-1.26444e+07
5.59828e+06
715494
-3.96439e+06
-8.9328e+06
-3.62029e+06
-6.1342e+06
-2.36106e+06
-5.71942e+06
6.41942e+06
1.52943e+07
-1.52739e+07
1.38526e+07
-1.38332e+07
9.84431e+06
-9.68432e+06
-2.29745e+06
912382
1.49269e+07
-1.49064e+07
-1.03859e+07
-9.39382e+06
280862
-3.81856e+06
1.24434e+06
1.03782e+06
-1.03521e+06
-4.18476e+06
-1.63801e+06
1.71132e+07
-1.70921e+07
-498513
4.26197e+06
-703331
1.82584e+07
-1.82374e+07
-6.10638e+06
6.12143e+06
-7.19665e+06
-4.7881e+06
4.79766e+06
-2.15784e+06
-1.01788e+06
510391
912916
1.39707e+07
-1.395e+07
-1.90503e+06
-8.34099e+06
8.36384e+06
1.55514e+07
-1.55294e+07
-5.95358e+06
5.95958e+06
1.02528e+07
-1.02354e+07
-1.658e+07
1.66009e+07
1.94219e+06
-9.76279e+06
1.68173e+07
-1.67965e+07
-1.01673e+07
-855158
9.70686e+06
-9.68993e+06
1.24934e+07
-1.24723e+07
-9.85064e+06
-1.46848e+07
1.47058e+07
-1.7072e+07
1.7092e+07
9.86637e+06
4.24098e+06
6.07815e+06
2.62725e+06
1.111e+07
-1.10884e+07
-1.36266e+07
922261
1.27123e+06
1.36472e+07
4.98916e+06
8.00616e+06
-6.07484e+06
8.45678e+06
-8.43568e+06
176087
2.36324e+06
-7.32985e+06
1.08818e+07
-1.08857e+07
4.2224e+06
-516356
160923
-160030
-6.22389e+06
-7.17152e+06
-5.08158e+06
1.68619e+07
-1.68412e+07
-1.03221e+07
-7.46053e+06
-1.00774e+07
4.61022e+06
1.00596e+07
-1.00422e+07
-9.63723e+06
4.22721e+06
1.03444e+07
-5.33969e+06
5.4182e+06
1.00954e+07
-8.93112e+06
9.73979e+06
-9.72275e+06
-1.36019e+07
1.36231e+07
8.80909e+06
-3.50244e+06
5.71659e+06
1.39601e+07
-1.39408e+07
-1.29316e+07
1.29531e+07
1422.44
-4.58134e+06
1.11713e+07
-1.115e+07
-6.29994e+06
1.96641e+06
-1.96307e+06
-5.04451e+06
-5.44977e+06
1.37138e+07
-8.20932e+06
-8.56335e+06
-1.02601e+07
5.74321e+06
-6.14796e+06
-1.97909e+06
1.57316e+07
-1.57111e+07
-901942
301549
2.90584e+06
-6.0979e+06
-2.54216e+06
-1.53299e+06
-973387
5.66155e+06
-4.4433e+06
500423
2.7393e+06
-6.14075e+06
5.01655e+06
-1.24536e+07
3.07039e+06
-3.23516e+06
-2.96754e+06
2.97197e+06
6.04142e+06
-2.10555e+06
2.10971e+06
-4.45069e+06
-2.66708e+06
1.13142e+07
-1.12953e+07
5.76984e+06
1.61097e+06
-1.60735e+06
-5.16481e+06
-2.66712e+06
5.46118e+06
-7.44251e+06
8.6559e+06
5.4731e+06
-1.45347e+07
6.74277e+06
4.92221e+06
8.22205e+06
6.04002e+06
-6.02861e+06
2.06896e+06
-2.28498e+06
591445
-591043
9.15789e+06
-201493
5.98406e+06
4.52385e+06
-6.34117e+06
6.3662e+06
-1.00722e+07
-2.01679e+06
4.98925e+06
-334583
335151
-5.65395e+06
-3.84491e+06
-53558.2
687637
-3.23226e+06
9.84788e+06
5.80198e+06
-7.30501e+06
-6.53928e+06
6.56285e+06
-1.15256e+07
-9.06528e+06
293250
1.20941e+06
-6.60789e+06
-1.2003e+07
1.20217e+07
531290
-4.83662e+06
-1.10554e+07
-3.08063e+06
3.08526e+06
-5.88208e+06
2.92267e+06
5.94239e+06
-1.449e+07
1.45113e+07
-2.76883e+06
-8.35683e+06
8.38323e+06
1.12998e+07
-1.12811e+07
4.4461e+06
-6.20528e+06
234260
-233152
-5.59819e+06
601866
1.71574e+06
1.53159e+07
-1.52951e+07
-1.82539e+06
1.76017e+07
-1.75802e+07
860302
7.1532e+06
-2.66145e+06
-1.20756e+07
-5.20374e+06
-1.54659e+06
1.20944e+07
1.09524e+07
1.38613e+06
-4.83894e+06
-6.91396e+06
6.93726e+06
6.96318e+06
-7.17245e+06
9.83664e+06
5.57538e+06
6.66002e+06
-1.52238e+06
1.11193e+06
-2.3071e+06
-4.19897e+06
402418
1.43309e+06
-2.10993e+06
-1.69219e+06
60370.6
6.22855e+06
3.84853e+06
-8.23486e+06
-5.98455e+06
-3.02902e+06
-1.0068e+07
9.50896e+06
-1.1911e+07
1.19298e+07
1.99687e+06
-832262
-6.18963e+06
6.21206e+06
1.23599e+07
-1.23382e+07
-3.98348e+06
-1.61594e+06
8.14168e+06
-1.27397e+06
1.27727e+06
1.4847e+07
-1.48265e+07
1.04588e+06
298754
-5.22306e+06
-1.67037e+06
-1.28477e+06
-340837
-1.47032e+06
-272772
1.00687e+07
1.09489e+07
-1.09295e+07
6.47679e+06
-6.43288e+06
2.91946e+06
2.52978e+06
1.49169e+07
-1.4896e+07
1.50482e+06
2.89635e+06
6.50589e+06
-2.13558e+06
-9.24154e+06
-3.85766e+06
3.55983e+06
-3.04477e+06
1.09488e+07
-1.7341e+06
-3.42151e+06
1.29996e+07
1.13598e+07
-1.13402e+07
-1.16286e+07
2.24138e+06
7.10771e+06
-4.80269e+06
4.96369e+06
1.29273e+07
-1.29134e+07
-5.74094e+06
-1.33443e+07
-1.7664e+06
1.76876e+06
2.35776e+06
-2.35445e+06
3.92307e+06
5.19327e+06
-4.78575e+06
1.53431e+07
-1.53585e+07
1.53785e+07
2.77776e+06
-2.77213e+06
-2.23539e+06
1.57584e+07
-1.57378e+07
-6.27584e+06
6.1476e+06
-1.84829e+06
42301.8
-41922.1
-5.82905e+06
-2.8456e+06
1.23635e+07
-3.34422e+06
-1.55512e+07
1.55715e+07
6.27216e+06
1.16626e+07
-1.15674e+07
4.45326e+06
2.988e+06
-421314
6.7084e+06
-6.68892e+06
-1.47825e+07
1.48032e+07
-2.92007e+06
-7.77797e+06
7.79896e+06
-1.43226e+07
1.43437e+07
3.39956e+06
-7.4156e+06
6.28159e+06
-2.41486e+06
6.38478e+06
-6.37015e+06
-4.99478e+06
1.94799e+06
1.06393e+07
-101444
-6.96002e+06
6.97342e+06
-6.31545e+06
3.24497e+06
1.27397e+07
1.33303e+07
-1.33091e+07
9.48048e+06
-1.46242e+06
-4.82967e+06
4.6868e+06
1.68498e+07
-1.68287e+07
-6.7438e+06
1.17143e+07
-1.16929e+07
6.63729e+06
-1.05393e+07
-8.31526e+06
8.32478e+06
6.52846e+06
4.00992e+06
321633
-527689
-7.88098e+06
2.84762e+06
-2.326e+06
116790
-115917
1.05562e+07
2.35681e+06
-2.35302e+06
1.42173e+07
-1.41979e+07
-2817.8
1.68976e+07
-1.68766e+07
-1.26044e+07
1.26233e+07
-1.67582e+07
1.67781e+07
4.32951e+06
1.55101e+07
-1.54895e+07
1.1531e+06
-4.99479e+06
-620917
-5.01228e+06
3.3048e+06
-4.45706e+06
1.20025e+07
-1.19826e+07
-3.92953e+06
3.93841e+06
3.34286e+06
-448806
280774
9.75316e+06
1.64316e+06
7.1474e+06
-1.05783e+07
1.55679e+06
-2.09517e+06
1.49996e+06
-1.49833e+06
9.84651e+06
-7.671e+06
9.68079e+06
-6.30544e+06
-3.52732e+06
878688
7.44445e+06
-7.41992e+06
7.26996e+06
3.51362e+06
-5.80607e+06
5.861e+06
-2.44796e+06
-7.49084e+06
-1.49564e+07
-9.06145e+06
9.0809e+06
1.04945e+07
-5.38146e+06
6.87498e+06
-7.55213e+06
9.00405e+06
1.49763e+07
7.56581e+06
8.28814e+06
6.89665e+06
4.52293e+06
6.8491e+06
-2.34844e+06
5.67142e+06
4.14362e+06
3.12883e+06
-975678
-3.35593e+06
5.78158e+06
-6.84817e+06
-3.76173e+06
1.22155e+07
-1.21942e+07
-8.70702e+06
2.66339e+06
-2.53826e+06
-2.98563e+06
1.04602e+07
-1.13798e+07
1.37781e+06
-1.23852e+07
-4.26189e+06
1.91939e+06
1.13987e+07
5.49782e+06
-8.25172e+06
3.60946e+06
-1.48718e+06
9.36712e+06
-9.21537e+06
6.38491e+06
174708
-174051
-1.03874e+07
-1.28765e+07
1.28955e+07
598753
1.4573e+07
-1.45535e+07
1.73226e+06
5.87768e+06
-5.86687e+06
-6.81659e+06
83968.2
1.49439e+06
1.61797e+07
-1.61576e+07
-681581
-1.22942e+07
1.34038e+07
-4.99179e+06
1.42495e+07
-1.42301e+07
-7.93567e+06
2.26494e+06
1.46801e+06
-1.14549e+07
6.55043e+06
-6.52869e+06
109624
-108727
951219
3.77999e+06
1.01041e+07
-1.00866e+07
1.46881e+07
-1.46674e+07
-1.12986e+07
2.56871e+06
5.36027e+06
1.37967e+07
-1.37768e+07
594514
-197492
198559
-1.16873e+07
1.16878e+07
-1.45855e+07
1.46061e+07
-1.25532e+07
1.48896e+07
-1.48688e+07
1.09175e+07
-1.08996e+07
6.78166e+06
-3.21269e+06
-1.37818e+07
1.34552e+07
6.40899e+06
503773
-1.34342e+07
2.81067e+06
7.98147e+06
7.40137e+06
8.27372e+06
4.72104e+06
1.41608e+07
-1.41401e+07
-4.06415e+06
-1.29503e+07
1.29692e+07
1.61234e+07
-1.61027e+07
-5.59237e+06
-1.1223e+07
1.12439e+07
6.48695e+06
-6.46384e+06
-6.16641e+06
6.26706e+06
-6.24293e+06
5.97659e+06
-1.52616e+07
1.52828e+07
3.85478e+06
-2.649e+06
-6.17288e+06
-1.11933e+06
6.04543e+06
-6.02941e+06
2.36492e+06
-5.78318e+06
2.45088e+06
-4.62593e+06
-56292.3
56913.9
-1.72918e+07
1.73129e+07
-2.32169e+06
4.29366e+06
1.74173e+07
-1.73959e+07
-6.42758e+06
6.28594e+06
3.06363e+06
-9.9995e+06
1.0035e+07
6.94542e+06
-432960
-1.0427e+07
1.34705e+06
-1.70816e+07
1.71026e+07
-6.95602e+06
6.97935e+06
-9.92242e+06
9.94396e+06
538066
-536983
2.69783e+06
-9.413e+06
-1.86626e+06
-5.27034e+06
-6.25815e+06
-1.28259e+06
932068
-931293
-2.72391e+06
-335797
5.55448e+06
-7.04199e+06
7.05708e+06
5.29481e+06
-248092
-7.22231e+06
1.14774e+07
-1.1456e+07
-7.39456e+06
1.00046e+06
-1.09002e+07
1.09213e+07
-5.00836e+06
-1.1783e+07
1.18031e+07
-8.78526e+06
-5.23701e+06
-6.97049e+06
-3.15494e+06
3.5203e+06
-3.5398e+06
1.36036e+07
3.32684e+06
9.67393e+06
-9.65694e+06
360098
8.52198e+06
-8.50595e+06
1.27785e+06
1.26603e+07
-1.26395e+07
-6.46859e+06
6.4808e+06
-663926
-3.89159e+06
3.90198e+06
-1.18726e+07
1.1894e+07
7.19042e+06
-4.90483e+06
-7.08188e+06
8.69178e+06
-8.67581e+06
7.0635e+06
-2.44878e+06
-7.20142e+06
7.22323e+06
1.6087e+06
1.56445e+07
-1.56243e+07
2.25326e+06
9.18782e+06
1.48782e+07
-1.48576e+07
-228140
229612
-2.08951e+06
1.42688e+07
-1.42484e+07
1.67461e+06
6.60848e+06
-6.58681e+06
1.31637e+06
-1.31454e+06
-130393
6.66645e+06
1.53543e+07
-1.53344e+07
-1.79174e+07
1.79388e+07
5.93964e+06
686652
-2.77162e+06
2.77543e+06
4.11655e+06
32372.2
-32060.8
-1.58567e+07
1.58769e+07
-4.84745e+06
3.53243e+06
-3.52676e+06
2.00559e+06
-1.45811e+07
1.4602e+07
-4.03341e+06
-2.01294e+06
-1.52362e+07
1.52571e+07
-1.51288e+07
1.51487e+07
-4.47035e+06
447027
-9.93842e+06
5.19578e+06
-3.09875e+06
-1.77688e+06
5.72494e+06
6.47167e+06
-6.37137e+06
6.36621e+06
-1.25605e+07
1.25819e+07
1.50531e+07
-1.50322e+07
1.18378e+07
-6.27372e+06
-1.38103e+06
573259
-1.38949e+07
-6.10254e+06
9.69734e+06
9.02418e+06
-9.74769e+06
8.64059e+06
-8.61789e+06
-7.58876e+06
7.6031e+06
1.40081e+06
-1.69747e+06
-6.63963e+06
264780
-650803
5.23414e+06
-5.91637e+06
-2.45503e+06
7.096e+06
-7.0732e+06
205752
-8.05291e+06
8.07753e+06
-3.36817e+06
-1.68133e+07
1.68344e+07
-1.55866e+07
1.56068e+07
-2.55862e+06
-1.19465e+07
1.1967e+07
1.86536e+07
-1.86322e+07
1.32742e+07
-1.32545e+07
9.05003e+06
-9.03381e+06
1.32079e+07
3.56309e+06
4.3832e+06
-2.01382e+06
-7.42365e+06
7.43809e+06
-1.21333e+07
1.21535e+07
-3.75451e+06
3.61078e+06
-3.55276e+06
1.72641e+07
-1.72437e+07
6.62868e+06
-8.56461e+06
8.55728e+06
-5.37469e+06
-6.32544e+06
9.00928e+06
-2.81751e+06
6.5443e+06
-6.51195e+06
763323
-6.49759e+06
6.05196e+06
682754
-682042
1.12301e+07
2.43013e+06
2.61602e+06
-3.45984e+06
-7.98258e+06
-1.28952e+07
3.10188e+06
4.36724e+06
-4.35944e+06
1.34152e+07
-1.33938e+07
8.76287e+06
-8.7466e+06
-3.61573e+06
3.10558e+06
2.98287e+06
2.12367e+06
-3.69631e+06
-1.09411e+07
3.96966e+06
4.39976e+06
2.12313e+06
-1.25644e+07
1.25601e+07
1.39686e+06
-1.39578e+06
3.55034e+06
3.17987e+06
-8.69687e+06
8.71644e+06
9.38689e+06
-9.37035e+06
1.59442e+07
-1.59221e+07
-4.45262e+06
-2.09667e+06
2.10563e+06
1.15445e+06
-1.14382e+07
1.1591e+07
-1.43441e+07
1.43651e+07
6.45329e+06
-235814
1.20702e+07
-1.20516e+07
-6.84263e+06
6.79317e+06
5.20162e+06
-2.05105e+06
-6.62928e+06
-3.18652e+06
6.24246e+06
-6.22771e+06
1.0542e+07
-1.05245e+07
-9.61805e+06
1.45433e+07
-1.45222e+07
1.36597e+07
-1.36406e+07
1.30037e+07
6.52189e+06
-6.50638e+06
-5.34772e+06
5.35833e+06
1.76779e+06
-3.74154e+06
-8.75858e+06
-6.54188e+06
6.56616e+06
-2.61159e+06
2.61523e+06
379503
8.70104e+06
-1.08529e+07
1.08735e+07
7.73108e+06
3.29065e+06
-1.77839e+07
1.78054e+07
3.26361e+06
9.09716e+06
-1.15187e+07
3.66249e+06
-1.1399e+07
-1.28884e+07
1.29093e+07
4.68155e+06
1.36467e+07
-1.36258e+07
2.60687e+06
4.4785e+06
1.14161e+07
-1.01368e+07
1.01583e+07
-4.97374e+06
5.53928e+06
-38247.8
1.49542e+07
-1.49334e+07
1.46251e+06
-2.02233e+06
9.22299e+06
-9.19987e+06
5.23341e+06
-5.83377e+06
5.81391e+06
2.09157e+06
802486
-765250
8.51969e+06
-8.49743e+06
1.95742e+06
-2.67745e+06
-5.52742e+06
1.01534e+07
-735117
-3.14842e+06
-1.07584e+06
366484
5.9165e+06
1.23328e+07
-4.56113e+06
1.3819e+07
-1.37998e+07
-6.35085e+06
933423
-932726
1.40213e+07
-1.40019e+07
4.4173e+06
-1.49271e+07
1.49469e+07
5.66371e+06
1.23197e+07
-1.68702e+06
-444728
445100
1.01241e+06
-1.16033e+07
1.16249e+07
-7.82114e+06
763080
8.22528e+06
-134906
-1.18146e+07
5.51444e+06
-4.03225e+06
4.0426e+06
9.2205e+06
-9.20387e+06
-6.23178e+06
2.82691e+06
5.95124e+06
-1.35154e+07
1.35349e+07
-1.37515e+06
1.42953e+06
-1.42691e+06
-94147
-1.5002e+07
1.50225e+07
-2.16834e+06
4.1859e+06
-5.08435e+06
4.09177e+06
-4.105e+06
7.43342e+06
-7.4104e+06
-5.51556e+06
5.43043e+06
-7.04152e+06
7.1231e+06
8.76876e+06
-6.17604e+06
-9.0762e+06
559921
-1.11067e+07
-2.60549e+06
6.31671e+06
-6.29398e+06
-115407
4.39734e+06
-4.38957e+06
1.22434e+07
-1.22235e+07
1.01275e+07
1.36227e+07
976840
1.72128e+06
6.78687e+06
503794
-1.1332e+07
-1.09387e+07
7.54787e+06
4.93631e+06
-6.27273e+06
-2.11201e+06
6.21145e+06
-8.2449e+06
8.26513e+06
9.07724e+06
-9.06003e+06
1.00696e+07
-1.00825e+07
4.88974e+06
-8.07901e+06
8.10196e+06
746445
-8.31705e+06
8.28088e+06
-1.34859e+07
1.35063e+07
3.52371e+06
8.47966e+06
-1.86716e+06
-6.19558e+06
-1.11501e+07
-53577.8
54210.3
5.42304e+06
-2.89431e+06
3.47037e+06
-3.49835e+06
1.76466e+06
6.83087e+06
-6.81576e+06
-1.15352e+07
1.15546e+07
6.17221e+06
-1.18524e+07
1.54687e+07
-1.54481e+07
-1.04001e+07
1.0419e+07
4.89978e+06
3.95019e+06
3.96425e+06
5.30837e+06
8.62638e+06
-8.60229e+06
3.64919e+06
-7.65068e+06
7.65315e+06
-8.90171e+06
8.91768e+06
8.2969e+06
6.12321e+06
-6.11163e+06
6.291e+06
-6.26846e+06
8.42845e+06
-4.53572e+06
4.51543e+06
-3.09107e+06
2.71526e+06
283642
-3.51562e+06
-6.19777e+06
1.90586e+06
-1.90346e+06
-5.31118e+06
6.22467e+06
-1.0143e+07
1.01654e+07
4.05916e+06
4.88196e+06
5.27954e+06
6.21211e+06
7.73136e+06
-7.71662e+06
6.56568e+06
-1.59022e+07
1.59227e+07
7.1368e+06
6.28168e+06
-3.54001e+06
-9.73651e+06
9.85485e+06
-9.83395e+06
3.32346e+06
7.32062e+06
5.93521e+06
-1.37153e+07
1.37362e+07
8.75989e+06
-8.75825e+06
5.38265e+06
-5.69421e+06
-4.01041e+06
-1.25262e+06
4.35608e+06
3.68313e+06
4.81719e+06
-4.5278e+06
577174
-621757
-1.15824e+07
1.16024e+07
1.23445e+06
1.57178e+07
-1.23067e+07
1.23272e+07
1.00831e+07
-8.25153e+06
5.93802e+06
-5.35835e+06
8.27298e+06
-1.4488e+07
1.45087e+07
2.09228e+06
8.39597e+06
-1.21414e+07
1.21604e+07
7.02951e+06
-5.38237e+06
8.60396e+06
32484.3
-32002.7
5.70967e+06
1.4353e+07
-1.43336e+07
5.07298e+06
-338389
4.38211e+06
1.03165e+07
-8.27757e+06
-416911
-1.56989e+07
293004
-292230
-3.3148e+06
7.29036e+06
2.57338e+06
213473
-212552
7.75727e+06
-1.07394e+07
1.0761e+07
1.73046e+07
-1.72835e+07
-8.60471e+06
8.6202e+06
6.0284e+06
666372
-673729
-6.09057e+06
-2.94775e+06
4.8123e+06
358519
-6.00541e+06
-5.85909e+06
1.15819e+07
-1.15613e+07
-1.1678e+07
1.16999e+07
-1.45333e+06
-6.41635e+06
-1.38564e+07
4.03286e+06
-6.99596e+06
-208603
6.50503e+06
6.8924e+06
1.76114e+07
-1.75898e+07
-1.10371e+07
-3.92312e+06
-8.7215e+06
8.74132e+06
-1.85125e+06
-545306
174005
4.90037e+06
4814.36
-4640.26
-2.58503e+06
1.80121e+06
-1.79733e+06
-136704
-1.5536e+07
1.55564e+07
-2.43233e+06
-7.03654e+06
8.15513e+06
7.05978e+06
-1.12675e+07
1.12677e+07
2.78453e+06
-3.56405e+06
-5.78259e+06
776071
-1.53802e+07
1.54004e+07
7.39483e+06
-7.3783e+06
-1.42e+07
2.36721e+06
-1.79285e+07
1.79498e+07
6.42808e+06
-6.41616e+06
-6.09411e+06
1.12186e+07
-1.61877e+06
-1.02879e+07
1.03065e+07
1.55723e+07
-1.55507e+07
-171301
-922237
7.38968e+06
1.34534e+07
6.11905e+06
3.69571e+06
-1.15156e+07
1.15367e+07
-2.70764e+06
4.3205e+06
-7.30092e+06
-9.96976e+06
-2.55693e+06
-6.90111e+06
1.00388e+07
-1.00164e+07
1.24759e+07
-1.53699e+07
1.53905e+07
93509
-92871.4
7.42044e+06
6.77144e+06
1.5682e+07
-8.15692e+06
-8.5274e+06
8.5494e+06
-8.62581e+06
6.37263e+06
-1.1731e+07
6.1288e+06
-2.74779e+06
-1.66027e+07
1.66235e+07
-1.06069e+07
-1.11704e+07
1.11886e+07
-1.80935e+07
1.81152e+07
-1.56619e+07
52025.7
-51535.2
5.0704e+06
-1.69236e+07
1.69439e+07
-9.55304e+06
9.57565e+06
-2.48552e+06
2.48882e+06
8.26156e+06
3.02497e+06
1.25995e+07
-1.25781e+07
-2.31793e+06
-3.40379e+06
1.13157e+07
-1.12942e+07
-6.57365e+06
-4.59677e+06
1.41526e+07
-1.41326e+07
-5.91865e+06
2.68257e+06
-2.67799e+06
8.83205e+06
43148.4
-4.87208e+06
1.78753e+07
-1.78534e+07
1.18587e+07
8.6232e+06
-8.6005e+06
-7.33229e+06
7.34811e+06
1.33914e+06
-1.33735e+06
3.19342e+06
1.0494e+07
-1.63544e+06
1.63828e+06
-1.00465e+07
1.00688e+07
-3.54257e+06
976453
4.50664e+06
8.64602e+06
2.46437e+06
2.07768e+06
1.37326e+07
-1.37135e+07
1.28592e+07
-1.2838e+07
-1.8762e+07
1.87837e+07
-4.90624e+06
-5.89074e+06
5.82066e+06
1.22628e+07
-1.2241e+07
-5.2901e+06
-163576
164685
-2.39499e+06
-8.97057e+06
6.39828e+06
-6.37316e+06
-1.37657e+07
3.45168e+06
-7.17761e+06
-1.52701e+07
1.52909e+07
-4.77342e+06
-6.77685e+06
6.79458e+06
339303
4.57898e+06
-447336
-8.56036e+06
-1.23062e+07
1.23248e+07
-1.2515e+06
-5.71812e+06
1.51446e+07
-9.29223e+06
9.30885e+06
2.98249e+06
1.28348e+07
-1.28139e+07
143860
-4.18225e+06
-3.7798e+06
1.00375e+06
-3.00402e+06
1.10311e+06
-1.20583e+07
1.20795e+07
1.15498e+07
-1.15289e+07
-1.89151e+06
-1.5358e+07
1.53791e+07
-1.43825e+06
1.98397e+06
1.44025e+06
-5.30884e+06
5.32113e+06
5.74691e+06
-4.83069e+06
2.66045e+06
1.10231e+06
-5.61825e+06
4.31421e+06
1.14969e+07
-1.14763e+07
-2.84167e+06
-5.99519e+06
9.38179e+06
-4.15732e+06
-1.30714e+07
-1.04592e+07
-3.752e+06
2.65834e+06
1.13974e+06
2.08354e+06
-1.65641e+07
1.65851e+07
-1.57225e+07
1.57431e+07
389542
744087
-741845
-6.68155e+06
-3.22758e+06
5.63683e+06
-678015
1.52339e+06
-1.17395e+07
-1.2206e+06
642140
-1.61353e+07
1.61559e+07
-3.75061e+06
1.07045e+06
1.25196e+07
6.73703e+06
-6.72448e+06
-1.07485e+07
1.30678e+07
3.20904e+06
9.18697e+06
3.80772e+06
-8.28564e+06
1.01566e+06
-942313
-3.53897e+06
95699.5
-1.65283e+07
1.65484e+07
837248
-840530
4.38142e+06
849527
9.48691e+06
-9.46768e+06
4.1691e+06
-2.96588e+06
4.13074e+06
-1.03952e+07
1.04176e+07
1.25893e+07
-896446
8.66041e+06
-5.72224e+06
261588
-1.01061e+07
412388
-6.02827e+06
-82028.2
544969
4.15743e+06
446488
4.22736e+06
-7.42368e+06
1.58838e+07
-1.58621e+07
-7.45218e+06
7.47249e+06
4.44781e+06
-4.42824e+06
1.71843e+06
-8.77634e+06
7.16853e+06
-6.73693e+06
6.75068e+06
-1.23555e+07
4.94256e+06
-407679
7.17036e+06
-7.00867e+06
-4.63611e+06
-2.15619e+06
-589189
593432
-6.82852e+06
6.85318e+06
-1.89399e+06
1.89602e+06
9.31596e+06
-9.69843e+06
4.12444e+06
-2.49145e+06
-4.95545e+06
4.62632e+06
112775
-510594
-769953
-4.35985e+06
9.67057e+06
-401544
2.06899e+06
8.89814e+06
1.12029e+07
-1.12002e+07
7.0886e+06
-490776
-2.00241e+06
1.24263e+07
-1.24048e+07
1.19966e+07
-1.19751e+07
-6.21967e+06
-2.19775e+06
-4.23019e+06
-5.59711e+06
5.65339e+06
5.32545e+06
-4.59535e+06
-1.39371e+06
-4.52066e+06
-2.8576e+06
2.82615e+06
-1.52518e+06
-1.47236e+06
429881
-427735
2.01093e+06
-8.39092e+06
9.58022e+06
-2.25894e+06
-8.6242e+06
8.6413e+06
-1.39853e+07
9.16142e+06
-9.13832e+06
127745
-127238
5.19404e+06
1.27505e+07
-1.27293e+07
13586.8
-6.07796e+06
120565
172642
-3.43763e+06
3.44481e+06
-1.11514e+07
1.11727e+07
-3.16148e+06
978084
8.42118e+06
1.51189e+07
-1.5099e+07
1.31891e+07
-1.31691e+07
716900
-8.65769e+06
8.67554e+06
6.24647e+06
4.4859e+06
-1.37789e+07
1.38001e+07
1.73981e+06
-4.71272e+06
-5.4265e+06
2.09757e+06
19078.4
-18970.2
-1.00158e+07
1.00381e+07
-8.28115e+06
8.30422e+06
1.56848e+06
-1.56665e+06
-3.89715e+06
771664
-770863
-8.31381e+06
-1.14704e+07
5.26972e+06
9.32069e+06
-9.29772e+06
1.11305e+06
-9.60596e+06
1.09297e+06
-968673
-1.05563e+07
-9.37327e+06
9.39008e+06
-4.82472e+06
-2.70665e+06
-1.05282e+07
-1.62919e+07
1.63127e+07
9.5735e+06
1.12465e+07
-1.12265e+07
8.42294e+06
-8.39982e+06
7877.28
-7691.67
5.52359e+06
6.34323e+06
3.81731e+06
1.49727e+07
6.38327e+06
6.57676e+06
-5.49708e+06
-5.32043e+06
1.51605e+07
-1.51397e+07
766483
1.34049e+07
-1.33837e+07
-5.88677e+06
-7.69752e+06
7.71638e+06
-1.29031e+07
5.72487e+06
-1.40108e+07
1.40316e+07
-1.17061e+07
6.28363e+06
9.50846e+06
4.60608e+06
4.60271e+06
-1.12433e+07
1.1265e+07
4.96386e+06
-4.9483e+06
-2.78549e+06
-425009
1.26154e+07
4.76066e+06
-1.26934e+06
-6.62881e+06
6.66288e+06
-2.53436e+06
-1.7135e+07
1.71555e+07
-1.35753e+07
1.35959e+07
1.11789e+06
-2.74591e+06
2.75633e+06
1.48783e+07
-1.03606e+07
7.22632e+06
-1.27759e+06
-1.33866e+07
5.11339e+06
1.42226e+07
245912
1.37275e+06
-381231
-5.20122e+06
-7.72944e+06
9.27111e+06
-9.24793e+06
1.24749e+06
-1.80725e+07
1.80942e+07
9.31307e+06
-9.29198e+06
-6.76878e+06
-4.01985e+06
-2.40899e+06
-1.502e+06
8.75163e+06
1.43162e+07
-1.42951e+07
9.1334e+06
-3.18419e+06
2.35232e+06
-2.09378e+06
208851
-207874
-1.44711e+07
-206841
1.14626e+07
-1.14433e+07
-5.35933e+06
5.36934e+06
-3.57386e+06
3.58273e+06
-9.36753e+06
7.93734e+06
-452514
9.38283e+06
-1.28202e+06
6.83525e+06
-6.81604e+06
-7.58281e+06
-5.97916e+06
5.99228e+06
-7.27287e+06
1.06942e+07
-1.06956e+07
-1.97638e+06
3.81533e+06
-3.42689e+06
5.64529e+06
925461
-2.02881e+06
-4.77344e+06
-1.49595e+07
1.49802e+07
7.76981e+06
-7.71254e+06
7.72844e+06
-1.83922e+07