/*--------------------------------*- C++ -*----------------------------------*\
| =========                 |                                                 |
| \\      /  F ield         | OpenFOAM: The Open Source CFD Toolbox           |
|  \\    /   O peration     | Version:  v3.0+                                 |
|   \\  /    A nd           | Web:      www.OpenFOAM.com                      |
|    \\/     M anipulation  |                                                 |
\*---------------------------------------------------------------------------*/
FoamFile
{
    version     2.0;
    format      ascii;
    class       volScalarField;
    location    "2000";
    object      sigmaxy;
}
// * * * * * * * * * * * * * * * * * * * * * * * * * * * * * * * * * * * * * //

dimensions      [1 -1 -2 0 0 0 0];

internalField   nonuniform List<scalar> 
27023
(
-1.05041e+07
-1.05251e+07
-7.81549e+06
-7.80013e+06
-1.00071e+07
-1.00277e+07
-9.64995e+06
-9.63521e+06
-3.98364e+06
-3.97631e+06
-9.5696e+06
-9.55078e+06
-952109
-955645
-2.09277e+06
7.01599e+06
6.69336e+06
-1.97753e+06
-1.98887e+06
-1.7337e+06
-1.72188e+06
-8.68929e+06
-8.67528e+06
-1.24392e+06
-1.22874e+06
-699794
2.11399e+06
-1.23331e+06
1.91454e+06
-2.39187e+06
-944641
-2.02044e+06
-2.01009e+06
-1.786e+06
-1.50973e+06
-1.629e+06
-1.13852e+06
-1.12228e+06
-3.97908e+06
-3.97234e+06
-7.80933e+06
-7.82471e+06
-1.71571e+06
-1.01338e+07
-1.01547e+07
-1.93024e+06
-1.91886e+06
-1.44583e+06
-1.43427e+06
-2.1629e+06
-911859
-899691
-1.91209e+06
-63690.9
-63542.9
-1.7799e+06
-1.52742e+06
-1.27016e+06
-2.36067e+06
-8.08783e+06
-8.07255e+06
-1.48224e+06
-1.80697e+06
-922946
-2.48669e+06
-698264
-1.60415e+06
-439994
2.29439e+06
-2.2957e+06
-1.37884e+06
-1.36258e+06
-3.10201e+06
-3.08726e+06
-1.10086e+06
-1.09999e+06
-258320
-256713
-3.94069e+06
-3.94632e+06
522604
-9.08746e+06
-9.06875e+06
-3.39835e+06
-3.38363e+06
-552514
-552180
-1.58964e+06
-2.2637e+06
-2.14327e+06
-2.10533e+06
-1.02712e+07
-1.02495e+07
5.13612e+06
-1.48921e+06
-637220
-650283
899858
-2.52166e+06
-2.70846e+06
-1.61411e+06
-397654
-396523
-6.17528e+06
-6.15936e+06
-1.81208e+06
-6.25702e+06
-6.24373e+06
-1.84927e+06
-1.43882e+06
-2.71342e+06
-6.55137e+06
-6.53779e+06
-642476
-628843
-709510
-708422
1.73255e+06
77481.2
-1.26486e+06
-1.82026e+06
-1.45028e+06
-1.94528e+07
-1.94791e+07
-9.20554e+06
-9.19361e+06
-9.90834e+06
-9.88673e+06
-6.66147e+06
-6.64508e+06
-1.5832e+06
-1.0692e+06
-1.06904e+06
-1.22719e+06
-2.12544e+06
-20689.9
-20373.2
1.92524e+06
-2.2106e+06
-2.20162e+06
-1.0702e+07
-1.07197e+07
1.85541e+06
-9.44822e+06
-9.4327e+06
-855050
-1.78418e+06
-218030
-2.07383e+06
-1.54777e+07
-1.54499e+07
-1.31598e+07
-1.31361e+07
-2.43833e+06
-1.015e+06
-684152
-684422
-1.77865e+06
-2.26339e+06
-2.25479e+06
-1.47537e+06
-2.28192e+06
-1.18322e+06
-2.57487e+06
-1.38267e+07
-1.38482e+07
-9.66402e+06
-9.68247e+06
1.1882e+06
1.3049e+06
-2.89205e+06
-4.89893e+06
-4.90522e+06
-2.19772e+06
-2.06032e+06
-1.96846e+06
-1.79495e+06
1.7011e+06
-2.39898e+06
2.52078e+06
-2.06486e+06
-9.99227e+06
-1.00098e+07
-1.77446e+06
-1.71515e+06
-1.44802e+06
-627074
-639407
-1.29558e+06
-2.4035e+06
-1.05408e+07
-1.05598e+07
1.69236e+06
-2.24158e+06
-9.35841e+06
-9.3462e+06
-637514
-1.10088e+07
-1.10281e+07
315689
-2.16338e+06
2.03374e+06
-767596
-762660
-9.53486e+06
-9.55509e+06
-428214
-1.49386e+06
-390831
-386394
-136962
-135739
5.81291e+06
-931508
-3.77357e+06
-3.78016e+06
1.42969e+06
1.77923e+06
-2.71765e+06
-2.16142e+06
-2.16445e+06
-1.3827e+06
-1.89084e+07
-1.89341e+07
-1.39451e+06
-3.03587e+06
-3.02998e+06
-3.46264e+06
-3.44671e+06
-1.93439e+06
-1.93199e+06
-2.16969e+06
-2.41993e+06
-2.4146e+06
-1.382e+06
-1.78874e+06
-1.78536e+06
-234014
-1.77642e+06
-1.09937e+07
-1.10081e+07
1.65836e+06
-1.58422e+06
-1.67998e+06
-2.08616e+06
5.09318e+06
-2.91889e+06
3.00338e+06
-900082
-1.74211e+06
-4.94072e+06
-4.94988e+06
-2.34915e+06
4.66527e+06
-491611
-1.02731e+06
-1.22939e+06
-692805
-2.21175e+06
-2.20238e+06
2.37409e+06
3.56042e+06
108084
-1.34053e+06
-1.33728e+06
-9.29586e+06
-9.28085e+06
-1.61721e+06
5.06074e+06
-1.71306e+07
-1.71069e+07
-1.0996e+06
-1.63766e+06
-1.43624e+06
-1.64134e+06
-2.14768e+06
-1.33613e+07
-1.33821e+07
-1.70312e+06
-1.71452e+06
-2.01816e+06
-1.76922e+06
-2.38304e+06
-2.25069e+06
-68517
-68384.8
-1.97428e+06
-1.73384e+06
6.96243e+06
-3.12219e+06
-1.28007e+06
-2.37622e+06
-3.59641e+06
-3.60408e+06
-803435
-803850
-1.75362e+06
-1.68044e+06
-763535
-765181
-1.1539e+06
6.52231e+06
-8.32743e+06
-8.34481e+06
-321170
-4.79827e+06
-4.78446e+06
1.15396e+06
-2.17898e+06
-2.89041e+06
-1.62729e+06
2313.06
1646.52
-1.7233e+06
-1.72166e+06
-2.04805e+06
-1.95082e+06
-1.96541e+06
-354159
-2.32897e+06
-1.63777e+06
-1.64164e+06
1.13306e+06
3.5116e+06
801354
-2.40949e+06
-482805
-2.07461e+06
740370
-2.5202e+06
3.29219e+06
-2.47765e+06
-719329
-1.46935e+06
-1.52185e+06
-1.46858e+07
-1.47131e+07
-1.02186e+06
6.14401e+06
-5.10599e+06
-5.09117e+06
-642157
-636435
-128498
-127357
2.85754e+06
-1.19009e+07
-1.18781e+07
-1.13524e+06
-1.49277e+06
-1.95907e+06
-1.969e+06
-2.61087e+06
-2.60588e+06
-5547.42
-5531.27
7.7213e+06
-4.31214e+06
-4.3191e+06
-1.87059e+06
-349906
-537368
-541013
-1.4331e+07
-1.43512e+07
-2.48677e+06
-2.20329e+06
6.40353e+06
-1.18996e+07
-1.19232e+07
-3.93209e+06
-3.93754e+06
5.68321e+06
-1.82375e+06
945197
-1.49825e+06
-1.56491e+06
509772
-694853
-980851
-1.72084e+06
-966588
-8.75197e+06
-8.73833e+06
2.77479e+06
1.22554e+06
-1.68829e+06
-1.82634e+06
-811654
2.55255e+06
3.63792e+06
-1.95211e+06
-380730
-2.79239e+06
6.9895e+06
-2.61158e+06
-1.62725e+06
-1.50087e+06
-544988
-1.49945e+06
-3.81544e+06
-3.79932e+06
4.73198e+06
1.6726e+06
-1.371e+06
-1.1684e+07
-1.17074e+07
451499
-2.09516e+06
-155698
-645118
-47781.5
-294757
-292465
-2.50379e+06
-1.47674e+06
-3.25455e+06
-1.8058e+06
-1.57352e+06
-1.54731e+06
2.2193e+06
-1.13738e+06
2.82933e+06
1.70356e+06
-1.35918e+06
-788132
-1.0261e+06
-1.02977e+06
-369836
-2.66143e+06
-1.29178e+06
1.46046e+06
-1.05028e+06
-1.04744e+06
-2.54609e+06
-2.55966e+06
-1.32355e+06
2.57976e+06
-5.15111e+06
-5.14289e+06
-216729
-214731
-2.15817e+06
-2.14714e+06
-157126
-158562
2.01981e+06
-2.16691e+06
-1.95492e+06
6.48631e+06
5.43905e+06
-1.30153e+07
-1.30356e+07
-1.33298e+07
-1.33502e+07
-1.60289e+06
-1.58132e+06
-1.57756e+07
-1.57479e+07
2.7333e+06
2.14505e+06
-1.18465e+06
-2.09748e+06
2.9332e+06
-402530
-2.10718e+06
-9.83458e+06
-9.84811e+06
-1.31188e+06
-1.43865e+06
-2.326e+06
-1.48113e+06
-1.67059e+06
1.28405e+06
-733815
-3.6604e+06
-3.65127e+06
-629218
-838419
-6.63337e+06
-6.61881e+06
-2.89733e+06
-2.892e+06
-1.25971e+06
3.4169e+06
-538482
2.74119e+06
-40138.1
-2.29985e+06
-1.09144e+07
-1.09334e+07
-1.95912e+06
-3.20614e+06
-965615
-1.51931e+06
-1.5346e+06
-1.27687e+07
-1.27439e+07
3.64795e+06
-497473
-2.17327e+06
-6.70948e+06
-6.72793e+06
-1.81978e+06
6.54345e+06
-819542
-807747
831061
-1.60851e+07
-1.60641e+07
-9.81081e+06
-9.79187e+06
-395854
-1.83798e+07
-1.84063e+07
-1.70789e+06
-1.39058e+06
-1.28481e+06
-1.27972e+06
-1.8309e+06
-1.18226e+06
-1.1839e+06
-953415
-4.18437e+06
-4.1955e+06
-2.12272e+06
-2.13611e+06
-1.0822e+06
-2.04422e+07
-2.04097e+07
-1.40664e+06
-1.89248e+06
-1.29827e+06
1.14074e+06
-2.66599e+06
-2.64831e+06
-4.62574e+06
-4.63298e+06
-2.11211e+06
-1.6238e+06
516256
-1.37012e+06
426991
1.30597e+06
-2.46557e+06
-5.01213e+06
-5.02022e+06
-828959
-362705
-363378
-2.21114e+06
-904412
-4.71967e+06
-4.73444e+06
-948086
-1.319e+06
-1.33355e+06
363957
3.07551e+06
-1.85171e+06
2.14637e+06
-2.24973e+06
-824519
-812929
-1.64441e+06
7.36152e+06
-2.35713e+06
-2.34954e+06
-2.24566e+06
-2.10138e+06
-2.1112e+06
-1.68033e+06
-1.47716e+07
-1.47442e+07
-1.06529e+07
-1.06721e+07
-1.70593e+07
-1.70898e+07
-1.26278e+06
998151
960712
-2.01104e+06
-1.6039e+07
-1.60675e+07
-1.60651e+06
5.08326e+06
688736
-1.98942e+06
7.12963e+06
-1.25955e+06
6.33918e+06
-294925
-700122
-686302
-2.35836e+06
-587976
-574676
-2.3175e+06
-2.89225e+06
-2.90748e+06
-1.66607e+06
-2.52424e+06
-1.60039e+06
-1.60989e+06
-1.236e+06
-1.23228e+06
-970984
2.2513e+06
1.52102e+06
-3.18651e+06
-3.17609e+06
-1.92012e+06
-1.91642e+06
-2.55233e+06
-2.4037e+06
-883078
-884402
-317890
-299324
-246839
-8445.39
-92045.2
-92901.2
-8619.05
-1.83329e+06
-874180
-876681
-1.40176e+07
-1.40435e+07
-1.0033e+07
-1.00543e+07
-1.51441e+07
-1.5116e+07
4.41158e+06
-2.31384e+06
-2.29712e+06
-1.64029e+06
-2.93107e+06
-2.11367e+06
-2.13039e+06
-1.90717e+06
-2.70947e+06
-2.69752e+06
-1.58792e+06
-1.72554e+06
-1.04917e+06
-1.64854e+07
-1.65152e+07
-1.89259e+06
-2.52232e+06
1.65717e+06
-2.82837e+06
-3.92935e+06
-3.94048e+06
7.22887e+06
92027.1
-3.77106e+06
-3.77727e+06
-175443
-177012
-2.17035e+06
-2.14801e+06
-1.61429e+06
-1.48345e+06
-654734
-654005
648588
-709749
4.20834e+06
-388995
-1.02505e+06
-2.17872e+06
-1.8591e+06
-1.18762e+06
1.62342e+06
-1.77922e+06
-1.49412e+06
-1.47145e+06
-1.24113e+06
3.33918e+06
-2.34537e+06
-86876
-87304.5
-2.94383e+06
-2.92885e+06
528977
114263
-2.08735e+06
-1.22338e+06
-446513
-1.36938e+06
-225867
-1.65754e+06
-412896
-202599
2.21475e+06
-8.48429e+06
-8.46447e+06
1.23993e+06
-1.24057e+06
-2.41023e+06
-2.38368e+06
-3.93935e+06
-3.93075e+06
-396486
-398664
-22343.6
-22113.7
-1.52427e+06
5.93576e+06
-1.49345e+06
2.96218e+06
-210869
-222172
-1.53008e+06
-4.00558e+06
-3.99971e+06
-1.53878e+06
-1.54172e+06
-945363
-3.68581e+06
-3.6736e+06
5.80986e+06
-1.43364e+06
-1.83636e+06
-2.59658e+06
-1.92113e+06
-1.9155e+06
-1.78314e+06
-1.77764e+06
-1.60644e+06
372176
-1.34629e+07
-1.34434e+07
-1.42495e+06
-655636
3.05108e+06
-653519
-1.49686e+06
-1.46085e+06
-1.78289e+06
1.49616e+06
-1.99702e+06
6.91334e+06
-2.01303e+06
1.27865e+06
-352441
-594221
-5.73546e+06
-5.718e+06
-624298
-625150
-2.47196e+06
-1.74826e+06
-3.75272e+06
-3.763e+06
-1.63686e+06
-1.40548e+06
-2.27072e+06
-1.36774e+06
-2.23105e+06
-1.1882e+07
-1.18592e+07
-2.05216e+06
-779488
-770183
-864291
-866000
-1.28257e+06
-2.2544e+06
-1.87819e+06
-355531
-9.84449e+06
-9.82643e+06
-2.02919e+06
3.34042e+06
-2.50954e+06
-1.49152e+06
-1.62261e+06
2.60207e+06
2.59131e+06
3.08169e+06
-2.21031e+06
-1.22388e+06
-1.22252e+06
-1.13782e+07
-1.13589e+07
-1.9504e+06
-1.87974e+06
-992315
5.36197e+06
-1.57159e+06
-1.5693e+06
-1.57628e+06
-1.78303e+06
-1.50647e+06
-1.42701e+06
-1.40565e+06
-2.26845e+06
-2.26384e+06
-1.64333e+06
-1.56225e+06
-1.00897e+07
-1.00737e+07
1.39875e+06
-2.63396e+06
3.4151e+06
-2.90205e+06
-2.8985e+06
-5.04468e+06
-5.05966e+06
1.37745e+06
-8.4233e+06
-8.44283e+06
-1.53217e+06
-1.87927e+06
-2.60764e+06
-2.87343e+06
-1.64534e+06
-1.64116e+06
-2.73597e+06
-1.89381e+06
-1.91009e+06
-229355
-227715
1.70204e+06
1.59562e+06
-1.65229e+07
-1.64944e+07
-1.18276e+07
-1.18461e+07
-838832
-1.13141e+06
-1.13482e+07
-1.13311e+07
-1.17247e+06
1.44918e+06
-1.33454e+07
-1.33207e+07
-1.52793e+06
-1.51864e+06
-3.9941e+06
-4.17921e+06
-4.18921e+06
-78844.8
-78855.8
-4.00878e+06
-2.30277e+06
-1.61461e+06
-1.72678e+06
-1.91627e+06
-1.90751e+06
-563207
2.00031e+06
-1.91169e+06
-563213
400014
658277
-2.3079e+06
-321291
-311838
2.06872e+06
1.9337e+06
-1.49088e+06
-237932
-246530
-2.56669e+06
-242271
-107152
-107312
2.61615e+06
1.92355e+06
-2.53119e+06
-1.01266e+07
-1.01104e+07
-3.50178e+06
-1.11814e+06
-3.80503e+06
-1.19356e+06
-1.72348e+07
-1.7205e+07
-1.38809e+06
2.97867e+06
-3.4911e+06
-2.06575e+06
-2.02296e+06
-3.81924e+06
-1.68274e+06
-1.29487e+07
-1.29247e+07
-1.0425e+06
-1.04947e+06
-1.39889e+06
994474
-1.62943e+06
-1.03635e+07
-1.03443e+07
-2.70261e+06
-2.71067e+06
5.87873e+06
-1.396e+06
-2.20711e+06
-2.19787e+06
-2.13301e+06
-4.053e+06
-4.04488e+06
-2.09594e+06
-2.73295e+06
-666183
-2.04209e+06
-1.99815e+06
-1.48567e+06
-1.55585e+06
-1.59216e+06
-1.72233e+06
-1.91873e+06
-1.91582e+06
-2.61856e+06
4.87204e+06
-852408
-1.70837e+06
-2.75487e+06
7.23892e+06
987686
-2.46431e+06
-2.63959e+06
6.27095e+06
2.69718e+06
3.0439e+06
694809
-49575.9
-2.62164e+06
-1.97624e+06
-5.2442e+06
-5.2527e+06
2.93466e+06
-3.85528e+06
-3.86267e+06
-2.0536e+06
-723074
-2.37373e+06
-2.35597e+06
1.45011e+06
-3.11123e+06
-3.10256e+06
3.67356e+06
-2.0543e+06
-2.75448e+06
-4.00881e+06
-329291
3.4236e+06
122086
831901
-2.51009e+06
-1.67941e+06
-1.13507e+07
-1.1328e+07
-1.86811e+06
2.62578e+06
-698797
-698640
-1.36285e+06
-1.97948e+06
-1.0473e+06
-1.97077e+06
-1.66902e+06
-1.67398e+06
-1.33842e+06
434062
-2.19052e+06
-204775
-204707
-620171
-1.64745e+06
6.17696e+06
-1.76788e+06
4.3124e+06
-1.81377e+06
3.12454e+06
-2.22564e+06
-1.31812e+06
-1.32829e+06
-1.58374e+06
-1.29833e+06
4.6511e+06
4.6361e+06
-2.15117e+06
-1.03107e+07
-1.03287e+07
2.28938e+06
-1.39457e+06
-1.47271e+06
-5.46283e+06
-5.4717e+06
-2.48604e+06
6.29263e+06
-2.53827e+06
-3.28069e+06
-3.2884e+06
-905563
454932
438361
-1.03781e+07
-1.03615e+07
-2.12444e+06
-2.02642e+06
-257951
-257501
1.38662e+06
-1.04561e+06
-2.26637e+06
-1.26202e+06
-1.25914e+06
-2.3229e+06
-1.64148e+07
-1.63944e+07
-2.80376e+06
-2.37002e+06
-984695
-7.53908e+06
1.10088e+06
-2.54334e+06
-7.55706e+06
-695355
-270652
-1.34447e+06
-1.54952e+06
-1.56339e+06
632543
573852
-1.24543e+06
1.83135e+06
-2.09316e+06
-1.40506e+06
-2.68774e+06
-2.07763e+06
1.15509e+06
-2.3166e+06
-2.42083e+06
6.17954e+06
409436
4.24953e+06
-421503
-1.39502e+06
-1.11738e+06
-1.32209e+06
5.04703e+06
-1.49714e+06
-1.58882e+06
-2.0298e+07
-2.03301e+07
6.35471e+06
-2.94181e+06
-1.26505e+06
-1.27094e+06
-2.63224e+06
-2.62418e+06
-810979
-2.13556e+06
-1.12744e+06
-2.62514e+06
-2.63312e+06
-1.47736e+06
-1.47538e+06
-2.41983e+06
5.92886e+06
-2.4107e+06
5.72686e+06
-1.71996e+06
7.59648e+06
2.15973e+06
3.2546e+06
-1.13578e+06
-1.80892e+06
-1.79217e+06
1.40679e+06
1.46705e+06
3.23477e+06
-1.58593e+06
-914468
-912456
6.12402e+06
581177
2.73025e+06
-1.95424e+06
-1.24038e+06
-2.3788e+06
-898395
-1.61014e+06
-1.42975e+06
-1.98254e+06
-2.63155e+06
-1.21566e+06
-2.6246e+06
-2.6077e+06
-1.55444e+06
2.38544e+06
-2.43747e+06
-1.43408e+06
-1.12517e+06
-135730
-135525
3.04705e+06
-100794
-3.31387e+06
-3.3197e+06
-4.31226e+06
-4.30477e+06
5.49261e+06
-2.65514e+06
-2.45839e+06
-80100.9
-1.40132e+07
-1.4034e+07
-4.86834e+06
-4.85598e+06
5.63508e+06
-1.50624e+06
-1.50333e+06
-1.09377e+06
-895691
-750894
-115470
-114367
3.40593e+06
4.29141e+06
319931
-1.59667e+06
-8.81963e+06
-8.83741e+06
2.7056e+06
-1.49899e+06
-1.6669e+06
-2.30782e+06
-2.37081e+06
-1.01301e+06
1.46509e+06
1.47995e+06
-1.67866e+06
-1.68162e+06
-642581
281507
267125
-3.22893e+06
-3.23609e+06
-424421
-1.89086e+06
-1.38373e+06
-2.02078e+06
-6.28212e+06
-6.26617e+06
2.25571e+06
5.19467e+06
-660376
-2.29228e+06
-1.20479e+07
-1.20719e+07
-1.54559e+06
-1.1246e+06
-523749
-3.0073e+06
-3.00025e+06
-1.80104e+06
642659
-2.14338e+06
-2.87178e+06
-1.41818e+07
-1.41624e+07
-2.20339e+06
-2.61107e+06
-2.59846e+06
-2.14174e+06
-826208
-716018
-567251
2.28726e+06
-1.96739e+06
-2.41941e+06
-1.55857e+06
-1.43325e+06
3.20441e+06
1.87543e+06
-92821.4
-92531.9
-843435
-4.48982e+06
-4.48107e+06
-1.09592e+07
-1.09398e+07
-2.17066e+06
-1.32729e+07
-1.32533e+07
-1.70358e+07
-1.70611e+07
-54855.6
-54789.1
-1.79395e+06
-843939
-842290
-1.54522e+06
-1.54738e+06
-1.15807e+06
-1.38902e+06
-2.21998e+06
-2.57524e+06
-1.21537e+06
-1.1988e+06
-5.71345e+06
-5.73056e+06
-1.40847e+06
-1.33096e+06
3.26187e+06
-997635
-1.76834e+06
-1.54368e+06
-1.69186e+06
6.97234e+06
-1.7487e+06
-2.61376e+06
-2.60969e+06
-1.06582e+06
1.42838e+06
-1.14422e+06
-1.38088e+06
2.15441e+06
4.14776e+06
-359446
-350333
1.89324e+06
-1.47484e+06
484427
456269
-1.86836e+06
-1.74611e+06
-14637.7
-880833
-894050
-1.86045e+06
2.99192e+06
-434226
-6.06299e+06
-189155
-12588.6
-6.08164e+06
-1.83694e+06
-1.62843e+06
597714
-1.51061e+06
2.16883e+06
-2.01375e+06
-2.06946e+06
-2.24329e+06
-2.58095e+06
-2.17851e+06
-1.33705e+06
-418721
-1.74769e+06
-1.65184e+06
-1.64265e+06
-1.34527e+06
6.32366e+06
1.64226e+06
3.19525e+06
-1.24329e+06
-5.10649e+06
-382757
316332
-1.68939e+06
-1.93533e+06
-5.12718e+06
-2.56461e+06
-2.12304e+06
-1.9423e+06
-2.54028e+06
-315224
-381166
-1.86209e+06
-197319
-196045
-1.08515e+06
-1.00824e+07
-1.01011e+07
2.1696e+06
-8.74913e+06
-8.73041e+06
6.70391e+06
-1.13532e+07
-1.13315e+07
-1.44977e+06
-878228
-1.21875e+06
86421.4
89515.1
-2.75023e+06
-1.33268e+06
-668256
-1.67667e+06
-1.03104e+07
-1.02912e+07
-3.95701e+06
1.75287e+06
2.59942e+06
-1.39434e+06
-1.58748e+06
-1.56757e+06
-35445.9
-35114.1
2.31077e+06
-1.84016e+06
-1.68452e+07
-1.68159e+07
-4.47335e+06
-4.45977e+06
-953635
-1.60395e+06
-1.1594e+06
-4.62336e+06
-4.60699e+06
-2.52609e+06
-178925
-179127
-1.52646e+06
-1.52035e+06
-4.39751e+06
-4.40887e+06
-826227
-1.29213e+06
-1.28911e+06
-1.01042e+07
-1.00876e+07
-2.05409e+06
-2.12657e+06
-100365
-757806
2.77625e+06
1.97016e+06
-752259
1.07146e+06
533658
-2.00845e+06
-2.14867e+06
-1.90549e+06
-1.5165e+06
-1.51307e+06
456756
-1.73706e+07
-1.73959e+07
-5.87368e+06
-5.86167e+06
2.31069e+06
-2.46399e+06
-2.47835e+06
-1.1717e+06
-1.1541e+06
-1.60595e+06
-1.07707e+06
-1.05364e+06
-2.46574e+06
-398177
-398703
-2.05927e+06
-1.35785e+06
-1.61596e+06
6.70775e+06
1.2151e+06
1.27712e+06
-1.81782e+06
-1.55113e+06
3.13612e+06
-2.32607e+06
6523.59
6442.45
-5.8966e+06
-5.90626e+06
-1.63998e+06
-1.52332e+06
-1.48814e+07
-1.48613e+07
-1.78609e+06
-245778
-2.5028e+06
252153
67091.9
1.94947e+06
1.86626e+06
-1.24802e+06
-2.54204e+06
-1.28707e+07
-1.28893e+07
-1.55387e+06
-1.56645e+06
-2.17127e+06
-2.1805e+06
-932790
-926360
-2.21413e+06
-1.34062e+06
-1.64956e+06
-2.18902e+06
-227016
5.87477e+06
-1.46626e+06
-1.46481e+06
-2.05048e+06
-1.63666e+06
-1.83783e+06
-6.8156e+06
-6.83415e+06
3.77268e+06
-2.21455e+06
-1.04139e+06
-2.6806e+06
-2.6687e+06
742364
7.29305e+06
-1.98867e+06
-1.99971e+06
4.2296e+06
-2.59473e+06
-2.61093e+06
-1.41926e+06
-961057
1.32089e+06
-1.15618e+06
-1.06284e+06
-1.03745e+06
-567503
-686259
-1.21376e+07
-1.21149e+07
-2.13555e+06
-1.27231e+07
-1.26988e+07
2.01727e+06
-3.33537e+06
-3.32312e+06
-1.18274e+07
-1.18508e+07
-1.90773e+06
-4.22082e+06
-4.23824e+06
-1.87784e+06
-1.88631e+06
-990033
1.76154e+06
-1.24114e+06
-1.45709e+07
-1.45442e+07
-1.32218e+06
-1.66834e+06
285750
278098
-2.57143e+06
-1.88595e+07
-1.88344e+07
2.24087e+06
-2.02409e+06
-1.14764e+06
-1.14642e+06
-205864
-204959
-3.54682e+06
-4.62058e+06
-4.60687e+06
-1.07604e+06
-967943
-951542
-2.72624e+06
-2.72155e+06
4.84825e+06
-528470
-1.82251e+07
-1.82006e+07
-7.43859e+06
-7.4496e+06
1.65969e+06
4.37028e+06
-4.71341e+06
-4.72088e+06
-1.52321e+06
-80474.2
-79663.5
-809258
-809419
3.42978e+06
-6.74046e+06
-6.72871e+06
-1.28385e+06
-3.9741e+06
-3.98601e+06
493911
6.29541e+06
-2.10119e+06
-2.10571e+06
-1.36692e+07
-1.36898e+07
-1.14966e+06
6.07054e+06
-1.05131e+06
4.32252e+06
-1.77227e+06
891253
3.41799e+06
2.38086e+06
-2.32854e+06
-2.35338e+06
-2.27438e+06
-2.28144e+06
-1.12795e+06
-1.12553e+06
-1.35266e+06
-2.08875e+06
-2.73706e+06
7.32975e+06
-497019
-2.01174e+06
-1.37997e+06
-1.16096e+06
-1.85485e+06
-2.09616e+06
-2.08343e+06
-1.37823e+07
-1.38085e+07
2.06135e+06
-2.482e+06
-510846
4.77471e+06
6.02308e+06
-1.53701e+06
1.0676e+06
-1.07316e+06
-1.52482e+06
-1.50575e+06
3.57951e+06
-1.05236e+06
-1.06506e+06
-404338
-1.80674e+07
-1.80906e+07
-9.49038e+06
-9.5081e+06
5.14288e+06
-3.1127e+06
-3.12788e+06
-6.11139e+06
-6.10351e+06
-4.52951e+06
-4.51308e+06
-1.67483e+07
-1.67185e+07
-1.06402e+06
21030.7
-1.47544e+06
-1.94488e+06
-1.16786e+07
-1.17018e+07
-3.27727e+06
-3.2927e+06
-1.0853e+06
-1.09033e+06
490693
-708055
-706822
-2.13807e+06
-1.75539e+06
-1.63992e+06
2.28428e+06
-2.0065e+06
-1.92121e+06
-1.44767e+06
52991.1
68266.8
-2.19845e+06
-2.18781e+06
-2.13002e+06
-1.19044e+06
-1.19026e+06
-702013
-1.72898e+06
2.4964e+06
-1.76356e+06
-1.53527e+06
-1.12924e+06
-1.86241e+06
-8.1875e+06
-8.17156e+06
-2.67018e+06
-2.66297e+06
-1.25517e+07
-1.25278e+07
-1.74143e+06
-2.55002e+06
-910134
3.76432e+06
1.56776e+06
-1.15888e+06
-1.31673e+06
-2.53059e+06
-294510
-154307
-154647
-1.91916e+06
-1.91717e+06
-1.4999e+06
3.29506e+06
-2.13665e+06
-2.15931e+06
-1.80557e+07
-1.8024e+07
-605808
-603535
-308484
-908517
-910254
393770
734469
582977
-1.35412e+06
-1.35766e+06
-2.12392e+06
-1.80301e+06
-8.80903e+06
-8.79138e+06
-779326
-817807
-1.75668e+06
-2.64094e+06
-2.1872e+06
-1.57599e+06
1.77126e+06
1.80097e+06
-1.50644e+07
-1.50388e+07
-1.7337e+06
-2.48902e+06
-2.48321e+06
-1.05247e+07
-1.05057e+07
-389046
921137
961755
-8.63117e+06
-8.65126e+06
1.59081e+06
-1.38423e+06
126423
-897362
-913684
-4.6683e+06
-4.67568e+06
7.55135e+06
-26505.8
-1.98679e+06
-2.00124e+06
-1.30768e+06
-1.81179e+06
-6.81104e+06
-6.82235e+06
-2.28224e+06
-1.15195e+06
-1.15759e+06
-2.34283e+06
-4.60347e+06
-3.49079e+06
-3.50471e+06
2.82426e+06
-3.76693e+06
-3.75401e+06
6.49152e+06
-337386
-4.62007e+06
-1.81521e+06
-1.8284e+06
-1.42811e+06
-530184
1.36182e+06
-2.52467e+06
-2.52011e+06
2.36912e+06
-1.89602e+06
-1.81868e+06
-1.80717e+06
-708361
-1.68081e+06
-1.67104e+06
-3.55402e+06
-1.58531e+06
-1.56276e+06
-1.83925e+06
-1.82758e+06
6.01184e+06
-948468
-1.6182e+06
-1.23602e+06
-1.86689e+06
802658
-558993
-2.5965e+06
3.09731e+06
-1.17787e+06
-1.1184e+06
-1.61831e+07
-1.61602e+07
-4.35366e+06
-1.36959e+06
-1.36846e+06
-7.84017e+06
-7.82175e+06
-704749
-9.97464e+06
-9.99366e+06
-1.49072e+06
-189920
-2.56801e+06
-335057
-335079
2.94157e+06
-2.57119e+06
-2.58058e+06
159248
-1.86176e+06
490439
6.9255e+06
-1.34929e+06
-2.33273e+06
-3.90546e+06
-3.92307e+06
-1.47715e+07
-1.47446e+07
-1.94634e+06
-2.67911e+06
-2.66392e+06
-5.05967e+06
-5.07654e+06
-2.5521e+06
-3.10864e+06
-3.10188e+06
-1.3253e+06
-1.409e+06
-1.41071e+06
-2.31089e+06
860583
-2.19838e+06
-1.83855e+06
-1.84983e+06
-1.30894e+06
-1.29043e+06
-504414
-2.37922e+06
-1.769e+06
-1.6873e+06
-1.92642e+06
-2.09546e+06
-1.90682e+06
-2.16526e+06
-1.23363e+06
5.96473e+06
-1.34558e+06
-1.32785e+06
2.61545e+06
-8.02693e+06
-8.01086e+06
-1.15894e+06
-1.1411e+06
-1.26232e+06
-133172
-1.47216e+06
398133
1.9224e+06
1.99697e+06
-588768
-1.6259e+06
-1.76403e+06
2.13125e+06
-2.02982e+06
-2.61158e+06
-2.0894e+06
-2.13934e+06
-2.14807e+06
-388880
-376779
-229035
-203625
4.42067e+06
-1.72383e+06
-1.74066e+06
-2.32101e+06
-1.8606e+06
-1.13351e+06
-3.85421e+06
-3.86766e+06
166999
-1.96099e+06
-1.71654e+06
-2.29285e+06
-892375
-1084.93
-1250.88
-1.23714e+06
-2.97055e+06
-1.61483e+06
499023
-1.73968e+06
-6.13163e+06
-6.11536e+06
-3.01724e+06
-3.03469e+06
3.09877e+06
-1.12442e+06
-1.10076e+06
-1.09863e+06
-1.89148e+06
-1.90835e+06
-1.74093e+06
4.83071e+06
-2.3689e+06
-1.80027e+06
-2.3319e+06
-2.09186e+06
-1.55395e+06
-1.23497e+06
-1.31899e+06
-1.69672e+07
-1.69975e+07
-1.91332e+06
-1.14529e+07
-1.14302e+07
-908363
-889795
-184114
-830229
-847189
1.06777e+06
5.76143e+06
-2.36996e+06
5.15572e+06
-264587
-3.46812e+06
-3.462e+06
1.5741e+06
-283533
-2.21713e+06
-2.22817e+06
-926218
-2.60982e+06
-1.44354e+06
-2.02573e+06
-1.31492e+07
-1.31241e+07
-1.29561e+06
-1.12983e+07
-1.1317e+07
70752.8
-2.16263e+06
698583
-1.43166e+06
-1.65297e+06
-1.6397e+06
-1.0852e+06
-1.18496e+06
-2.1324e+06
-1.14928e+06
-1.15642e+06
-2.18736e+06
-2.19061e+06
1.65304e+06
1.71372e+06
-1.85515e+06
5.49029e+06
-1.94771e+06
-2.27617e+06
-2.06941e+06
-2.06985e+06
-1.5161e+06
-2.56275e+06
-2.84332e+06
-2.85949e+06
-2.44657e+06
-44955.4
-2.97541e+06
-2.98953e+06
-1.72337e+06
282047
-1.50992e+06
2.82357e+06
290745
-1.01966e+06
-1.02531e+06
-1.70541e+06
-591805
-3.90274e+06
-3.92103e+06
2.26127e+06
-1.59427e+06
-1.92714e+06
-36325.3
-35939.8
1.13719e+06
-9.54602e+06
-9.52717e+06
-2.49385e+06
3.58886e+06
-1.61081e+06
-1.10261e+06
-1.14785e+06
280022
-45323
-233582
-233999
-2.76352e+06
-2.15703e+06
-1.54074e+06
-205429
-204755
784990
-2.08352e+06
-2.09615e+06
-1.12769e+07
-1.12596e+07
-1.65749e+07
-1.66047e+07
-2.21911e+06
-1.23762e+06
-1.23227e+06
-2.27823e+06
-2.8027e+06
4.59195e+06
-1.80222e+06
2.04817e+06
3.14816e+06
-1.00879e+06
-982346
-2.8152e+06
-2.82481e+06
-2.25728e+06
2.60322e+06
55611.1
-850994
-1.64857e+06
-222588
-1.16878e+06
-2.1063e+06
-1.71362e+07
-1.71145e+07
-1.25756e+06
-2.30963e+06
-2.17633e+06
-2.18739e+06
-1.95773e+06
-784309
427752
-2.32522e+06
10468.3
10241.4
-2.32417e+06
-3.41166e+06
-3.40399e+06
2.82792e+06
-8.02429e+06
-8.04164e+06
-950522
-173363
-2.04965e+06
-183757
8879.64
20636.6
-1.3542e+06
4.84241e+06
-1.22384e+06
-2.3395e+06
-8.40602e+06
-8.42377e+06
-782110
-608076
324475
-1.11629e+06
-1.10517e+07
-1.10669e+07
-1.24606e+07
-1.24371e+07
-711186
-1.25814e+06
-2.31432e+06
-1.25889e+06
-1.275e+06
-569695
-568803
-1.78851e+06
-2.83949e+06
-2.5447e+06
-330606
-731552
-1.07253e+06
-2.60238e+06
-2.61602e+06
-795314
-1.63751e+06
1.28445e+06
-977768
-983323
1.51462e+06
-2.33687e+06
-2.3261e+06
-1.26928e+06
-1.51878e+06
-1.52099e+06
-312856
-310339
-1.51042e+06
2.23055e+06
-625853
-2.12882e+06
-1.62849e+06
-1.65324e+06
-1.71212e+06
-4.38658e+06
-855992
2.66624e+06
-2.30819e+06
-2.00549e+06
-2.00928e+06
-1.16477e+06
-1.99831e+07
-2.00157e+07
-1.00334e+07
-1.0048e+07
-627694
-70285.2
-69545
-1.37919e+06
-1.30704e+06
-1.30855e+06
-1.84048e+06
-1.85235e+06
-4.36577e+06
-4.37224e+06
-2.08032e+06
2.30878e+06
-2.14977e+06
-2.14262e+06
-2.19535e+06
-2.56253e+06
-2.6312e+06
-2.61833e+06
-1.84353e+06
-1.14135e+06
-5.09698e+06
-5.08172e+06
-2.61778e+06
-5.08809e+06
-5.07778e+06
-1.17519e+06
3.90994e+06
-1.84219e+06
-1.61298e+07
-1.6109e+07
-465013
-2.01662e+06
-2.0046e+06
-6.87502e+06
-6.89259e+06
-2.84885e+06
-2.8438e+06
2.95767e+06
-1.70047e+06
-3.28385e+06
-3.29079e+06
-2.36342e+06
-2.37381e+06
41228.9
-3.21076e+06
3.75426e+06
-1.73838e+06
-672144
423528
-1.66235e+07
-1.66001e+07
-3.45086e+06
-3.43935e+06
-9.98482e+06
-9.99767e+06
-2.33703e+06
-1.40662e+06
-1.31765e+06
-3.0993e+06
-3.08969e+06
1.56408e+06
-418267
-421588
-2.45766e+06
-1.46604e+06
-1.63598e+06
-1.62181e+06
451715
-1.59955e+06
-1.77042e+06
-921048
-921712
-1.9163e+06
1.03317e+06
1.03752e+06
-2.12333e+06
-1.63264e+06
-1.82143e+06
-1.48522e+06
-1.00712e+07
-1.00887e+07
-1.67328e+06
1.94257e+06
-71333.1
-1.45098e+07
-1.45362e+07
-1.84411e+06
-3.12884e+06
-3.11735e+06
-2.8351e+06
3.26066e+06
-1.90306e+06
-1.56063e+06
3.53371e+06
-2.35861e+06
-1.82023e+06
-1.82925e+06
-1.75013e+06
-1.73701e+06
-910132
-3.97078e+06
-3.97864e+06
-2.59562e+06
-1.90389e+06
-2.6056e+06
-4.83821e+06
-4.85642e+06
-1.1031e+06
3.82264e+06
-2.39709e+06
-680254
-3.48489e+06
5.10667e+06
-1.17666e+06
-1.16333e+06
5.30374e+06
451535
-1.76078e+06
-1.11995e+06
-937044
-1.30674e+06
-1.10959e+06
6.18601e+06
-1.67822e+06
-2.37718e+06
-3.94075e+06
-3.94813e+06
-1.82751e+06
-1.83068e+06
-1.72894e+06
-1.29976e+06
-1.2975e+06
-1.79839e+06
5.53968e+06
-3.50279e+06
203320
2.73343e+06
-1.37075e+06
1.09403e+06
-1.23498e+06
-2.43573e+06
-2.43957e+06
5.42121e+06
7.05253e+06
-69330.7
-1.35277e+07
-1.35022e+07
-1.36525e+06
-228337
-1.47527e+06
-1.99436e+06
-1.947e+06
-535358
2.39045e+06
-1.69304e+06
3.93851e+06
7.39164e+06
-1.07123e+06
-1.07254e+06
-1.4169e+06
-1.42171e+06
-1.82433e+06
-1.18955e+06
-4.86471e+06
-4.8504e+06
-652645
6.10935e+06
5.15e+06
-2.38485e+06
-2.39614e+06
-1.3206e+06
-1.92108e+06
-402726
-1.11028e+06
2.54639e+06
-1.25987e+06
3.75091e+06
-1.74773e+06
-1.61568e+06
-1.50233e+06
-1.73421e+06
-1.91269e+06
-372676
-1.87235e+06
17408.7
16728.8
-1.56989e+06
-1.58024e+06
-641881
-536952
-3.0803e+06
-1.51488e+06
-2.18788e+06
-1.00552e+07
-1.00763e+07
-820107
-1.79973e+06
-1.63165e+06
51179
1.59237e+06
1.58168e+06
-2.65435e+06
-1.2549e+06
-1.25227e+06
-877656
-894234
-3.30963e+06
-3.31551e+06
-1.22179e+06
-2.61657e+06
4.44815e+06
6.39311e+06
-1.45974e+06
2.95444e+06
-584859
-448830
-1.02883e+06
-2.03103e+06
-2.54194e+06
3.89923e+06
-721403
-180611
-1.44533e+06
-1.45279e+06
-2.21519e+06
5.13835e+06
594127
-2.07365e+06
-2.06688e+06
-3.12671e+06
-3.11528e+06
-624559
-1.86764e+06
-2.08896e+06
-1.23147e+06
-1.25538e+06
-824137
-2.27632e+06
-1.97842e+06
-2.26076e+06
-2.01116e+06
-1.9281e+06
-1.58874e+06
6.74551e+06
-850268
-840052
-1.8792e+06
-142805
-1.20097e+06
-2.0248e+06
64435.9
65167.8
-157793
-1.49353e+06
-1.48182e+06
-568410
-563648
-2.59153e+06
-3.11778e+06
-3.10552e+06
-2.51726e+06
-1.87855e+06
7.41946e+06
3.58981e+06
-333590
-308756
-2.34872e+06
-2.36131e+06
-2.53035e+06
2.1743e+06
-222596
-1.13278e+07
-1.13086e+07
-3.79629e+06
-3.78018e+06
2.69977e+06
-363913
-381060
-643978
-1.26699e+06
-2.50295e+06
-2.50869e+06
-369418
-1.89968e+06
-2.34803e+06
1.08715e+06
-2559.03
-2573.23
-1.83876e+06
-1.8504e+06
-1.64383e+06
-1.65941e+06
-2.88787e+06
-2.8831e+06
-1.68605e+06
-1.26048e+06
-1.26035e+06
-1.09657e+06
-440153
-2.50252e+06
-1.82731e+06
-1.81545e+06
-1.03722e+06
-1.90281e+06
1.24256e+06
6.39493e+06
-1.73095e+06
-1.54414e+07
-1.54691e+07
-1.67344e+06
-2.59149e+06
-1.40024e+06
-1.31261e+07
-1.31459e+07
-1.73677e+06
-1.22521e+06
-1.21225e+06
-795041
-783341
-462.621
-452.557
-187558
2.31199e+06
1.82236e+06
458790
2.01712e+06
-1.78103e+06
-163492
-870793
-2.72372e+06
-2.71886e+06
7.19738e+06
-1.24308e+06
-1.23699e+06
-1.38002e+06
-1.62613e+06
-1.63369e+06
-542745
-1.25104e+06
-4.10699e+06
-4.12033e+06
-538632
-1.96821e+06
-661107
4.49223e+06
-1.24979e+06
-2.52986e+06
-2.54223e+06
-2.64992e+06
-2.63814e+06
5.98509e+06
-1.9669e+06
-1.11368e+06
-2.53946e+06
-1.64913e+06
-2.19622e+06
-2.24e+06
3.31866e+06
-930786
-932520
-3.696e+06
-3.71007e+06
-2.18268e+06
-317721
-317367
-74601.9
-1.59282e+06
-1.60415e+06
-1.86963e+06
-987388
-1.03285e+06
-241412
-2.45065e+06
-1.41163e+06
6.37381e+06
1.96767e+06
-1.20259e+06
-1.9639e+06
-1.95285e+06
-31279.2
-1.10974e+07
-1.11124e+07
-1.6383e+06
-1.62246e+06
2.06958e+06
-2.01917e+06
-575806
-3.31692e+06
-1.58619e+06
-1.91966e+06
-1.91473e+06
-1.72884e+06
-1.58218e+06
4.35206e+06
-1.6509e+06
-226860
-225436
-779359
-1.82273e+06
-2.28353e+06
-2.26619e+06
-1.02964e+07
-1.0317e+07
-4.94893e+06
-4.96617e+06
-4.03568e+06
-2.13095e+06
-2.05938e+06
-4.05552e+06
-2.07889e+06
128416
132649
-2.07567e+06
-7.62504e+06
-7.64417e+06
897028
-1.64816e+06
-1.66044e+06
-2.13971e+06
4.31077e+06
-463097
1.76057e+06
6.26743e+06
1.15402e+06
2.37056e+06
-1.7007e+06
-1.70402e+06
-5.36381e+06
-7.86975e+06
-7.8888e+06
-5.50946e+06
-5.51779e+06
-1.54836e+06
1.68875e+06
-3.01984e+06
-3.03812e+06
-2.49799e+06
-1.27212e+06
2.08616e+06
2.32215e+06
3.52747e+06
-1.46529e+06
-9.70614e+06
-9.68568e+06
-1.86775e+06
-3.75648e+06
-3.75155e+06
-350061
-350399
-5.32274e+06
109812
-2.46792e+06
2.32325e+06