/*--------------------------------*- C++ -*----------------------------------*\
| =========                 |                                                 |
| \\      /  F ield         | OpenFOAM: The Open Source CFD Toolbox           |
|  \\    /   O peration     | Version:  v3.0+                                 |
|   \\  /    A nd           | Web:      www.OpenFOAM.com                      |
|    \\/     M anipulation  |                                                 |
\*---------------------------------------------------------------------------*/
FoamFile
{
    version     2.0;
    format      ascii;
    class       volScalarField;
    location    "2000";
    object      sigmaxx;
}
// * * * * * * * * * * * * * * * * * * * * * * * * * * * * * * * * * * * * * //

dimensions      [1 -1 -2 0 0 0 0];

internalField   nonuniform List<scalar> 
27023
(
-1.26691e+07
1.26925e+07
8.21195e+06
-8.19755e+06
-1.27831e+07
1.28068e+07
6.74506e+07
-6.73698e+07
3.11626e+06
-3.10895e+06
4.89486e+07
-4.88798e+07
573809
-585490
-1.94006e+07
1.61819e+06
1.10891e+06
-4.16386e+07
4.17262e+07
3.05958e+07
-3.05127e+07
6.70748e+07
-6.69935e+07
3.42573e+07
-3.41923e+07
5.42472e+06
-2.39183e+07
2.51614e+06
-2.36078e+07
2.29521e+07
1.11969e+07
3.06177e+07
-3.05367e+07
-3.10152e+07
-1.92056e+07
2.41226e+07
2.79057e+07
-2.78151e+07
2.99299e+06
-2.9881e+06
-8.17151e+06
8.18638e+06
-1.56092e+07
-1.21925e+07
1.22154e+07
4.11753e+07
-4.10872e+07
3.23891e+07
-3.23088e+07
2.13583e+07
3.1266e+07
-3.11849e+07
-3.02517e+07
513.594
-526.815
3.41313e+07
1.41405e+07
2.49105e+07
-1.14961e+07
7.8375e+06
-7.82394e+06
2.08578e+07
3.28382e+06
3.71475e+06
-1.51489e+07
9.94343e+06
2.72328e+07
6.71356e+06
-2.42918e+07
-1.45713e+07
2.67211e+07
-2.66302e+07
4.66839e+07
-4.66118e+07
6.20134e+07
-6.19312e+07
121984
-120642
-7.31588e+07
7.32437e+07
-1.81169e+07
4.72885e+07
-4.72201e+07
4.54681e+07
-4.53963e+07
-6.57475e+07
6.58301e+07
-2.70736e+07
2.6021e+06
-1.21179e+07
1.16519e+07
1.58214e+07
-1.57916e+07
1.36347e+07
-5.6829e+06
-3.43089e+07
3.43704e+07
-1.80769e+07
-1.20763e+07
622081
-1.97939e+07
-1.24136e+07
1.26882e+07
5.47537e+07
-5.46809e+07
2.23753e+06
6.11899e+07
-6.11118e+07
3.36918e+07
2.32962e+07
1.4351e+07
6.13605e+07
-6.12827e+07
3.39023e+07
-3.38387e+07
6.25668e+07
-6.2484e+07
1.51989e+07
-2.48196e+07
-1.83733e+07
1.49819e+07
1.60094e+06
-5.10974e+07
5.11652e+07
7.26612e+07
-7.25762e+07
1.55366e+07
-1.55068e+07
5.56465e+07
-5.55737e+07
-1.11001e+07
-1.39695e+06
1.42225e+06
-1.04387e+07
1.29405e+07
-6.59546e+07
6.60375e+07
6.40129e+06
4.28293e+07
-4.27418e+07
-6.30629e+07
6.31404e+07
-4.39152e+06
6.52502e+07
-6.51711e+07
-1.04949e+07
-1.14126e+07
3.12118e+07
2.77287e+07
2.66355e+07
-2.65879e+07
3.32172e+07
-3.31638e+07
-1.86126e+07
-1.98036e+07
-2.02613e+07
2.02512e+07
1.95599e+07
4.23181e+07
-4.22308e+07
-3.80695e+07
-1.56861e+07
-3.25517e+07
2.29794e+06
-3.94959e+07
3.95567e+07
-5.72933e+07
5.73671e+07
-1.29431e+07
1.39723e+06
3.64594e+06
-7.35722e+07
7.36566e+07
-1.32874e+07
1.32017e+07
-2.06064e+07
1.70877e+06
-4.0969e+06
-1.3531e+07
6.73448e+06
-2.77591e+07
-6.01979e+07
6.02735e+07
-2.06861e+07
-3.79695e+07
-4.04325e+07
-3.24934e+07
3.25534e+07
-3.41873e+07
-1.22113e+07
-5.72604e+07
5.73336e+07
-1.74005e+07
2.9551e+06
7.30892e+07
-7.30047e+07
-4.2571e+07
-5.54066e+07
5.54789e+07
-2.33012e+07
2.06935e+07
-2.46445e+07
6.0774e+07
-6.06886e+07
-1.20628e+07
1.20853e+07
-1.55542e+07
-4.21005e+07
6.06654e+07
-6.058e+07
20292.8
-20078.6
1.32527e+07
-1.65886e+07
-7.22619e+06
7.24142e+06
-2.041e+07
1.62241e+06
4.30568e+06
-6.48264e+07
6.49084e+07
-1.1108e+07
-5.1423e+07
5.14906e+07
-1.93543e+07
5.71974e+07
-5.71148e+07
4.71027e+07
-4.70322e+07
1.28054e+06
-1.27978e+06
3.06745e+06
5.89097e+07
-5.88268e+07
-3.88458e+07
5.70741e+07
-5.69907e+07
6.27457e+07
2.35878e+07
-7.08814e+07
7.09645e+07
2.51792e+07
3.98614e+07
3.99144e+07
-3.17869e+07
1.48006e+07
190777
-2.1828e+07
3.30997e+07
-3.11242e+07
-6.76549e+07
6.77377e+07
-1.43984e+07
-1.07604e+07
-4.21892e+07
-4.28613e+07
5.17542e+07
-3.92464e+07
3.435e+07
-3.42645e+07
1.36826e+07
2.35877e+06
3.58826e+07
5.86836e+07
-5.85998e+07
6.46971e+07
-6.46181e+07
4.89976e+06
-9.24841e+06
5.06017e+07
-5.05337e+07
2.49487e+07
-1.46385e+07
-2.73183e+07
6.37999e+06
3.79476e+06
-4.00173e+07
4.00785e+07
-3.42269e+07
3.43145e+07
2.8519e+07
-3.54344e+07
7.04638e+06
-6.88094e+06
-18609
18288.3
-1.46619e+07
-1.82691e+07
8.50359e+06
2.94222e+07
1.70899e+06
-1.409e+07
-5.58769e+07
5.5958e+07
-6.48153e+07
6.48967e+07
-3.12008e+07
4.183e+07
-6.06655e+07
6.07486e+07
996328
5.46211e+06
-5.61953e+07
5.62681e+07
-8.67854e+06
9.83997e+06
-9.81789e+06
2.06599e+07
2.11315e+07
-4.04412e+06
-150572
-722.396
766.867
641285
-640959
2.82421e+07
-3.17723e+07
3.18579e+07
938341
2.06345e+07
1.29838e+06
-1.29831e+06
-2.57756e+07
-1.7417e+07
-1.39768e+07
2.13907e+07
-4.90751e+07
6.60363e+06
2.89817e+07
-3.47671e+07
-1.21479e+07
3.48212e+07
-5.57904e+07
5.8682e+06
2.38799e+07
-2.10359e+07
2.1075e+07
-1.11453e+07
7.25765e+06
5.32778e+07
-5.32047e+07
-4.0646e+07
4.08823e+07
48530.2
-48097.9
-2.24976e+07
1.24443e+07
-1.24209e+07
-1.73766e+07
8.29381e+06
-3.14444e+07
3.14762e+07
6.06286e+07
-6.05456e+07
-23835.3
23770.9
4.04449e+06
-7.06254e+07
7.07096e+07
-3.6356e+06
-2.77999e+07
-5.87778e+07
5.88614e+07
-6.23635e+07
6.24408e+07
1.16761e+07
-2.53885e+07
-4.16363e+06
-1.82244e+07
1.82589e+07
-6.98447e+07
6.99279e+07
-1.17056e+07
-3.92672e+07
-1.46041e+07
-3.97934e+07
-3.96678e+07
-2.37275e+07
-2.56425e+07
2.6215e+07
1.99606e+07
-2.61192e+07
6.88042e+07
-6.87221e+07
-2.10263e+07
8.26978e+06
1.11762e+07
-4.04705e+07
-3.28788e+07
-2.32724e+06
-2.06282e+07
7.72824e+06
2.79294e+07
2.93206e+06
1.27892e+06
-6.00914e+06
2.54345e+07
1.36618e+07
-5.77085e+07
-2.72481e+07
4.67088e+07
-4.66387e+07
1.75199e+07
-1.69273e+07
8.03046e+06
-1.90375e+07
1.90737e+07
741847
1.3754e+07
-3.13038e+07
1.91688e+06
3.13149e+07
74547.6
-74463.7
-1.15864e+07
3.36965e+07
2.5553e+07
4.14571e+07
2.22882e+07
-2.92943e+07
1.26877e+07
-3.65284e+07
1.06382e+07
4.61861e+06
3.06708e+06
-5.50467e+07
-5.89996e+07
5.90815e+07
-5.09631e+07
4.78416e+06
3.89091e+07
-1.98957e+07
5.70145e+07
-5.69308e+07
-4.07123e+07
4.07852e+07
4.1101e+07
3.91179e+06
3.61047e+06
-3.60545e+06
-5.12721e+07
5.12593e+07
3.66014e+07
-3.65162e+07
5131.74
-5152.82
-1.2697e+07
-9.04684e+06
-3.27424e+07
-3.40472e+06
-8.77325e+06
-5.67552e+07
5.68281e+07
-5.56044e+07
5.56767e+07
3.62359e+07
-3.6152e+07
3.09356e+07
-3.08836e+07
-7.80384e+06
245854
-7.94633e+06
-3.14752e+07
1.44559e+07
3.80953e+07
-1.31598e+07
-7.07637e+07
7.08479e+07
-3.46112e+07
1.73811e+07
8.73552e+06
4.64242e+07
3.99801e+07
-2.72273e+07
-9.82325e+06
5.66553e+07
-5.65752e+07
-1.56153e+07
1.56755e+07
9.33591e+06
-9.31771e+06
5.82162e+07
-5.81332e+07
1.53821e+06
8.3807e+06
-9.75155e+06
1.29483e+07
5.57149e+07
6.0663e+06
-4.87217e+07
4.87902e+07
-2.25247e+07
2.8202e+07
1.81422e+06
-3.2083e+07
3.21694e+07
1.61417e+07
-1.61114e+07
2.07529e+07
-4.79954e+07
-2.79927e+07
-1.95908e+07
1.96299e+07
-3.06808e+07
-5.02081e+06
2.83536e+07
-2.82651e+07
-2.3871e+07
6.55304e+07
-6.54495e+07
4.96539e+07
-4.95849e+07
-3.2251e+07
-4.4562e+07
4.46259e+07
-1.62139e+07
-2.29873e+07
5.38426e+07
-5.37579e+07
-4.13736e+07
-5.95285e+07
5.96107e+07
3.41922e+07
-5.38462e+07
5.39229e+07
-3.42456e+07
3.43365e+07
-8.18075e+06
3.4942e+07
-3.4887e+07
-2.72598e+07
-5.56026e+06
-6.55671e+06
-9.00869e+06
3.9767e+07
-3.97015e+07
-6.72433e+07
6.73254e+07
-2.51713e+07
-4.20874e+07
2.37994e+07
2.55112e+06
-2.87879e+07
-2.64265e+07
1.42252e+07
-3.41391e+06
3.41883e+06
-4.87974e+07
-6.52448e+07
6.53268e+07
2.46899e+07
2.58874e+06
-5.41904e+07
5.42647e+07
-2.72272e+07
-3.28967e+07
3.29157e+07
385140
4.03959e+06
-9.74288e+06
-2.26055e+07
-2.14128e+07
2.78495e+07
-2.77612e+07
-2.96586e+07
-665516
4.77255e+07
-4.76407e+07
1.09733e+07
-2.99927e+07
3.00707e+07
-8.74066e+06
1.85216e+07
-1.84873e+07
-5.36511e+07
5.37221e+07
-2.16436e+07
2.16828e+07
3.31422e+07
-2.21422e+07
2.21665e+07
3.25644e+07
-2.72041e+07
2.72521e+07
-2.31377e+07
1.1087e+07
-1.25609e+07
-3.468e+07
2.59418e+06
-6.64855e+06
-1.20704e+07
-5.4926e+07
3.21713e+07
-3.21063e+07
2.50969e+07
3.27922e+07
-3.27274e+07
-2.36264e+07
-4.46832e+07
4.47544e+07
-8.65725e+06
-2.271e+06
-3.05726e+07
3.06538e+07
5.59854e+07
-5.59012e+07
4.26237e+07
1.57311e+07
2.55347e+07
4.67707e+07
-4.66914e+07
6.34784e+07
-6.33956e+07
2.00279e+07
-1.57848e+07
8.06554e+06
-8.28254e+06
2.27042e+07
-2.2601e+07
-2.53515e+07
-169681
-310598
313186
171102
-1.57583e+07
544926
-549296
-2.70997e+07
2.71482e+07
-1.41526e+07
1.41795e+07
1.80747e+07
-1.80411e+07
4.09567e+06
4.04737e+07
-4.04065e+07
-3.28461e+07
-1.53351e+07
-3.81362e+07
3.82028e+07
-1.96743e+07
4.42226e+07
-4.41459e+07
-2.57614e+07
-1.93524e+07
4.0243e+07
-2.00804e+07
2.01172e+07
3.9559e+07
2.97586e+06
17779.5
-1.85806e+07
-5.54364e+07
5.55142e+07
-5.51959e+06
3.15996e+07
-7.04248e+07
7.05087e+07
5681.51
-5705.53
3.56105e+07
-3.55332e+07
3.04915e+07
-4.88238e+06
7.06654e+07
-7.05842e+07
-2.06477e+07
-3.17605e+07
5.92868e+06
1.39542e+07
2.71402e+07
2.31007e+07
1.28099e+07
-1.17163e+06
-9.08834e+06
-3.8369e+07
2.48711e+07
3.63501e+07
-3.46084e+07
-1.77216e+07
-1.43545e+07
37790.8
-37900.5
4.45896e+07
-4.4518e+07
2.66076e+07
-2.10475e+06
-1.55551e+07
-5.51085e+06
3.13018e+07
3.40617e+07
-3.18089e+07
-3.41344e+06
2.17709e+07
-2.38096e+07
-8.20752e+06
1.46232e+07
-1.4595e+07
2.85222e+07
4.43476e+07
-4.20301e+06
-2.19235e+07
5.655e+07
-5.64701e+07
-6.12901e+07
6.13751e+07
-10878.2
10581
-2.98797e+06
-4.08118e+06
-1.76723e+07
-2.13317e+06
-2.93376e+07
2.94049e+07
1.90655e+07
2.55327e+06
-2.5506e+06
-6.50637e+07
6.51465e+07
-5.0647e+07
5.01634e+07
-5.00883e+07
-9.00317e+06
4.04452e+07
-2.53426e+07
-1.46498e+07
4.00157e+07
4.48822e+06
5.33836e+07
-5.32999e+07
2.1148e+07
-6.15373e+06
6.22783e+07
-6.22006e+07
-2.13471e+07
-5.75022e+07
-1.68816e+07
5.75771e+07
1.54237e+07
-1.5363e+07
2.90066e+07
2.1334e+07
-3.02862e+07
-1.21022e+06
-3.03767e+07
-1.41383e+07
5.2838e+07
-9.84267e+06
1.89721e+07
-1.89335e+07
-6.10832e+07
6.11664e+07
1.53773e+07
4.1711e+06
-5.40445e+07
5.41226e+07
-3.34669e+07
2.75319e+07
2.21195e+07
1.06794e+07
2.47854e+07
1.25742e+07
-1.25506e+07
-8.62802e+06
3.0398e+07
-3.03264e+07
-6.04254e+07
6.05087e+07
712194
-2.29841e+07
-4.33329e+06
-5.27864e+07
4.49913e+07
-4.49237e+07
2.27227e+07
2.65109e+06
-1.61308e+07
-3.60536e+07
-1.47151e+07
-2.16159e+07
-8.31107e+06
-2.15589e+07
2.56227e+07
6.15789e+07
-6.14963e+07
4.98503e+07
-4.97813e+07
3.95969e+07
-3.89088e+07
-8.85785e+06
4.03988e+06
5.98513e+07
-5.97685e+07
-4.18753e+07
-3.79313e+07
1.13673e+06
-1.54786e+07
4.78527e+06
2.23685e+06
-2.22962e+06
-1.61955e+07
-6.3964e+06
6.54233e+07
-6.53436e+07
-1.65211e+06
1.71475e+07
-3.38423e+06
7.26309e+07
-7.2547e+07
-2.17108e+07
2.17576e+07
-2.55995e+07
-1.29363e+07
1.29615e+07
-8.80348e+06
-4.02894e+06
2.11512e+06
3.83072e+06
5.58673e+07
-5.57838e+07
-7.88078e+06
-3.14921e+07
3.1577e+07
6.2645e+07
-6.2558e+07
-2.09881e+07
2.09121e+07
3.09632e+07
-3.09116e+07
-6.26193e+07
6.26971e+07
7.25705e+06
-3.91967e+07
6.43175e+07
-6.42386e+07
-4.08911e+07
-2.98476e+06
3.08462e+07
-3.07945e+07
4.96914e+07
-4.96067e+07
-3.51635e+07
-5.56877e+07
5.57664e+07
-6.85876e+07
6.86683e+07
3.52176e+07
1.6913e+07
2.4336e+07
1.08054e+07
4.37716e+07
-4.36837e+07
-5.49446e+07
3.37005e+06
4.34737e+06
5.50186e+07
1.75809e+07
2.82376e+07
-2.43657e+07
3.02662e+07
-3.01948e+07
662557
8.09522e+06
-2.95368e+07
4.35424e+07
-4.35571e+07
1.70789e+07
-1.89759e+06
45567.1
-44670
-2.20142e+07
-2.52778e+07
-2.02992e+07
6.41423e+07
-6.40641e+07
-3.70259e+07
-2.98827e+07
-3.62647e+07
1.87221e+07
2.94931e+07
-2.94429e+07
-3.89656e+07
1.48393e+07
3.71138e+07
-2.14544e+07
2.17528e+07
3.6323e+07
-3.61204e+07
3.16516e+07
-3.15991e+07
-5.4619e+07
5.47024e+07
3.54765e+07
-1.25461e+07
2.30195e+07
5.11948e+07
-5.1125e+07
-5.00087e+07
5.0092e+07
100742
-1.87031e+07
4.40208e+07
-4.39333e+07
-2.53499e+07
4.87015e+06
-4.86254e+06
-2.00484e+07
-2.06949e+07
5.51668e+07
-3.30359e+07
-3.46557e+07
-4.12614e+07
2.25242e+07
-2.39733e+07
-8.02502e+06
6.30701e+07
-6.29878e+07
-3.38446e+06
836730
1.10957e+07
-2.4383e+07
-1.03479e+07
-5.788e+06
-3.38558e+06
2.29811e+07
-1.82212e+07
1.66528e+06
9.36041e+06
-2.18307e+07
1.79711e+07
-5.00497e+07
1.2525e+07
-1.2908e+07
-3.50111e+06
3.50644e+06
2.14734e+07
-6.76219e+06
6.77404e+06
-1.72822e+07
-9.7266e+06
4.07769e+07
-4.07114e+07
2.21108e+07
4.90756e+06
-4.89964e+06
-1.83436e+07
-1.06706e+07
2.0727e+07
-2.69859e+07
3.08099e+07
1.96192e+07
-5.84622e+07
2.39261e+07
1.96861e+07
3.3047e+07
1.36739e+07
-1.36482e+07
7.99766e+06
-8.09218e+06
196667
-197201
3.27738e+07
-895034
2.38322e+07
1.80326e+07
-2.38798e+07
2.39689e+07
-4.05705e+07
-7.36736e+06
2.03694e+07
-52996
52751.4
-2.26777e+07
-1.5525e+07
-465972
2.76678e+06
-1.14874e+07
3.97658e+07
2.05844e+07
-2.95671e+07
-2.47987e+07
2.48843e+07
-4.64778e+07
-3.6385e+07
795288
4.49525e+06
-2.66933e+07
-4.25928e+07
4.26591e+07
1.7894e+06
-1.83468e+07
-4.46173e+07
-3.69751e+06
3.70312e+06
-2.37028e+07
1.09349e+07
2.41064e+07
-5.61269e+07
5.62088e+07
-1.04126e+07
-2.96037e+07
2.96713e+07
3.90046e+07
-3.8942e+07
1.79086e+07
-2.42515e+07
158469
-156903
-1.9737e+07
1.00475e+06
7.10168e+06
6.12926e+07
-6.12093e+07
-6.99685e+06
6.66195e+07
-6.65382e+07
3.68074e+06
2.90261e+07
-9.82603e+06
-4.35119e+07
-1.82262e+07
-6.18216e+06
4.358e+07
4.38424e+07
5.20491e+06
-1.83622e+07
-2.60828e+07
2.61669e+07
2.54069e+07
-2.60748e+07
3.94036e+07
1.95286e+07
2.66772e+07
-6.03115e+06
4.50589e+06
-9.1394e+06
-1.47876e+07
1.75194e+06
5.75411e+06
-9.16803e+06
-6.03199e+06
337155
2.52751e+07
1.49977e+07
-3.3062e+07
-2.42091e+07
-1.10365e+07
-4.07013e+07
3.81899e+07
-3.62453e+07
3.63016e+07
7.53654e+06
-2.9811e+06
-2.34265e+07
2.35122e+07
4.8031e+07
-4.79458e+07
-1.59934e+07
-6.3363e+06
3.27569e+07
-3.91082e+06
3.91668e+06
5.95485e+07
-5.94659e+07
4.09025e+06
910263
-2.10287e+07
-5.94044e+06
-4.85414e+06
-1.14652e+06
-5.2187e+06
-1.30761e+06
4.05809e+07
3.95057e+07
-3.9439e+07
2.29427e+07
-2.28506e+07
1.03084e+07
9.83065e+06
5.97271e+07
-5.96435e+07
5.25272e+06
1.05089e+07
2.32573e+07
-8.65474e+06
-3.71374e+07
-1.57034e+07
1.43271e+07
-1.20846e+07
4.42131e+07
-6.79336e+06
-1.37144e+07
5.25108e+07
4.10105e+07
-4.09431e+07
-4.67152e+07
8.07163e+06
2.61333e+07
-1.93068e+07
2.00424e+07
5.1528e+07
-5.14727e+07
-2.04921e+07
-5.37876e+07
-2.35095e+06
2.35443e+06
4.19827e+06
-4.19241e+06
1.50924e+07
2.11621e+07
-1.94379e+07
6.14396e+07
-5.64207e+07
5.64934e+07
8.86579e+06
-8.84674e+06
-1.00007e+07
6.31458e+07
-6.30629e+07
-2.49608e+07
2.46537e+07
-6.81786e+06
-12302.1
12246
-2.07839e+07
-9.84525e+06
4.96253e+07
-1.31868e+07
-5.79714e+07
5.80456e+07
2.23104e+07
4.70825e+07
-4.66906e+07
1.7944e+07
1.18096e+07
-1.60688e+06
2.36921e+07
-2.36296e+07
-5.92072e+07
5.92905e+07
-1.10447e+07
-2.76232e+07
2.76852e+07
-5.56641e+07
5.5746e+07
1.23313e+07
-2.99129e+07
2.50435e+07
-9.86245e+06
2.21556e+07
-2.21091e+07
-1.94351e+07
9.03919e+06
4.28817e+07
-381149
-1.80413e+07
1.80754e+07
-2.55805e+07
1.24145e+07
5.12997e+07
5.18125e+07
-5.17294e+07
3.83587e+07
-5.03043e+06
-1.94302e+07
1.8946e+07
6.41402e+07
-6.40609e+07
-2.72708e+07
4.34636e+07
-4.33882e+07
2.66236e+07
-4.24184e+07
-3.36752e+07
3.36725e+07
2.29911e+07
1.57633e+07
1.24518e+06
-1.82065e+06
-3.16967e+07
1.01097e+07
-8.10569e+06
26053.3
-26199.3
4.24404e+07
5.28667e+06
-5.27828e+06
5.14578e+07
-5.13881e+07
96258.4
6.2815e+07
-6.27375e+07
-4.23462e+07
4.24083e+07
-6.74179e+07
6.74982e+07
1.74485e+07
6.22173e+07
-6.21344e+07
4.94307e+06
-2.06479e+07
-923658
-1.9308e+07
1.34308e+07
-1.80353e+07
4.83425e+07
-4.82642e+07
-1.29662e+07
1.29949e+07
1.27808e+07
-1.71639e+06
1.01966e+06
3.91828e+07
6.87118e+06
2.87114e+07
-4.25512e+07
6.57335e+06
-8.4923e+06
1.95078e+06
-1.94913e+06
3.96247e+07
-2.74282e+07
3.90543e+07
-2.5347e+07
-1.23444e+07
5.09315e+06
2.64428e+07
-2.63553e+07
2.59835e+07
1.42677e+07
-2.28292e+07
2.29997e+07
-9.68493e+06
-3.0368e+07
-6.0213e+07
-3.22507e+07
3.2317e+07
4.22129e+07
-2.05765e+07
2.50509e+07
-2.66053e+07
3.20767e+07
6.02891e+07
2.66549e+07
3.35189e+07
2.75512e+07
1.61894e+07
2.54379e+07
-8.15915e+06
2.21015e+07
1.65789e+07
1.26101e+07
-3.88954e+06
-1.35189e+07
2.3039e+07
-2.49511e+07
-1.52193e+07
4.9031e+07
-4.89461e+07
-3.51458e+07
9.85749e+06
-8.95158e+06
-1.05204e+07
4.18841e+07
-4.07758e+07
4.91854e+06
-4.97193e+07
-1.72819e+07
7.60884e+06
4.08464e+07
2.1881e+07
-3.26855e+07
1.39702e+07
-5.91591e+06
3.77153e+07
-3.71005e+07
2.58655e+07
40989.2
-41654.4
-4.19725e+07
-4.65567e+07
4.66247e+07
2.23577e+06
5.33998e+07
-5.3329e+07
6.39746e+06
1.1543e+07
-1.15216e+07
-2.76317e+07
237796
6.44076e+06
6.5036e+07
-6.49477e+07
-3.05185e+06
-4.95302e+07
5.41564e+07
-1.98481e+07
5.16649e+07
-5.1595e+07
-2.85538e+07
8.01238e+06
4.97564e+06
-4.60714e+07
2.45018e+07
-2.44206e+07
8759.12
-8797.29
3.28562e+06
1.52135e+07
2.95634e+07
-2.9513e+07
5.50216e+07
-5.49459e+07
-4.55324e+07
1.00655e+07
2.03673e+07
5.07714e+07
-5.07002e+07
2.51818e+06
-108006
107407
-4.71725e+07
4.71683e+07
-5.49358e+07
5.50125e+07
-5.06894e+07
5.9484e+07
-5.94003e+07
3.82518e+07
-3.81904e+07
2.77204e+07
-1.28617e+07
-5.49471e+07
5.4198e+07
2.31211e+07
1.56383e+06
-5.41209e+07
9.90557e+06
2.8536e+07
2.99214e+07
3.27772e+07
1.90979e+07
5.67405e+07
-5.66578e+07
-1.46144e+07
-4.37304e+07
4.37936e+07
6.13915e+07
-6.13129e+07
-2.14861e+07
-4.08995e+07
4.09709e+07
2.44905e+07
-2.44098e+07
-2.42442e+07
2.3455e+07
-2.33713e+07
2.40315e+07
-6.13511e+07
6.14348e+07
1.55054e+07
-1.06217e+07
-2.45785e+07
-4.63747e+06
2.11658e+07
-2.10587e+07
9.37265e+06
-2.34072e+07
1.14074e+07
-1.85102e+07
-2180.15
2165.36
-6.71765e+07
6.72582e+07
-9.37992e+06
1.7069e+07
6.51598e+07
-6.50803e+07
-2.5827e+07
2.25504e+07
1.22508e+07
-3.95342e+07
3.98017e+07
2.44793e+07
-1.49547e+06
-4.17918e+07
5.46346e+06
-6.43946e+07
6.44732e+07
-2.65055e+07
2.65902e+07
-3.8781e+07
3.8869e+07
1.04428e+06
-1.05215e+06
1.09012e+07
-3.8082e+07
-7.57775e+06
-2.13827e+07
-2.24447e+07
-4.6048e+06
725941
-726097
-1.09618e+07
-1.39849e+06
2.1149e+07
-2.44643e+07
2.45128e+07
1.90693e+07
-1.36389e+06
-2.91053e+07
4.26056e+07
-4.25293e+07
-2.59509e+07
4.14397e+06
-4.3087e+07
4.31739e+07
-1.79876e+07
-4.29173e+07
4.29863e+07
-3.52085e+07
-1.94567e+07
-2.43566e+07
-1.26009e+07
1.47025e+07
-1.4722e+07
5.47852e+07
1.2328e+07
3.20273e+07
-3.19747e+07
1.49757e+06
2.57708e+07
-2.57233e+07
4.34016e+06
4.71612e+07
-4.70861e+07
-1.54155e+07
1.54443e+07
-2.60766e+06
-1.44546e+07
1.44904e+07
-4.72369e+07
4.73231e+07
2.89174e+07
-1.71348e+07
-2.86666e+07
2.53291e+07
-2.52831e+07
2.8545e+07
-9.61577e+06
-2.57772e+07
2.5862e+07
6.39033e+06
5.54999e+07
-5.54287e+07
7.73529e+06
3.7091e+07
5.99643e+07
-5.98818e+07
-135999
137201
-2.50684e+06
5.32242e+07
-5.31498e+07
6.58739e+06
2.47622e+07
-2.46775e+07
2.60054e+06
-2.59752e+06
-726675
2.425e+07
5.52068e+07
-5.51361e+07
-6.96833e+07
6.97663e+07
2.25314e+07
2.64118e+06
-3.34021e+06
3.34485e+06
1.61273e+07
-15282.1
15186.1
-6.40153e+07
6.40971e+07
-1.72122e+07
5.33888e+06
-5.33029e+06
7.67852e+06
-5.49087e+07
5.49858e+07
-1.42835e+07
-7.46945e+06
-6.04413e+07
6.05246e+07
-5.52185e+07
5.52903e+07
-1.68198e+07
1.54475e+06
-3.99325e+07
1.88559e+07
-1.23438e+07
-6.34611e+06
2.08144e+07
2.29819e+07
-2.57455e+07
2.58445e+07
-4.90937e+07
4.91785e+07
6.02726e+07
-6.0189e+07
4.75619e+07
-2.52409e+07
-5.58293e+06
2.11919e+06
-5.61263e+07
-2.45853e+07
3.91144e+07
3.63195e+07
-3.9337e+07
3.3054e+07
-3.29694e+07
-2.01092e+07
2.01468e+07
4.93916e+06
-6.85146e+06
-2.41496e+07
1.19244e+06
-2.48662e+06
2.02028e+07
-2.22726e+07
-9.25298e+06
2.6515e+07
-2.64297e+07
623174
-2.9568e+07
2.96567e+07
-1.22131e+07
-6.2338e+07
6.24159e+07
-5.82111e+07
5.82852e+07
-8.78023e+06
-4.35687e+07
4.36396e+07
7.3698e+07
-7.36133e+07
4.86858e+07
-4.86157e+07
2.3956e+07
-2.3913e+07
5.32779e+07
1.30211e+07
1.69195e+07
-7.86343e+06
-2.0935e+07
2.09746e+07
-4.42747e+07
4.43448e+07
-1.51008e+07
1.48278e+07
-1.29356e+07
6.94127e+07
-6.93306e+07
2.58642e+07
-3.46772e+07
3.46918e+07
-2.03335e+07
-2.52182e+07
3.63835e+07
-1.10678e+07
2.35677e+07
-2.34474e+07
3.30855e+06
-2.58113e+07
2.38205e+07
547258
-547636
4.51924e+07
9.35974e+06
9.30026e+06
-1.3242e+07
-3.20353e+07
-5.20536e+07
1.2561e+07
8.36435e+06
-8.34918e+06
5.23252e+07
-5.22413e+07
2.70677e+07
-2.70187e+07
-1.45429e+07
1.24456e+07
1.21308e+07
7.10602e+06
-1.28404e+07
-4.41638e+07
1.60431e+07
1.75839e+07
7.83778e+06
-4.98069e+07
4.97904e+07
915860
-915490
1.38258e+07
1.11333e+07
-3.43695e+07
3.44546e+07
2.43309e+07
-2.42878e+07
6.42146e+07
-6.4126e+07
-1.64308e+07
-8.37832e+06
8.37428e+06
4.19324e+06
-4.59419e+07
4.65608e+07
-5.73945e+07
5.74788e+07
2.58869e+07
-949536
4.33501e+07
-4.32832e+07
-2.73262e+07
2.72197e+07
2.05481e+07
-8.10521e+06
-2.65286e+07
-1.29795e+07
2.19908e+07
-2.18937e+07
3.40382e+07
-3.3984e+07
-3.86028e+07
5.71833e+07
-5.71001e+07
4.93263e+07
-4.92576e+07
5.24953e+07
2.28154e+07
-2.27342e+07
-1.46914e+07
1.47202e+07
8.33155e+06
-1.49337e+07
-3.09891e+07
-2.40878e+07
2.41787e+07
-2.94161e+06
2.94559e+06
1.41789e+06
3.0668e+07
-3.94366e+07
3.95071e+07
3.10527e+07
1.33833e+07
-6.89339e+07
6.90168e+07
1.31885e+07
3.65799e+07
-4.63079e+07
1.43323e+07
-4.12295e+07
-4.76681e+07
4.77417e+07
1.65163e+07
5.08773e+07
-5.0802e+07
9.63243e+06
1.65222e+07
4.12927e+07
-3.68183e+07
3.68917e+07
-1.88905e+07
2.01543e+07
-187796
5.92578e+07
-5.91748e+07
5.29078e+06
-9.07582e+06
3.41469e+07
-3.40633e+07
2.10478e+07
-2.21213e+07
2.20453e+07
2.514e+06
1.69276e+06
-1.5835e+06
3.26829e+07
-3.25981e+07
6.8797e+06
-1.00039e+07
-2.21273e+07
4.10456e+07
-3.09608e+06
-1.12724e+07
-3.92719e+06
1.54439e+06
2.14428e+07
4.96021e+07
-1.72519e+07
4.82747e+07
-4.8208e+07
-2.28576e+07
790595
-790447
5.16137e+07
-5.15438e+07
1.72737e+07
-5.48541e+07
5.4926e+07
2.2104e+07
4.92042e+07
-6.93607e+06
-61616.5
61414.2
3.54124e+06
-4.42369e+07
4.43184e+07
-2.85811e+07
3.06045e+06
2.95067e+07
-329671
-4.75156e+07
2.24536e+07
-1.53919e+07
1.5428e+07
2.71006e+07
-2.70523e+07
-2.51592e+07
1.12899e+07
2.20909e+07
-4.96734e+07
4.97434e+07
-5.52215e+06
3.4095e+06
-3.40445e+06
-585161
-6.02858e+07
6.03684e+07
-8.48857e+06
1.48231e+07
-2.00124e+07
1.73525e+07
-1.73043e+07
2.79121e+07
-2.78262e+07
-2.00653e+07
2.17611e+07
-2.86242e+07
2.87197e+07
3.54902e+07
-2.43851e+07
-3.65655e+07
2.77352e+06
-4.50504e+07
-9.57759e+06
2.3402e+07
-2.33155e+07
-649747
9.32922e+06
-9.31246e+06
4.91159e+07
-4.90417e+07
4.05394e+07
5.50987e+07
3.70319e+06
8.85258e+06
2.37734e+07
1.96872e+06
-4.5775e+07
-4.41195e+07
3.0453e+07
1.91291e+07
-2.52596e+07
-8.28295e+06
2.5014e+07
-3.18041e+07
3.18853e+07
3.24008e+07
-3.23371e+07
3.95533e+07
-3.99807e+07
1.80998e+07
-3.02729e+07
3.0359e+07
3.16553e+06
-3.35052e+07
3.33079e+07
-5.00965e+07
5.01703e+07
1.2682e+07
3.39801e+07
-7.33114e+06
-2.50475e+07
-4.48689e+07
4828.2
-4881.33
2.16669e+07
-1.16734e+07
1.42565e+07
-1.25238e+07
6.73193e+06
2.38489e+07
-2.38002e+07
-4.15931e+07
4.16602e+07
2.26637e+07
-4.78121e+07
6.19943e+07
-6.19114e+07
-3.70502e+07
3.71157e+07
1.97422e+07
1.4001e+07
1.58787e+07
2.05283e+07
3.466e+07
-3.47246e+07
1.42457e+07
-3.1097e+07
3.11451e+07
-2.22565e+07
2.22967e+07
3.35085e+07
1.43917e+07
-1.43648e+07
2.34301e+07
-2.33417e+07
3.05119e+07
-1.78573e+07
1.78585e+07
-1.10449e+07
9.79192e+06
1.15866e+06
-1.26431e+07
-2.24884e+07
2.43395e+06
-2.42906e+06
-1.88284e+07
2.25903e+07
-3.87786e+07
3.88635e+07
1.52724e+07
1.98815e+07
2.12899e+07
2.47735e+07
2.17071e+07
-2.16662e+07
2.6196e+07
-5.97439e+07
5.98195e+07
2.60048e+07
2.52232e+07
-1.25217e+07
-3.93724e+07
3.53648e+07
-3.52943e+07
1.24651e+07
2.93782e+07
2.39134e+07
-5.51369e+07
5.52196e+07
3.55924e+07
-3.55849e+07
1.86931e+07
-1.97504e+07
-1.60704e+07
-4.35075e+06
1.68229e+07
1.46514e+07
1.94136e+07
-1.81491e+07
2.15397e+06
-2.49653e+06
-4.18996e+07
4.19683e+07
5.10741e+06
6.31198e+07
-4.53971e+07
4.54696e+07
4.05586e+07
-2.89532e+07
2.39562e+07
-2.01269e+07
2.90264e+07
-5.83718e+07
5.8454e+07
8.35222e+06
3.02811e+07
-4.37542e+07
4.38207e+07
2.50998e+07
-2.14919e+07
3.46991e+07
5517.28
-5471.64
2.16316e+07
5.25671e+07
-5.24967e+07
2.05211e+07
-1.4176e+06
1.76448e+07
4.13894e+07
-3.33117e+07
-1.468e+06
-6.30435e+07
40653.6
-41047.3
-1.35528e+07
2.94609e+07
9.75861e+06
60325.3
-59298.9
2.75189e+07
-3.95568e+07
3.96322e+07
6.54119e+07
-6.53328e+07
-2.12806e+07
2.13192e+07
2.41208e+07
1.26651e+06
-1.25493e+06
-2.44244e+07
-1.19675e+07
1.7322e+07
1.83244e+06
-2.20524e+07
-2.06638e+07
4.64973e+07
-4.64352e+07
-4.43493e+07
4.44314e+07
-5.6306e+06
-2.28454e+07
-5.61257e+07
1.48937e+07
-2.80573e+07
-790063
2.63155e+07
2.76405e+07
6.55282e+07
-6.54479e+07
-4.43273e+07
-1.58256e+07
-3.40768e+07
3.41654e+07
-7.23033e+06
-2.01818e+06
712478
1.97636e+07
7945
-7878.21
-1.06926e+07
5.70772e+06
-5.69856e+06
-385509
-5.76034e+07
5.76773e+07
-9.59052e+06
-2.4959e+07
3.28082e+07
2.50493e+07
-4.55146e+07
4.55091e+07
1.07994e+07
-1.29004e+07
-2.2831e+07
3.15074e+06
-5.70806e+07
5.71539e+07
2.95335e+07
-2.95328e+07
-5.71744e+07
9.24366e+06
-6.90572e+07
6.91392e+07
1.29737e+07
-1.29493e+07
-2.20476e+07
4.56038e+07
-6.17973e+06
-3.69358e+07
3.70009e+07
6.26677e+07
-6.25825e+07
-606346
-3.51125e+06
2.69536e+07
5.4127e+07
2.21431e+07
1.38482e+07
-4.23613e+07
4.24344e+07
-1.03121e+07
1.73522e+07
-2.63815e+07
-4.00524e+07
-1.00817e+07
-2.54389e+07
3.84843e+07
-3.83989e+07
5.06472e+07
-6.17648e+07
6.18475e+07
88960.9
-88457.9
2.97744e+07
2.41388e+07
6.32496e+07
-2.95305e+07
-3.37785e+07
3.38657e+07
-3.42546e+07
2.29228e+07
-4.7135e+07
2.16627e+07
-1.09242e+07
-6.60786e+07
6.61615e+07
-4.29713e+07
-3.26733e+07
3.27263e+07
-6.98444e+07
6.99276e+07
-6.317e+07
-6283.75
6258.06
2.04463e+07
-6.80935e+07
6.8175e+07
-3.60243e+07
3.6108e+07
-2.53468e+06
2.53779e+06
3.32947e+07
1.08642e+07
4.96673e+07
-4.95814e+07
-9.23046e+06
-1.36305e+07
4.16572e+07
-4.15824e+07
-2.56342e+07
-1.85232e+07
5.26223e+07
-5.25499e+07
-2.19852e+07
6.37872e+06
-6.36758e+06
3.5499e+07
105809
-1.87649e+07
6.73687e+07
-6.72867e+07
4.77273e+07
3.31328e+07
-3.30476e+07
-2.51154e+07
2.5166e+07
2.38901e+06
-2.38671e+06
1.11834e+07
4.2289e+07
-4.18303e+06
4.18912e+06
-3.84344e+07
3.85193e+07
-1.2953e+07
4.43656e+06
1.72922e+07
3.43359e+07
9.89798e+06
7.55996e+06
4.78565e+07
-4.77905e+07
4.80689e+07
-4.7992e+07
-7.31881e+07
7.32726e+07
-1.97033e+07
-2.25332e+07
2.24011e+07
4.65359e+07
-4.64545e+07
-1.83302e+07
-195473
196530
-9.59052e+06
-3.60372e+07
2.40877e+07
-2.40031e+07
-5.52241e+07
1.41198e+07
-2.9077e+07
-6.15008e+07
6.15835e+07
-1.91351e+07
-2.37702e+07
2.38463e+07
1.29898e+06
1.75284e+07
-1.49534e+06
-3.46253e+07
-4.34818e+07
4.35483e+07
-5.20911e+06
-1.97636e+07
6.07237e+07
-2.86214e+07
2.86712e+07
1.15875e+07
4.8157e+07
-4.80806e+07
727031
-1.45214e+07
-1.46761e+07
4.01698e+06
-1.03403e+07
4.47463e+06
-4.79055e+07
4.79915e+07
4.62551e+07
-4.61701e+07
-7.9866e+06
-5.91992e+07
5.92799e+07
-4.30725e+06
8.9914e+06
4.30884e+06
-1.88396e+07
1.88775e+07
2.13548e+07
-1.85499e+07
1.07557e+07
3.98141e+06
-2.0708e+07
1.59722e+07
4.61073e+07
-4.60228e+07
-1.18399e+07
-2.12304e+07
3.80265e+07
-1.56063e+07
-5.26156e+07
-4.23413e+07
-1.4818e+07
9.91786e+06
4.46442e+06
8.47807e+06
-6.46123e+07
6.4694e+07
-6.2899e+07
6.29818e+07
1.73198e+06
1.6974e+06
-1.70465e+06
-2.62762e+07
-1.17873e+07
2.0767e+07
-2.55985e+06
5.2482e+06
-4.73448e+07
-4.46844e+06
2.05844e+06
-6.43117e+07
6.4394e+07
-1.37473e+07
4.36612e+06
5.02816e+07
1.37468e+07
-1.37207e+07
-4.33475e+07
5.25198e+07
1.22802e+07
3.69957e+07
1.5191e+07
-3.26865e+07
3.76217e+06
-3.92588e+06
-1.23943e+07
350742
-6.66402e+07
6.67217e+07
1.96694e+06
-1.95449e+06
1.74926e+07
3.08174e+06
3.40558e+07
-3.39847e+07
1.52583e+07
-1.20337e+07
1.52475e+07
-3.844e+07
3.85187e+07
5.071e+07
-3.78646e+06
3.11451e+07
-2.12812e+07
781768
-4.06439e+07
1.36911e+06
-2.42282e+07
-393507
2.13206e+06
1.6676e+07
1.71603e+06
1.55899e+07
-2.99132e+07
6.38426e+07
-6.37564e+07
-2.86666e+07
2.8745e+07
1.76273e+07
-1.7571e+07
6.71987e+06
-3.51819e+07
2.64765e+07
-2.05448e+07
2.05843e+07
-4.97383e+07
1.97752e+07
-1.62731e+06
2.6654e+07
-2.47088e+07
-1.60284e+07
-8.85164e+06
-1.57117e+06
1.58812e+06
-2.53264e+07
2.54187e+07
-2.48651e+06
2.48919e+06
3.75327e+07
-3.45933e+07
1.63788e+07
-9.8708e+06
-1.98102e+07
1.59936e+07
515292
-1.9151e+06
-3.35895e+06
-1.75518e+07
3.44705e+07
-1.41931e+06
7.74211e+06
3.14646e+07
4.52092e+07
-4.52025e+07
2.87131e+07
-2.2463e+06
-7.15128e+06
4.90804e+07
-4.89941e+07
4.46763e+07
-4.45992e+07
-2.26146e+07
-9.28858e+06
-1.67788e+07
-2.08693e+07
2.10896e+07
1.97507e+07
-1.87353e+07
-5.49573e+06
-1.8326e+07
-1.16036e+07
1.14501e+07
-6.09395e+06
-5.33805e+06
878916
-880468
7.94095e+06
-3.03523e+07
3.87018e+07
-8.9731e+06
-3.04286e+07
3.04846e+07
-5.5882e+07
3.38164e+07
-3.37338e+07
287718
-286561
2.11669e+07
4.77153e+07
-4.76392e+07
126581
-2.42792e+07
586515
1.46882e+06
-1.32156e+07
1.32325e+07
-4.11228e+07
4.11979e+07
-1.28143e+07
3.57108e+06
3.04142e+07
5.62255e+07
-5.61526e+07
4.85093e+07
-4.84386e+07
2.30328e+06
-3.07309e+07
3.07933e+07
2.27153e+07
1.81976e+07
-5.43046e+07
5.43885e+07
8.57305e+06
-1.91496e+07
-2.20195e+07
7.56218e+06
-24373.9
24225.6
-3.70123e+07
3.70911e+07
-3.11947e+07
3.12803e+07
2.03429e+06
-2.03249e+06
-1.57724e+07
721287
-721434
-3.33048e+07
-4.62025e+07
2.12618e+07
3.45369e+07
-3.44542e+07
4.0771e+06
-3.86973e+07
3.74678e+06
-3.60341e+06
-4.25425e+07
-2.73774e+07
2.74259e+07
-1.90482e+07
-1.1224e+07
-4.22896e+07
-6.09657e+07
6.10422e+07
3.85563e+07
4.50539e+07
-4.49697e+07
3.04423e+07
-3.03614e+07
-18317.9
18222.4
2.01509e+07
2.35752e+07
1.33362e+07
6.02579e+07
2.25327e+07
2.43352e+07
-2.00519e+07
-1.97445e+07
6.00005e+07
-5.99181e+07
2.74932e+06
5.37783e+07
-5.36941e+07
-2.39488e+07
-2.97802e+07
2.98572e+07
-5.20215e+07
2.31334e+07
-5.21901e+07
5.22651e+07
-4.69299e+07
2.36166e+07
3.40726e+07
1.69711e+07
1.86085e+07
-4.15636e+07
4.16395e+07
1.89053e+07
-1.8858e+07
-9.96592e+06
-1.68287e+06
5.08257e+07
1.90839e+07
-4.88986e+06
-2.7025e+07
2.71637e+07
-8.96926e+06
-6.87501e+07
6.88325e+07
-5.03441e+07
5.0418e+07
4.64355e+06
-1.05358e+07
1.05882e+07
5.98432e+07
-4.18025e+07
2.88988e+07
-4.93317e+06
-5.3992e+07
2.06397e+07
5.72562e+07
1.06173e+06