/*--------------------------------*- C++ -*----------------------------------*\
| =========                 |                                                 |
| \\      /  F ield         | OpenFOAM: The Open Source CFD Toolbox           |
|  \\    /   O peration     | Version:  v3.0+                                 |
|   \\  /    A nd           | Web:      www.OpenFOAM.com                      |
|    \\/     M anipulation  |                                                 |
\*---------------------------------------------------------------------------*/
FoamFile
{
    version     2.0;
    format      ascii;
    class       volScalarField;
    location    "2000";
    object      sigmayy;
}
// * * * * * * * * * * * * * * * * * * * * * * * * * * * * * * * * * * * * * //

dimensions      [1 -1 -2 0 0 0 0];

internalField   nonuniform List<scalar> 
27023
(
-1.02773e+07
1.02965e+07
8.24848e+06
-8.23391e+06
-9.67166e+06
9.68971e+06
3.59311e+06
-3.58818e+06
5.88024e+06
-5.87371e+06
5.65277e+06
-5.64432e+06
1.61917e+06
-1.61511e+06
-523742
87409.4
317925
-914436
911582
1.42991e+06
-1.42419e+06
3.07847e+06
-3.07403e+06
4.62024e+06
-4.61027e+06
514697
-3.33173e+06
4087.16
-3.6445e+06
-109000
677532
1.41686e+06
-1.41329e+06
-80174.3
-570694
75445.3
2.42271e+06
-2.41567e+06
5.50259e+06
-5.49538e+06
-8.71559e+06
8.73103e+06
-110185
-9.48021e+06
9.49842e+06
857617
-859248
3.57133e+06
-3.55835e+06
-118163
3.3694e+06
-3.35675e+06
-63143.1
521721
-517915
108231
178641
-55746.3
24442.7
9.05997e+06
-9.04428e+06
38010.3
171136
-78530.8
-45792.6
725013
919400
562130
-2.85795e+06
-141798
2.54672e+06
-2.53961e+06
4.3632e+06
-4.35277e+06
88011
-88157.4
757970
-754813
-1.04223e+06
1.04327e+06
-2.42854e+06
5.36437e+06
-5.35598e+06
4.60569e+06
-4.59499e+06
9320.13
-9104.69
-902987
139989
21586
127324
8.5425e+06
-8.5256e+06
1.57287e+06
-359857
-4.34883e+06
4.35675e+06
-2.51375e+06
-109896
-38384.2
8434.74
-108966
312937
4.53681e+06
-4.52929e+06
-113631
3.43333e+06
-3.428e+06
252510
222281
-109633
4.04531e+06
-4.03937e+06
4.27512e+06
-4.26655e+06
115983
-115627
-722954
-1.79013e+06
-1.54401e+06
236114
26853.9
-8.37488e+06
8.38614e+06
1.5534e+06
-1.55125e+06
8.02048e+06
-8.00401e+06
4.90308e+06
-4.89491e+06
-103675
-832850
767024
-792205
142198
-131694
131746
893919
1.33406e+06
-1.33427e+06
-4.64678e+06
4.65361e+06
-520215
3.82217e+06
-3.81666e+06
-581185
18253.8
4.00953e+06
924782
1.1073e+07
-1.10529e+07
8.13046e+06
-8.11392e+06
-10520.3
-1.46351e+06
-255134
390773
587816
1.34496e+06
-1.34461e+06
135291
-5096.24
-28895.8
265938
-7.52066e+06
7.53417e+06
-4.61206e+06
4.61965e+06
-1.79351e+06
165111
125632
-1.19667e+06
1.19791e+06
111024
192955
-303284
96622.8
-798888
103558
1.18895e+06
-943748
-4.08386e+06
4.09025e+06
153773
-155059
-239566
-4.44548e+06
4.45452e+06
-23246
7489.14
-5.23921e+06
5.24705e+06
-2.37422e+06
-4771.62
2.40695e+06
-2.40414e+06
-25069.1
-5.14178e+06
5.14972e+06
-1.87253e+06
548781
-3.01188e+06
-12907.4
13559
-8.49511e+06
8.51159e+06
-1.35833e+06
-81851.5
72104
-71814.4
80222.8
-79529.5
1.16685e+06
-1.48899e+06
-1.30831e+06
1.3135e+06
-2.6989e+06
342802
46951.5
-442605
443013
-32324.4
-7.46464e+06
7.47511e+06
-45570.4
1.5413e+06
-1.53911e+06
4.62169e+06
-4.61156e+06
3.27768e+06
-3.2739e+06
-304054
1.28152e+06
-1.28012e+06
-55466.9
418941
-418933
84616.7
190744
-2.85482e+06
2.85817e+06
3.50115e+06
46310.1
96467.4
-396982
1.04009e+06
355106
-2.97567e+06
-76339.1
-309950
-2.52014e+06
2.5237e+06
93531.6
-1.65126e+06
-13222.9
-108541
1775.3
-97736.7
1.37625e+06
-1.37606e+06
-1.02269e+06
542175
290625
419125
-418792
3.38738e+06
-3.38252e+06
148177
-1.0734e+06
7.8888e+06
-7.87785e+06
425788
-637706
44136.3
143842
-81904.3
-7.03116e+06
7.044e+06
-962049
949837
-182150
-12546.6
-137557
40996.1
-602294
607080
-48187
-122225
339989
3.29844e+06
-200291
-134901
-2.63294e+06
2.63707e+06
4444.37
-4615.78
54240.6
57446.9
56171.5
-54337.1
1.6262e+06
411307
-4.52582e+06
4.53315e+06
1.63787e+06
1.92272e+06
-1.9201e+06
3.09887e+06
200379
263824
384520
391077
-387978
4.59059e+06
-4.58662e+06
91265.6
-2.39264e+06
2.39987e+06
90650.2
72637.5
1.98879e+06
-1.98755e+06
-3.99312e+06
-60818.8
1.50071e+06
-39903.1
-80743.5
3843.99
3.51398e+06
-4.02759e+06
-1.72668e+06
3.97137e+06
284198
513078
139801
-1.20007e+07
1.2023e+07
-919828
605626
4.3463e+06
-4.3387e+06
316897
-332213
94382.1
-93569.2
-2.65586e+06
1.16925e+07
-1.16707e+07
256083
231355
-256401
235785
1.17979e+06
-1.17814e+06
209108
-206834
-67930.6
-1.98178e+06
1.98452e+06
-53680.9
-2.42399e+06
-134721
136974
-5.14102e+06
5.14813e+06
-179593
101761
-445941
-9.13126e+06
9.15014e+06
-1.22017e+06
1.22161e+06
-721233
-287654
785378
104496
-259495
-3.44617e+06
-23578.4
2.78864e+06
30841.8
-2.78045e+06
3.32448e+06
-3.31995e+06
-3.06765e+06
1.31798e+06
80291.5
31164.3
-4.21846e+06
743314
-2.53596e+06
4155.53
2.54171e+06
135761
72316.5
42912.7
270105
271555
-8758.05
-228264
4.88604e+06
-4.87551e+06
1.39534e+06
-2.75802e+06
-240165
-8.4312e+06
8.44918e+06
-94826.2
396086
-4.21818e+06
52506.9
4.23089e+06
607473
-602790
-301597
19243.3
2.68008e+06
241209
-144384
-314654
1.94058e+06
-28589.5
-1.8576e+06
424532
55466.4
145411
-135845
137324
-230971
14000.4
-630243
-3.21358e+06
298297
-297335
-4.08474e+06
4.09663e+06
-53667.6
-1.26638e+06
7.897e+06
-7.88572e+06
107350
-104253
2.00419e+06
-1.99947e+06
-215163
216917
-1.77509e+06
41893.8
-260525
201046
505789
-5.8744e+06
5.88296e+06
-5.07842e+06
5.08614e+06
491950
-486789
9.9351e+06
-9.91666e+06
-1.31846e+06
329378
-346216
-133022
2.35726e+06
174375
-100312
-2.09379e+06
2.09705e+06
-85253.3
84405.2
175970
-96283.9
66742.5
-3.68383e+06
-812513
3.00472e+06
-2.99935e+06
148769
83818.3
5.81354e+06
-5.80332e+06
1.30172e+06
-1.29999e+06
42299.1
1.45451e+06
-1.05659e+06
-1.4148e+06
-13511.9
-457187
-6.1106e+06
6.11939e+06
-206279
3.08705e+06
89296.4
-2.23798e+06
2.24524e+06
1.1558e+07
-1.1536e+07
2.52624e+06
-233603
-202356
-3.93757e+06
3.95114e+06
37202.2
-628219
2.99635e+06
-2.98398e+06
-3.23754e+06
4.50261e+06
-4.4965e+06
5.02254e+06
-5.01439e+06
-4.25869e+06
-9.23048e+06
9.24425e+06
-187685
-168431
381323
-380346
-234386
104167
-103187
-404958
-3.77833e+06
3.78485e+06
-977981
970023
-600032
1.2117e+07
-1.20975e+07
-192774
27165.4
-443226
-1.10418e+06
5.05219e+06
-5.04079e+06
-2.02557e+06
2.02785e+06
-59785.1
142910
3.46708e+06
-35824.3
-3.93782e+06
-3.68278e+06
-59189.8
-8.16481e+06
8.17667e+06
119476
-143684
143741
17517.4
-6614.75
-4.43306e+06
4.44134e+06
-2.91349e+06
-135388
136338
181304
-590257
155123
-3.29429e+06
-140689
3.33854e+06
-3.32569e+06
-54947.6
70916.8
1.47423e+06
-1.47219e+06
131285
-1.27336e+06
1.27646e+06
-198050
1.27733e+07
-1.27497e+07
-5.28373e+06
5.29169e+06
-1.35867e+07
1.36107e+07
-191359
-3.37201e+06
3.35535e+06
88192.1
-1.09663e+07
1.09862e+07
72040.7
1.33359e+06
-1.58472e+06
-22638.6
-38876.6
85031.2
-687772
-58264.2
4.48779e+06
-4.47835e+06
-97557.8
4.42021e+06
-4.41018e+06
232894
-4.4416e+06
4.45299e+06
-328551
27045.8
-1.25732e+06
1.25896e+06
352992
-352306
63586.1
2.33272e+06
3.71732e+06
3.18561e+06
-3.17761e+06
726929
-726187
-237634
-141975
122446
-50704.7
2.57725e+06
-2.57003e+06
-263330
2969.09
-62607.5
63160.9
-2971.11
-176827
1.42918e+06
-1.42198e+06
-9.19314e+06
9.21086e+06
-8.1987e+06
8.21546e+06
1.30265e+07
-1.30027e+07
871756
4.59072e+06
-4.57919e+06
-130485
38820.6
-4.78295e+06
4.79447e+06
-121698
3.64821e+06
-3.63825e+06
78729.6
-1.0237e+06
7833.69
-1.36715e+07
1.36957e+07
30680.7
-58501.1
-88289.2
122590
-3.62076e+06
3.62749e+06
492930
3.84217e+06
-2.08972e+06
2.09212e+06
-197596
199088
468527
-468213
276638
105895
102990
-102964
-2.97586e+06
-3.83094e+06
-751518
-511305
2.86841e+06
695186
-56455.9
-1.46678e+06
-1.20733e+06
28967.7
2.10516e+06
119893
-216504
-598913
361709
494243
-491022
4.48538e+06
-4.47463e+06
2.25232e+06
-309102
10835.6
157376
42882.3
-48615.6
-4.04629e+06
-137762
364982
6031.89
-1.08049e+06
6.1613e+06
-6.14806e+06
3.7146e+06
43408
-11039.5
-46467.5
3.02452e+06
-3.01979e+06
-86393.2
88031.7
400119
-396711
121592
-563690
-517558
-449767
-3.87295e+06
3.89128e+06
248652
6.59471e+06
-6.58645e+06
-513403
513809
-238441
3.84851e+06
-3.84075e+06
774442
-40159.5
-38289.7
160634
-6169.4
71909.5
461611
-461250
-26796.3
-909827
4.34885e+06
-4.34228e+06
-66433.2
63066.3
-2.60764e+06
-53916.9
-471998
521507
85767.8
877218
40545.2
27465.6
-83390.5
-1.93945e+06
-78796
-756246
2.79719e+06
-2.78368e+06
-58570.8
59821.4
67392.2
312397
-3.3485e+06
3.35427e+06
-84054.4
-277582
-276001
660283
-120265
1.24226e+07
-1.23999e+07
-238091
3.98648e+06
-3.97114e+06
-177978
178398
118348
-74814.1
-760556
74105.5
6.04542e+06
-6.0369e+06
-159938
232569
153118
51708.9
124218
-3.10674e+06
-1.20471e+06
-1.49214e+06
249467
61948.1
-62095.3
5.97966e+06
-5.97086e+06
78646.8
-121915
-401566
-362704
308602
-308853
16919.5
71346
-4774.49
88661.9
229792
1.9459e+06
-1.9426e+06
-670374
-205273
3.54815e+06
-3.54289e+06
-357051
29588.2
549591
956059
-955124
-2.89976e+06
2.9136e+06
-3.40522e+06
-6.36125e+06
6.37449e+06
106733
-73441.3
-58088.9
-151391
439065
-438739
202920
-2.12456e+06
2.1318e+06
31849.3
-30360.1
-3.00663e+06
3.10678e+06
1.03588e+07
-1.03401e+07
-4.20298e+06
4.20949e+06
570556
-150297
3.46149e+06
-3.45621e+06
-86218.7
-461782
8.27544e+06
-8.25888e+06
660688
-660449
-4.53761e+06
-3.49638e+06
3.50257e+06
-217795
217587
4.5469e+06
179387
160755
-216812
1.0052e+06
-1.00596e+06
25303.9
346941
776084
-16289.7
2.52696e+06
4.02965e+06
-117734
3.81714e+06
-3.80351e+06
47126.5
1.42936e+06
-4737.5
314532
-315480
-61357.6
-183478
603000
-600301
-3.06991e+06
-3.62555e+06
-181080
3.81615e+06
-3.8109e+06
-4.57507e+06
-185443
-4.3505e+06
-141520
1.10502e+07
-1.10304e+07
124592
2.19762e+06
4.57719e+06
-66153.3
84226.7
4.36463e+06
125265
7.60272e+06
-7.58655e+06
-200616
202752
26765.2
-1.56975e+06
20141.1
5.06864e+06
-5.06049e+06
-2.10955e+06
2.11307e+06
-95009.4
238869
1.00311e+06
-1.00444e+06
-40809.6
3.05507e+06
-3.04924e+06
-282460
-1.26932e+06
104063
-50149.1
142815
-89755.1
622702
-804876
48672
332951
-332689
-250635
378604
615713
-193396
102203
-390427
-537463
-163337
313363
351580
1.67979e+06
-2.91834e+06
2.24709e+06
-142271
-150374
-130676
-8.45897e+06
8.47151e+06
2.87534e+06
-1.72381e+06
1.72872e+06
-655467
-1.02256e+06
4.82288e+06
-4.812e+06
1.14345e+06
1.58512e+06
-1.57847e+06
-2.47214e+06
-78713.8
1.28324e+06
-3.0097e+06
4.07598e+06
2.43903e+06
-117155
3.24934e+06
151948
90374.4
1.06692e+07
-1.0649e+07
340867
-1.11697e+06
2.18703e+06
-2.18488e+06
4.13533e+06
82957.9
285337
199912
-1.67699e+06
1.68877e+06
-23457.3
-760904
-261164
-1.29548e+06
1.29801e+06
-109469
28875
250116
4601.94
-1.53957e+06
-75830.9
2.79932e+06
125751
-1.55658e+06
1.56597e+06
26010.9
-150833
386600
379030
61535.2
-5.78306e+06
5.79193e+06
351865
-1.14621e+06
60477.2
-8.71838e+06
8.73142e+06
-3741.37
844320
-156770
-2.27229e+06
2.27618e+06
-746664
-4.0769e+06
4.11566e+06
6.53694e+06
-6.5243e+06
10510.9
-757623
785671
-782772
-2.82536e+06
1.42095e+06
-186735
435004
-434760
-360029
4.32059e+06
-4.31526e+06
-213466
-196563
-900431
-5.15635e+06
-2.74648e+06
-51071.6
5.16393e+06
299028
381615
-1.14023e+06
-1.7826e+06
1.79234e+06
2.6568e+06
-2.83237e+06
241096
2.94182e+06
164633
-104517
-24483.7
-158932
-2.13546e+06
-130078
21669.4
664395
-788029
-93843.1
-172156
513039
-126979
89554.5
-1.17135e+06
124172
134142
-1.17597e+07
1.17789e+07
511447
-373166
-1.5196e+06
1.52427e+06
1.78318e+06
-1.78081e+06
-61213.6
-176417
56588.6
-1.22366e+06
1.23112e+06
289471
-289436
124943
293807
-21815.8
-791650
-323865
-227160
-707119
208251
-933.951
4.62157e+06
-4.60995e+06
3.16072e+06
-3.07589e+06
1.45787e+06
365135
392599
-391806
812183
1.16429e+06
2.96338e+06
47708.7
-108776
155894
20110.7
-186730
-86117.5
-195577
-75346.8
-118678
4.77302e+06
-4.76149e+06
-151721
961828
2.51293e+06
-49457.9
-37201.9
572810
-572353
-2.64564e+06
6043.1
-4.76815e+06
4.7742e+06
5.3042e+06
-5.29676e+06
718764
-231648
149847
397676
-5.47852e+06
5.48675e+06
2.32943e+06
-2.3258e+06
991400
365304
-365067
-332674
123020
-631310
182791
-181205
-2.70893e+06
-1.6234e+06
203300
-291383
-4.70454e+06
4.71215e+06
2.96834e+06
-78883.8
70659
3980.55
232966
-91139.8
3.34479e+06
-3.32882e+06
-370921
370933
-724051
-3.72438e+06
3.74701e+06
-2.06013e+06
2.06339e+06
1.36996e+06
25743.9
273182
129837
3.57699e+06
-3.56456e+06
-695353
-1.18822e+06
-2095.96
-27701.3
-1.00097e+07
1.00296e+07
127359
663711
45321.2
1.91276e+06
-1.91016e+06
-149473
-863573
-34826.8
-56831.1
3.7695e+06
-3.76389e+06
91191.6
3.74848e+06
-3.73785e+06
126644
-58042.4
162137
-121064
3.32058e+06
397896
51098
-306099
-66062.5
1.36709e+06
-1.26877e+06
444644
-440980
104179
4.21198e+06
-4.2051e+06
5.84221e+06
-5.83365e+06
-107615
5.28752e+06
-5.28024e+06
-8.45332e+06
8.46727e+06
-122526
122396
751.079
293102
-292920
-295730
517407
-1.57882e+06
-892981
-111426
72027
31167.4
-29458.7
-2.87097e+06
2.8781e+06
691907
-92436.4
111943
125357
-248743
94833.6
-82786.9
-299039
48142.6
4.09453e+06
-4.08959e+06
59722.6
-3.48827e+06
-37750.8
-65805.2
-1.87172e+06
-1.55177e+06
3.56057e+06
-3.5492e+06
3.31669e+06
-106778
-571008
621887
-181093
177634
-65947.4
-4.26967e+06
4.28179e+06
83098.7
-1.11245e+06
2.65734e+06
-3.83204e+06
4.2123e+06
70023.9
3.83766e+06
-115189
244418
2.0394e+06
2.16604e+06
-1.30579e+06
756019
121165
59.2257
-42739
-6543.73
262534
-2.64906e+06
58333.4
201283
-200220
53894.9
876775
-1.27838e+06
-1.51259e+06
273648
-5.08823e+06
634435
-196607
105225
126894
5.09385e+06
276909
-571427
577021
-77892.8
37072.5
-40265.5
-132399
663137
-659823
107984
-5.33964e+06
5.34808e+06
177384
5.334e+06
-5.32592e+06
584071
1.21458e+07
-1.21237e+07
158786
100621
-417925
172868
-172239
304876
-19051.6
-134920
-270357
5.76477e+06
-5.75646e+06
-3.42936e+06
1.11602e+06
940903
-95478.9
1.89844e+06
-1.89203e+06
433058
-429407
548081
20989.9
1.11591e+07
-1.11392e+07
4.17592e+06
-4.16818e+06
-4502.97
287138
1.23618e+06
4.83365e+06
-4.82432e+06
-122110
-687947
692847
69037.8
-62778.9
-3.84833e+06
3.85459e+06
96093.8
525703
-525572
5.7492e+06
-5.73841e+06
-388234
-86462.7
-597640
30535.2
2.70907e+06
466527
-22985.7
1.42231e+06
3.63178e+06
-91638.5
568418
-70675.2
331662
-331087
-1.76534e+06
-8.46305e+06
8.47631e+06
3.59084e+06
-3.58579e+06
-1.05288e+06
-4.33243e+06
4.34547e+06
1.65381e+06
-1.64143e+06
-608304
1.80314e+06
-1.78957e+06
56005.8
-157582
159415
30512.8
-54542.9
-300121
126237
3.19909e+06
-3.24167e+06
158683
99268.8
-1.52957e+06
-133722
-224695
227215
-2.51465e+06
2.51795e+06
22809.8
235768
5.03717e+06
-5.03047e+06
-78128.4
2.78386e+06
96566
-766806
642492
3.51285e+06
-249487
-232275
-34448.9
-4.44936e+06
4.45543e+06
-1.52939e+06
1.53865e+06
-1.20938e+06
1.20822e+06
1.12429e+06
-1.11206e+06
-28133.6
144719
56141
141596
-2.7775e+06
-564429
3.03058e+06
-3.0273e+06
-16396.8
45128.2
1.23726e+06
-3.91707e+06
3.92931e+06
2.2704e+06
364008
-2798.59
3.65166e+06
-3.64188e+06
-3.85138e+06
-111817
-844283
842184
-2.19762e+06
-4.57189e+06
4.58373e+06
-198772
-1.64999e+06
-3.7366e+06
-114525
-514584
455581
41587.3
1.08016e+06
6.96161e+06
-6.9457e+06
-46263.7
8.57533e+06
-8.55829e+06
809972
3.8635e+06
-3.85474e+06
-1.06549e+07
1.06753e+07
-68157.7
-1.22966e+06
1.23578e+06
-613513
613385
62130.6
-2.63319e+06
124489
9.70143e+06
-9.683e+06
-76969.1
-253572
-3.24671e+06
3.24979e+06
93226.5
7.5523e+06
-7.54205e+06
1.34603e+06
-61355.2
-741.951
1044.94
-783476
788205
-5.91452e+06
4.28345e+06
-4.27573e+06
161793
1.87203e+06
-1.86929e+06
2.70484e+06
-2.70046e+06
201153
2.6178e+06
6.67555e+06
-6.66621e+06
-2.52928e+06
2.53241e+06
1.40713e+06
126234
-7.83027e+06
7.84097e+06
463666
145752
-144401
108099
-108207
-2.3245e+06
8.89787e+06
-8.88364e+06
404618
-3.85774e+06
3.86489e+06
-1.97237e+06
-643315
-965163
966033
-5.75504e+06
5.76348e+06
-1.19704e+06
256899
-122347
2.08467e+06
-145090
-815241
2.25884e+06
3.10086e+06
66959.6
-186705
-1.52893e+06
1.53035e+06
395947
-395514
148244
-44063.7
16952
191222
125696
-9774.66
-31162.9
50719.2
50833.7
1.77016e+06
-1.76331e+06
-1.04758e+07
1.0496e+07
706546
10156.4
-2.61008e+06
-125300
-136311
892353
-1.57221e+06
-641535
2.08402e+06
-2.07744e+06
206069
-2.88773e+06
2.89821e+06
-1.3616e+06
-5.42475e+06
5.43179e+06
-4.60764e+06
4.61471e+06
-1.53179e+06
-4.57935e+06
4.59091e+06
1.4815e+06
-1.47988e+06
4.8131e+06
-4.80401e+06
1.25184e+07
-1.2496e+07
-45915
1.3392e+06
746146
-252865
-8.98459e+06
9.00314e+06
-4.62617e+06
4.63728e+06
-30963.3
-275242
-1.38309e+06
166726
-166632
851360
159221
-203337
-1.32812e+06
-275195
-73351.4
-287591
2.80784e+06
-2.79769e+06
-232125
-376026
570721
2.20445e+06
-2.2012e+06
68440
434425
1.24307e+06
-702177
-136874
82081.9
-59488.2
9.23696e+06
-9.22067e+06
1.74222e+06
-1.73971e+06
8.24929e+06
-8.23274e+06
-29643
70839.5
-108945
1.45302e+06
-2.05684e+06
68002.2
-44218.5
148493
719061
-831569
830673
4.71389e+06
-4.70994e+06
483092
1.68257e+06
-681531
675332
1.35011e+07
-1.34775e+07
45507.3
-44851.4
-1.51456e+06
-71881.4
112053
459533
-157397
154491
-416419
416873
121800
-865.87
5.29638e+06
-5.28842e+06
-251679
158869
415973
-161156
-189442
136842
3.16821e+06
-3.20581e+06
8.44921e+06
-8.43295e+06
-160809
1.43054e+06
-1.42894e+06
5.7266e+06
-5.71806e+06
-86478
3.46982e+06
-3.48846e+06
-6.86155e+06
6.8755e+06
-1.20683e+06
-145895
-4.31064e+06
-2.27798e+06
2.28488e+06
-7.58388e+06
7.59457e+06
111618
4.39981e+06
-4.30371e+06
4.31622e+06
105853
-121009
-2.7406e+06
2.74434e+06
-35132.7
84386.5
-116118
428624
-4.71204e+06
-4.27629e+06
4.28674e+06
2.35173e+06
4.12306e+06
-4.11406e+06
874031
1.52751e+06
4.71785e+06
-4.03623e+06
4.04932e+06
-1.15522e+06
2.17069e+06
33646.1
1.0122e+06
-1.0113e+06
603583
925225
3.02451e+06
-3.01497e+06
44481.5
-1.39055e+06
1.38654e+06
5.91568e+06
1.5415e+06
-1.50069e+06
1.65403e+06
-1.64908e+06
1.00931e+06
-787042
-149874
-124252
133339
-1.41669e+06
-408761
-67346.6
2.40245e+06
102725
-1.13083e+06
7.42013e+06
-7.4095e+06
-2.73824e+06
2.97138e+06
-2.96872e+06
4.8964e+06
-4.88829e+06
529387
-5.30656e+06
5.31459e+06
722435
447829
136871
-1.73077e+06
1.73247e+06
539065
-2.52783e+06
2.53327e+06
-2.94044e+06
14994.3
3.64362e+06
-214039
-100698
-228761
-859290
864861
1.00608e+07
-1.00421e+07
43218
103396
1.89444e+06
-4.79764e+06
4.80644e+06
-20123.2
2.35194e+06
-2.34644e+06
205721
-176783
176712
-250487
2.04735e+06
-479042
-861442
759956
2.04683e+06
-2.0399e+06
-2.16411e+06
125184
244781
-11473
-149439
-506174
-14309.9
-516864
286959
-923338
2.05626e+06
-2.05116e+06
184620
8.39339e+06
-8.37884e+06
228795
-222530
277608
-195248
233775
-1.91531e+06
3.57969e+06
61722.2
103541
32988.6
-32743.9
765744
-21396.4
-229099
20037.4
-1.42534e+06
1.42567e+06
4.18317e+06
-4.17751e+06
1.03014e+06
-654951
1.60728e+06
-2.28792e+06
2.29431e+06
-157136
-15038.1
66515.6
-4.25556e+06
4.26402e+06
1.51967e+06
195505
-194094
77464.5
-69275.8
-220763
223365
189592
8509.16
-269863
-1.57565e+06
380185
3.68159e+06
-3.66942e+06
-4.89745e+06
4.90814e+06
2.21219e+06
43503.9
349185
-349016
-4.86541e+06
4.87594e+06
5366.11
1.91945e+06
98379.3
866007
106890
54773.3
461652
262442
-300638
-1.36201e+07
1.36442e+07
-69538.2
1.02866e+07
-1.02669e+07
1.92458e+06
-1.92203e+06
3.45732e+06
-422983
340025
-1.41302e+06
1.1514e+06
-15492
-1.52594e+06
-2.49054e+06
5.24723e+06
-5.24248e+06
-2.57721e+06
2.49699e+06
-2.10069e+06
2.10625e+06
1.08728e+06
-205726
-11794
263219
9.45263e+06
-9.43406e+06
265695
-4.34681e+06
4.35368e+06
2.75865e+06
93850.8
-1.74566e+06
131325
4.35328e+06
-4.33953e+06
929449
126168
7331.65
-140077
141215
-287406
286563
3.00064e+06
-3.19895e+06
-92761.1
-697673
733383
192784
1098.2
-99362.1
172218
-9338.54
-4.78093e+06
4.79288e+06
-132210
227729
-4.20256e+06
4.21258e+06
79210.2
-4.30301e+06
-24207.5
-1.46889e+06
4.3162e+06
-19107.5
20607.9
80288.8
3.55718e+06
-5.17926e+06
5.18924e+06
3.23126e+06
-200621
-22566.2
125404
-123509
1.38012e+06
5.27982e+06
-5.27185e+06
-75509.5
53791.5
16401.1
189132
-49424.6
-212279
-227793
1.14024e+06
-1.13673e+06
193162
-78575.3
612879
800034
-797351
3.74527e+06
-3.72609e+06
3.73809e+06
4.33103e+06
-4.32492e+06
-1.3399e+07
1.34228e+07
175487
1.41917e+06
-1.4604e+06
-122432
87169.2
2.07301e+06
-387494
-2.15121e+06
-2.9501e+06
181359
-160520
-2.71654e+06
2.72258e+06
-226756
-3.01448e+06
280279
1.35994e+06
-138534
-50670.5
-98232.1
137977
5.45125e+06
-5.44438e+06
-155344
14266.9
-1.07354e+06
1.0648e+06
-230779
-179567
-11184.7
-13650.6
11458.3
-10823.4
274105
1.55169e+06
-1.54521e+06
-165448
-5.01151e+06
5.01969e+06
-212507
-3.40036e+06
59443.4
3.40376e+06
102930
-96717.7
423116
-1.46378e+06
-474575
-22936
-4.90643e+06
4.91442e+06
269869
-203977
-55961.4
296927
-3.20001e+06
3.20401e+06
1.29334e+07
-1.29098e+07
-2.51348e+06
-389470
-344409
-4.5277e+06
4.5376e+06
93250.2
-91560.4
-84047.5
-205643
2.82905e+06
94217.8
2.51854e+06
1.04666e+06
-4.04993e+06
4.06208e+06
-600521
60728.7
-3.04341e+06
-128714
-223531
-2.37468e+06
1.97502e+06
-1.97022e+06
-365716
-180712
180732
287909
-285842
132268
3.15215e+06
-46211
-3.34437e+06
-589449
590986
-509994
2.76082e+06
-144515
3.03817e+06
-150178
-835433
836350
222413
-1.23468e+07
1.23672e+07
-3.07775e+06
3.08209e+06
47665.9
215963
-213960
-11044.2
-113825
113893
-2.47738e+06
2.48479e+06
-7.48272e+06
7.49289e+06
1901.39
1.32731e+06
1.11235e+06
-1.11206e+06
-111491
-87825.7
3.94868e+06
-3.93659e+06
-859620
-3216.57
4.41677e+06
-4.40898e+06
-1.86879e+06
4.43287e+06
-4.42554e+06
96897.8
68092.7
-871056
4.67406e+06
-4.66794e+06
66941
1.62126e+06
-1.61499e+06
-4.43599e+06
4.44915e+06
3.00811e+06
-3.00322e+06
1.68707e+06
5029.32
-2.4083e+06
2.41363e+06
-2.05608e+06
2.06101e+06
-1.32458e+06
-501159
870940
510152
34169.6
813714
7.48995e+06
-7.47909e+06
3.75755e+06
-3.74883e+06
-2.42865e+06
2.43156e+06
-70345.6
-1.20823e+06
1.05794e+06
2.88697e+06
-2.88044e+06
-2.99048e+06
-463786
467200
-62015
-116954
1.69933e+06
-1.68269e+06
-255714
-208480
149032
-42331.3
43372.3
-103219
-3.54253e+06
3.53787e+06
68511.8
926291
-307558
124464
-6.11585e+06
6.12451e+06
165186
-3.28213e+06
313639
-8.82907e+06
8.8463e+06
432829
3.57113e+06
-3.56316e+06
-147232
-2.33435e+06
-557644
28439.9
-1.76677e+06
-28770.8
-693008
692541
294158
-294644
363242
-2.69826e+06
2.70237e+06
-1.48932e+06
-995401
1.49581e+06
-2.55664e+06
2.56831e+06
1.807e+06
-919263
-33258.8
461240
-1.93523e+06
1.41537e+06
228645
-230258
387131
-2.93205e+06
-215081
-1.14893e+06
-66117
187447
-303664
796067
129087
-80784.1
-2.14616e+06
2.149e+06
-467460
467887
-162006
1.3015e+06
-1.28521e+06
-652442
-1.22085e+06
1.95109e+06
-172754
891542
30935.8
-450945
529576
-718378
719145
-1.36879e+06
-51894.3
176294
1.34055e+07
-1.3381e+07
27657.6
147619
653236
30567.5
155230
-707110
331242
128075
-1.86885e+06
34955.6
26245.9
-26392.7
1.40743e+06
-1.4331e+06
165901
342109
4.17927e+06
-4.17297e+06
1.54446e+06
80298.2
1.40066e+06
-3.45563e+06
3.46723e+06
28767.1
173514
3.75898e+06
-1.78111e+06
272510
-86719
292944
-67538.3
62908.1
64328
79691.5
83446.3
1.44768e+06
-6475.06
173827
-172730
-1.36793e+06
1.37142e+06
298719
-276116
205912
-189407
2.4148e+06
-6.60707e+06
6.62296e+06
-58060.5
144810
-15764.6
2.24471e+06
-3.53828e+06
-2.65651e+06
161531
-803441
803593
-2.19466e+06
2.20165e+06
-5.14683e+06
5.15234e+06
13459
-4.49432e+06
243971
-170478
-161829
2.65183e+06
-60772.5
-142745
255803
-19722.2
4.50483e+06
-199030
596535
4.3976e+06
-57934.6
62216
-143903
268321
-919017
1.00131e+06
-1.00109e+06
3.67364e+06
-3.66387e+06
-2.45257e+06
430971
-270130
-1.68874e+06
1.6953e+06
1.71245e+06
214643
-121353
106330
86595.7
-59822.8
-52975.8
-596021
853635
-843432
163702
-3.4657e+06
-90571.7
-131102
-4.32959e+06
4.34244e+06
-483076
3.10686e+06
-3.09643e+06
227132
-226245
-233332
3.67307e+06
-3.66393e+06
-71822
-216803
-100602
-773020
-639069
651143
-3.82068e+06
3.83153e+06
72560.2
370891
3.52572e+06
4.70826e+06
-4.70086e+06
4.64671e+06
-4.63683e+06
586040
-4.16222e+06
4.17175e+06
2.45986e+06
-118061
-1.22878e+06
1.22996e+06
-1.5611e+06
155908
149066
891679
101266
-100681
-3.3543e+06
3.36543e+06
-2.18088e+06
2.1882e+06
4.28716e+06
-4.28159e+06
65716.6
2.38875e+06
-2.38538e+06
-202316
-26655
-23236.9
3.02833e+06
-3.01846e+06
408836
-17655.4
658221
-300638
-2646.14
-1.03997e+07
1.0419e+07
-396858
315421
-142267
-4.69571e+06
4.70291e+06
27762.5
272914
-276423
3.50464e+06
-3.49247e+06
50065.7
-49222.2
2.11083e+06
1.98996e+06
2.04868e+06
86741.1
3.19387e+06
2.17115e+06
-2.10305e+06
-1.69843e+06
1.10091e+06
-1.09961e+06
339835
247631
-246241
223357
-1.24311e+06
1.24212e+06
17958.3
-60449
-4.27762e+06
4.28644e+06
-249107
1.7083e+06
4.24934e+06
1.59275e+06
-58197.7
-3.75024e+06
3.76187e+06
1.10051e+06
-1.08516e+06
-1.26046e+06
-30044.9
18036
102998
-225974
308904
-310218
-1.24497e+06
-308986
309470
-4.36828e+06
4.3777e+06
-138097
-531032
520687
120808
46295.9
225482
-215909
39863.8
-31232
65343.4
-70627.2
34673.6
853291
-2.49463e+06
-133155
3.17444e+06
-3.16363e+06
460463
-2.65474e+06
2.65855e+06
881691
-885952
-3.28303e+06
-108837
-691747
43107.7
112101
906333
-905641
-187283
-30499.4
1.4299e+06
-170057
768110
-764286
-44164.6
173154
4.7747e+06
-4.76385e+06
-1.01044e+07
1.01234e+07
-1.96272e+06
1.96869e+06
-4.32016e+06
532206
-155023
4.31357e+06
153161
3.01883e+06
-2.99272e+06
287031
-4.64671e+06
4.66101e+06
-2.95542e+06
-186749
185399
23505.4
2.05169e+06
129831
3.14362e+06
250138
-884566
-176764
-585408
585607
3.69061e+06
-5.14716e+06
5.16053e+06
-1.62102e+06
1.62321e+06
838136
2.47663e+06
-4.86739e+06
4.87772e+06
-111049
2704.14
1.70015e+06
3.41523e+06
-2.00507e+06
224112
6.20751e+06
-6.1921e+06
87071.7
7.66317e+06
-7.65363e+06
-65159.8
65159.6
-3.64939e+06
-4.07712e+06
-64849.7
-3.04588e+06
4.06799e+06
-180957
1.01171e+06
-1.00796e+06
3.9291e+06
-3.91811e+06
-244147
-1.8404e+06
-337530
216682
-2.53926e+06
186954
-185378
4.51633e+06
34700.4
-29048.1
20200.8
11915.2
-2.29353e+06
2.30091e+06
40068.1
-184478
184282
1.02934e+06
1.6834e+06
-1.67772e+06
-147260
2.32454e+06
318840
1.12509e+07
-1.12293e+07
89763.7
-85560.7
-27504.7
-125158
-585439
73815.2
283873
-770573
-5.03014e+06
5.03765e+06
209492
175616
27345
41712.9
-2.08042e+06
90446.6
197486
-199945
-8.90634e+06
8.9218e+06
-4.69622e+06
-87943.3
4.68467e+06
1.14316e+06
1.23186e+07
-1.22965e+07
150375
-4.93132e+06
-225597
4.89062e+06
887873
-894091
-760129
759268
113166
-118663
205742
-84718.2
3.02818e+06
-3.01719e+06
-44057.5
-1.79925e+06
-398964
313858
606502
3.56935e+06
-3.56665e+06
-910403
-201873
-528848
-4.71949e+06
4.7277e+06
3.76545e+06
-3.76259e+06
-26763.5
-1107.72
11151.5
-91210.6
-444063
-324779
574449
-573811
58811.5
20866.5
719518
72880.6
129091
-1.16435e+06
1.166e+06
61307.9
2.22943e+06
-51404.5
-3.96889e+06
3.98263e+06
1.68315e+06
-1.6759e+06
-2.60471e+06
-136110
3.2e+06
-3.19695e+06
-535285
-2.22713e+06
176813
511994
-1.60459e+06
5.01498e+06
-5.00473e+06
-92128.9
-2.00321e+06
-964822
962574
1.06239e+06
-1.05924e+06
195913
4.94491e+06
-4.93447e+06
8.51905e+06
-8.50243e+06
248897
-248192
-2.48284e+06
-1.19032e+06
747279
-137339
4.20865e+06
-4.20154e+06
55840
-4.94816e+06
4.96025e+06
254172
384932
-13093.8
1.98863e+06
-1.98798e+06
20374.1
-503997
-27419.3
115754
-2576.07
-1.59121e+06
1.59281e+06
-221013
695428
1.81692e+06
5.97988e+06
-5.97118e+06
-1.25308e+07
1.25532e+07
-2.74724e+06
-1.66019e+06
-4.56817e+06
4.58273e+06
-1.33419e+07
1.33654e+07
-3.38128e+06
3.38927e+06
-2.39568e+06
2.39954e+06
577286
896803
1.1001e+07
-1.09825e+07
108012
982532
-981734
1.35293e+06
132308
175603
1.31916e+06
-1.32001e+06
3.83901e+06
-2.52584e+06
231353
-126134
3.78192e+06
1.74789e+06
-68957.6
197965
-1.20845e+06
5.29015e+06
-5.28202e+06
6.88816e+06
-6.87782e+06
2.58461e+06
-2.57957e+06
-3.82711e+06
1.19639e+06
-1.19366e+06
-912830
907053
45996.7
41169.3
-163149
147642
4.59162e+06
-4.57826e+06
-2.11101e+06
2.11396e+06
1.3654e+07
-1.36297e+07
80029.7
-419382
-45591.7
279471
-250265
-1.29267e+06
1.29994e+06
-36809.6
-47265
-1.4023e+06
51208.7
-1.00484e+06
-3.77084e+06
-4.66661e+06
4.6758e+06
-1.53241e+06
123511
-45578.5
-3.65098e+06
3.66416e+06
216372
2.95042e+06
-2.93876e+06
-34230.2
-768048
-559758
-290702
290820
-332355
9.34114e+06
-9.32325e+06
-2.26224e+06
542712
327980
2.14304e+06
-38230.6
-21297
144029
-142934
-1.16754e+06
62797.3
-627565
-1.06274e+06
3.67127e+06
3.8966e+06
169465
1.67904e+06
-1.34766e+06
1.34261e+06
93094.5
-81231.7
-4.64535e+06
1.26968e+06
854013
21276
-166241
1.0709e+07
-1.06896e+07
1.4865e+06
4.63718e+06
486289
-483957
-716016
654912
-655127
-3.58189e+06
3.59577e+06
410254
-1.27789e+07
1.28007e+07
163501
2.84468e+06
61069.3
34008.8
176212
1.99684e+06
-1.99403e+06
147759
4.2066e+06
-4.19708e+06
-110843
76420
34591
-34306.6
-1.54725e+06
-544265
-250461
1.05241e+07
-1.05037e+07
1.66254e+06
-129064
565886
261794
998055
-996801
5.5489e+06
-5.54087e+06
38170.6
-218559
-954122
187166
929507
1.49108e+06
294806
-295472
321428
-55838.6
126522
67142.5
-262359
70132.5
168506
-260085
497971
7.15251e+06
-7.13674e+06
-46233.5
-3.9606e+06
3.97377e+06
-1.33615e+06
1.33499e+06
74504.4
-3.72141e+06
3.73276e+06
-1.85762e+06
-2.43225e+06
3.97766e+06
519510
240318
-252344
236736
-4.84231e+06
4.8532e+06
1.23114e+06
166771
-165095
1.20602e+07
-1.2038e+07
-5195.59
-4.61452e+06
4.65943e+06
43653
232917
239460
3.41366e+06
-3.40802e+06
-1.55341e+06
-49508.1
2.24364e+06
-2.23996e+06
-143514
-7908.99
-32013.3
1.40245e+06
-5.08197e+06
5.09079e+06
1.18033e+06
178930
8228.09
-925001
5.82807e+06
-5.81425e+06
319.423
4.38811e+06
-4.20924e+06
-2.73529e+06
5.62007e+06
-5.60772e+06
4.21866e+06
115848
878395
-166615
1.12496e+06
-1.12403e+06
705952
-462373
4.12858e+06
-4.12055e+06
3.3789e+06
-3.37253e+06
163541
99627.1
-4.32401e+06
57048.4
-7.49647e+06
7.51192e+06
-13119.1
223455
37512.4
-44863.6
-1.71913e+06
-3.81889e+06
3.83557e+06
160950
26182.9
-321071
299160
-239406
9.49657e+06
-9.47775e+06
-147695
-20689.2
3.51497e+06
-3.50946e+06
-739159
-43483.7
-299679
-34642
25893.3
-1.76422e+06
-182356
-146752
1.8528e+06
37243.7
3.42565e+06
762888
85034.1
4.74396e+06
-4.73334e+06
581432
-577002
-769529
-69734.9
3.23505e+06
-3.22786e+06
-2.37818e+06
246978
-4.39989e+06
1.16884e+06
-1.16736e+06
-2.78244e+06
2.7861e+06
-1.02539e+06
215964
-427346
401869
-58863.2
4.45936e+06
3.0975e+06
49714.9
-4.70125e+06
-291729
2.40032e+06
54018.5
-54193.4
-43244.1
200581
588236